 Entering Gaussian System, Link 0=g16
 Initial command:
 /apps/gaussian/g16-c01-avx/g16/l1.exe "/rds/general/ephemeral/user/atarzia/ephemeral/Gau-2854726.inp" -scrdir="/rds/general/ephemeral/user/atarzia/ephemeral/"
 Entering Link 1 = /apps/gaussian/g16-c01-avx/g16/l1.exe PID=   2854727.
  
 Copyright (c) 1988-2019, Gaussian, Inc.  All Rights Reserved.
  
 This is part of the Gaussian(R) 16 program.  It is based on
 the Gaussian(R) 09 system (copyright 2009, Gaussian, Inc.),
 the Gaussian(R) 03 system (copyright 2003, Gaussian, Inc.),
 the Gaussian(R) 98 system (copyright 1998, Gaussian, Inc.),
 the Gaussian(R) 94 system (copyright 1995, Gaussian, Inc.),
 the Gaussian 92(TM) system (copyright 1992, Gaussian, Inc.),
 the Gaussian 90(TM) system (copyright 1990, Gaussian, Inc.),
 the Gaussian 88(TM) system (copyright 1988, Gaussian, Inc.),
 the Gaussian 86(TM) system (copyright 1986, Carnegie Mellon
 University), and the Gaussian 82(TM) system (copyright 1983,
 Carnegie Mellon University). Gaussian is a federally registered
 trademark of Gaussian, Inc.
  
 This software contains proprietary and confidential information,
 including trade secrets, belonging to Gaussian, Inc.
  
 This software is provided under written license and may be
 used, copied, transmitted, or stored only in accord with that
 written license.
  
 The following legend is applicable only to US Government
 contracts under FAR:
  
                    RESTRICTED RIGHTS LEGEND
  
 Use, reproduction and disclosure by the US Government is
 subject to restrictions as set forth in subparagraphs (a)
 and (c) of the Commercial Computer Software - Restricted
 Rights clause in FAR 52.227-19.
  
 Gaussian, Inc.
 340 Quinnipiac St., Bldg. 40, Wallingford CT 06492
  
  
 ---------------------------------------------------------------
 Warning -- This program may not be used in any manner that
 competes with the business of Gaussian, Inc. or will provide
 assistance to any competitor of Gaussian, Inc.  The licensee
 of this program is prohibited from giving any competitor of
 Gaussian, Inc. access to this program.  By using this program,
 the user acknowledges that Gaussian, Inc. is engaged in the
 business of creating and licensing software in the field of
 computational chemistry and represents and warrants to the
 licensee that it is not a competitor of Gaussian, Inc. and that
 it will not use this program in any manner prohibited above.
 ---------------------------------------------------------------
  

 Cite this work as:
 Gaussian 16, Revision C.01,
 M. J. Frisch, G. W. Trucks, H. B. Schlegel, G. E. Scuseria, 
 M. A. Robb, J. R. Cheeseman, G. Scalmani, V. Barone, 
 G. A. Petersson, H. Nakatsuji, X. Li, M. Caricato, A. V. Marenich, 
 J. Bloino, B. G. Janesko, R. Gomperts, B. Mennucci, H. P. Hratchian, 
 J. V. Ortiz, A. F. Izmaylov, J. L. Sonnenberg, D. Williams-Young, 
 F. Ding, F. Lipparini, F. Egidi, J. Goings, B. Peng, A. Petrone, 
 T. Henderson, D. Ranasinghe, V. G. Zakrzewski, J. Gao, N. Rega, 
 G. Zheng, W. Liang, M. Hada, M. Ehara, K. Toyota, R. Fukuda, 
 J. Hasegawa, M. Ishida, T. Nakajima, Y. Honda, O. Kitao, H. Nakai, 
 T. Vreven, K. Throssell, J. A. Montgomery, Jr., J. E. Peralta, 
 F. Ogliaro, M. J. Bearpark, J. J. Heyd, E. N. Brothers, K. N. Kudin, 
 V. N. Staroverov, T. A. Keith, R. Kobayashi, J. Normand, 
 K. Raghavachari, A. P. Rendell, J. C. Burant, S. S. Iyengar, 
 J. Tomasi, M. Cossi, J. M. Millam, M. Klene, C. Adamo, R. Cammi, 
 J. W. Ochterski, R. L. Martin, K. Morokuma, O. Farkas, 
 J. B. Foresman, and D. J. Fox, Gaussian, Inc., Wallingford CT, 2019.
 
 ******************************************
 Gaussian 16:  ES64L-G16RevC.01  3-Jul-2019
                19-Oct-2021 
 ******************************************
 %chk=_1_alde1_3_ami4_2_opt_dcm.chk
 %mem=60000mb
 %nprocshared=32
 Will use up to   32 processors via shared memory.
 ----------------------------------------------------------------------
 #P PBE1PBE/Def2TZVP SP SCF=(YQC,MaxCycle=900) int=(Grid=Superfinegrid)
  EmpiricalDispersion=GD3 SCRF=(PCM,Solvent=Dichloromethane)
 ----------------------------------------------------------------------
 1/38=1,172=1/1;
 2/12=2,17=6,18=5,40=1/2;
 3/5=44,7=101,11=2,25=1,30=1,70=2201,72=9,74=-13,75=-7,124=31/1,2,3;
 4//1;
 5/5=2,7=900,8=4,13=1,38=1,53=9/8,2,8;
 6/7=2,8=2,9=2,10=2,28=1/1;
 99/5=1,9=1/99;
 Leave Link    1 at Tue Oct 19 01:56:13 2021, MaxMem=  7864320000 cpu:               5.2 elap:               0.2
 (Enter /apps/gaussian/g16-c01-avx/g16/l101.exe)
 -------------------------
 _1_alde1_3_ami4_2_opt_dcm
 -------------------------
 Symbolic Z-matrix:
 Charge =  0 Multiplicity = 1
 C                    -0.872    -0.345    -1.1043 
 C                    -0.9763   -1.6702   -0.4649 
 C                    -1.9469    0.5299   -1.1924 
 C                    -1.8029    1.7806   -1.7969 
 H                    -2.924     0.2578   -0.8281 
 C                    -0.5718    2.1486   -2.3227 
 C                     0.5137    1.2753   -2.2575 
 H                    -0.4284    3.1084   -2.7946 
 C                     0.353     0.0323   -1.6541 
 C                     1.8029    1.654    -2.8188 
 H                     1.1917   -0.6484   -1.5975 
 C                    -2.9389    2.6896   -1.8681 
 C                    -3.7274   -1.4104    1.4381 
 C                    -2.2088   -1.1167    1.4918 
 N                    -4.0997   -2.7471    1.8404 
 N                    -1.5185   -2.0151    0.6181 
 H                    -1.8536   -1.3407    2.5044 
 C                    -5.1426    3.316    -1.3961 
 C                    -6.3839    2.5511   -1.8665 
 N                    -4.0378    2.4162   -1.3143 
 N                    -6.813     1.645    -0.817 
 C                     3.2595    3.1182   -3.9053 
 C                     3.7866    4.3718   -3.1965 
 N                     1.9813    2.771    -3.3759 
 H                     4.0027    2.3103   -3.8133 
 N                     5.0715    4.7461   -3.7608 
 H                     4.9631    5.0123   -4.7343 
 H                     5.4557    5.5417   -3.2633 
 H                    -3.8164   -2.9162    2.8003 
 H                    -3.6127   -3.4219    1.2592 
 H                    -7.5458    1.0294   -1.1527 
 H                    -6.0246    1.072    -0.534 
 H                    -0.4636   -2.4705   -0.9959 
 H                    -2.7701    3.6266   -2.4218 
 H                     2.6045    0.9037   -2.7295 
 H                    -2.0305   -0.0539    1.2782 
 H                     3.1215    3.3508   -4.9669 
 H                    -4.9446    4.1735   -2.0608 
 H                    -5.3425    3.6826   -0.3846 
 H                    -6.1419    2.0453   -2.8178 
 H                    -7.1936    3.2625   -2.0561 
 H                    -4.0831   -1.2657    0.4139 
 H                    -4.2426   -0.6965    2.0863 
 H                     3.0184    5.1587   -3.2671 
 H                     3.9381    4.1432   -2.1376 
 
 ITRead=  0  0  0  0  0  0  0  0  0  0  0  0  0  0  0  0  0  0  0  0
 ITRead=  0  0  0  0  0  0  0  0  0  0  0  0  0  0  0  0  0  0  0  0
 ITRead=  0  0  0  0  0
 MicOpt= -1 -1 -1 -1 -1 -1 -1 -1 -1 -1 -1 -1 -1 -1 -1 -1 -1 -1 -1 -1
 MicOpt= -1 -1 -1 -1 -1 -1 -1 -1 -1 -1 -1 -1 -1 -1 -1 -1 -1 -1 -1 -1
 MicOpt= -1 -1 -1 -1 -1
 NAtoms=     45 NQM=       45 NQMF=       0 NMMI=      0 NMMIF=      0
                NMic=       0 NMicF=      0.
                    Isotopes and Nuclear Properties:
 (Nuclear quadrupole moments (NQMom) in fm**2, nuclear magnetic moments (NMagM)
  in nuclear magnetons)

  Atom         1           2           3           4           5           6           7           8           9          10
 IAtWgt=          12          12          12          12           1          12          12           1          12          12
 AtmWgt=  12.0000000  12.0000000  12.0000000  12.0000000   1.0078250  12.0000000  12.0000000   1.0078250  12.0000000  12.0000000
 NucSpn=           0           0           0           0           1           0           0           1           0           0
 AtZEff=  -0.0000000  -0.0000000  -0.0000000  -0.0000000  -0.0000000  -0.0000000  -0.0000000  -0.0000000  -0.0000000  -0.0000000
 NQMom=    0.0000000   0.0000000   0.0000000   0.0000000   0.0000000   0.0000000   0.0000000   0.0000000   0.0000000   0.0000000
 NMagM=    0.0000000   0.0000000   0.0000000   0.0000000   2.7928460   0.0000000   0.0000000   2.7928460   0.0000000   0.0000000
 AtZNuc=   6.0000000   6.0000000   6.0000000   6.0000000   1.0000000   6.0000000   6.0000000   1.0000000   6.0000000   6.0000000

  Atom        11          12          13          14          15          16          17          18          19          20
 IAtWgt=           1          12          12          12          14          14           1          12          12          14
 AtmWgt=   1.0078250  12.0000000  12.0000000  12.0000000  14.0030740  14.0030740   1.0078250  12.0000000  12.0000000  14.0030740
 NucSpn=           1           0           0           0           2           2           1           0           0           2
 AtZEff=  -0.0000000  -0.0000000  -0.0000000  -0.0000000  -0.0000000  -0.0000000  -0.0000000  -0.0000000  -0.0000000  -0.0000000
 NQMom=    0.0000000   0.0000000   0.0000000   0.0000000   2.0440000   2.0440000   0.0000000   0.0000000   0.0000000   2.0440000
 NMagM=    2.7928460   0.0000000   0.0000000   0.0000000   0.4037610   0.4037610   2.7928460   0.0000000   0.0000000   0.4037610
 AtZNuc=   1.0000000   6.0000000   6.0000000   6.0000000   7.0000000   7.0000000   1.0000000   6.0000000   6.0000000   7.0000000

  Atom        21          22          23          24          25          26          27          28          29          30
 IAtWgt=          14          12          12          14           1          14           1           1           1           1
 AtmWgt=  14.0030740  12.0000000  12.0000000  14.0030740   1.0078250  14.0030740   1.0078250   1.0078250   1.0078250   1.0078250
 NucSpn=           2           0           0           2           1           2           1           1           1           1
 AtZEff=  -0.0000000  -0.0000000  -0.0000000  -0.0000000  -0.0000000  -0.0000000  -0.0000000  -0.0000000  -0.0000000  -0.0000000
 NQMom=    2.0440000   0.0000000   0.0000000   2.0440000   0.0000000   2.0440000   0.0000000   0.0000000   0.0000000   0.0000000
 NMagM=    0.4037610   0.0000000   0.0000000   0.4037610   2.7928460   0.4037610   2.7928460   2.7928460   2.7928460   2.7928460
 AtZNuc=   7.0000000   6.0000000   6.0000000   7.0000000   1.0000000   7.0000000   1.0000000   1.0000000   1.0000000   1.0000000

  Atom        31          32          33          34          35          36          37          38          39          40
 IAtWgt=           1           1           1           1           1           1           1           1           1           1
 AtmWgt=   1.0078250   1.0078250   1.0078250   1.0078250   1.0078250   1.0078250   1.0078250   1.0078250   1.0078250   1.0078250
 NucSpn=           1           1           1           1           1           1           1           1           1           1
 AtZEff=  -0.0000000  -0.0000000  -0.0000000  -0.0000000  -0.0000000  -0.0000000  -0.0000000  -0.0000000  -0.0000000  -0.0000000
 NQMom=    0.0000000   0.0000000   0.0000000   0.0000000   0.0000000   0.0000000   0.0000000   0.0000000   0.0000000   0.0000000
 NMagM=    2.7928460   2.7928460   2.7928460   2.7928460   2.7928460   2.7928460   2.7928460   2.7928460   2.7928460   2.7928460
 AtZNuc=   1.0000000   1.0000000   1.0000000   1.0000000   1.0000000   1.0000000   1.0000000   1.0000000   1.0000000   1.0000000

  Atom        41          42          43          44          45
 IAtWgt=           1           1           1           1           1
 AtmWgt=   1.0078250   1.0078250   1.0078250   1.0078250   1.0078250
 NucSpn=           1           1           1           1           1
 AtZEff=  -0.0000000  -0.0000000  -0.0000000  -0.0000000  -0.0000000
 NQMom=    0.0000000   0.0000000   0.0000000   0.0000000   0.0000000
 NMagM=    2.7928460   2.7928460   2.7928460   2.7928460   2.7928460
 AtZNuc=   1.0000000   1.0000000   1.0000000   1.0000000   1.0000000
 Leave Link  101 at Tue Oct 19 01:56:13 2021, MaxMem=  7864320000 cpu:               1.4 elap:               0.1
 (Enter /apps/gaussian/g16-c01-avx/g16/l202.exe)
                          Input orientation:                          
 ---------------------------------------------------------------------
 Center     Atomic      Atomic             Coordinates (Angstroms)
 Number     Number       Type             X           Y           Z
 ---------------------------------------------------------------------
      1          6           0       -0.872000   -0.345000   -1.104300
      2          6           0       -0.976300   -1.670200   -0.464900
      3          6           0       -1.946900    0.529900   -1.192400
      4          6           0       -1.802900    1.780600   -1.796900
      5          1           0       -2.924000    0.257800   -0.828100
      6          6           0       -0.571800    2.148600   -2.322700
      7          6           0        0.513700    1.275300   -2.257500
      8          1           0       -0.428400    3.108400   -2.794600
      9          6           0        0.353000    0.032300   -1.654100
     10          6           0        1.802900    1.654000   -2.818800
     11          1           0        1.191700   -0.648400   -1.597500
     12          6           0       -2.938900    2.689600   -1.868100
     13          6           0       -3.727400   -1.410400    1.438100
     14          6           0       -2.208800   -1.116700    1.491800
     15          7           0       -4.099700   -2.747100    1.840400
     16          7           0       -1.518500   -2.015100    0.618100
     17          1           0       -1.853600   -1.340700    2.504400
     18          6           0       -5.142600    3.316000   -1.396100
     19          6           0       -6.383900    2.551100   -1.866500
     20          7           0       -4.037800    2.416200   -1.314300
     21          7           0       -6.813000    1.645000   -0.817000
     22          6           0        3.259500    3.118200   -3.905300
     23          6           0        3.786600    4.371800   -3.196500
     24          7           0        1.981300    2.771000   -3.375900
     25          1           0        4.002700    2.310300   -3.813300
     26          7           0        5.071500    4.746100   -3.760800
     27          1           0        4.963100    5.012300   -4.734300
     28          1           0        5.455700    5.541700   -3.263300
     29          1           0       -3.816400   -2.916200    2.800300
     30          1           0       -3.612700   -3.421900    1.259200
     31          1           0       -7.545800    1.029400   -1.152700
     32          1           0       -6.024600    1.072000   -0.534000
     33          1           0       -0.463600   -2.470500   -0.995900
     34          1           0       -2.770100    3.626600   -2.421800
     35          1           0        2.604500    0.903700   -2.729500
     36          1           0       -2.030500   -0.053900    1.278200
     37          1           0        3.121500    3.350800   -4.966900
     38          1           0       -4.944600    4.173500   -2.060800
     39          1           0       -5.342500    3.682600   -0.384600
     40          1           0       -6.141900    2.045300   -2.817800
     41          1           0       -7.193600    3.262500   -2.056100
     42          1           0       -4.083100   -1.265700    0.413900
     43          1           0       -4.242600   -0.696500    2.086300
     44          1           0        3.018400    5.158700   -3.267100
     45          1           0        3.938100    4.143200   -2.137600
 ---------------------------------------------------------------------
                    Distance matrix (angstroms):
                    1          2          3          4          5
     1  C    0.000000
     2  C    1.475082   0.000000
     3  C    1.388748   2.512322   0.000000
     4  C    2.421662   3.790186   1.396570   0.000000
     5  H    2.156469   2.764531   1.077719   2.124702   0.000000
     6  C    2.791534   4.265944   2.405965   1.388343   3.367759
     7  C    2.423924   3.756259   2.782914   2.415391   3.859569
     8  H    3.870383   5.344410   3.394341   2.155854   4.268614
     9  C    1.394726   2.465713   2.397981   2.779361   3.387013
    10  C    3.753745   4.931035   4.239077   3.749947   5.315623
    11  H    2.143398   2.650864   3.376878   3.861014   4.283942
    12  C    3.750235   4.982833   2.470817   1.456656   2.644896
    13  C    3.968902   3.355213   3.722160   4.934714   2.926432
    14  C    3.020313   2.377834   3.159875   4.401664   2.789749
    15  N    4.985919   4.028616   4.956930   6.245423   4.187193
    16  N    2.484725   1.259296   3.152533   4.507821   3.038585
    17  H    3.870100   3.113674   4.144174   5.314722   3.847923
    18  C    5.632592   6.564098   4.244567   3.697525   3.820654
    19  C    6.272909   7.001856   4.922055   4.645866   4.278832
    20  N    4.206021   5.176189   2.818661   2.373114   2.477021
    21  N    6.272011   6.721725   5.006326   5.106828   4.129015
    22  C    6.075249   7.259968   6.416052   5.644681   7.475742
    23  C    6.951838   8.164106   7.186768   6.317888   8.219882
    24  N    4.796972   6.078287   5.022047   4.218329   6.072020
    25  H    6.176730   7.200459   6.740674   6.168585   7.816863
    26  N    8.264471   9.413169   8.580848   7.740056   9.626712
    27  H    8.713550   9.907576   8.965772   8.053009  10.003500
    28  H    8.908103  10.060476   9.176342   8.305629  10.201430
    29  H    5.525076   4.503356   5.595738   6.873744   4.902646
    30  H    4.750251   3.604383   4.939834   6.299296   4.286178
    31  H    6.814024   7.135772   5.621277   5.827538   4.696996
    32  H    5.374236   5.745413   4.165933   4.463158   3.219183
    33  H    2.167093   1.088716   3.352789   4.528485   3.677682
    34  H    4.594801   5.924801   3.432001   2.175705   3.729930
    35  H    4.035663   4.957369   4.818469   4.589539   5.881906
    36  H    2.665177   2.600416   2.540015   3.587957   2.309112
    37  H    6.672830   7.891160   6.920477   6.063344   7.952634
    38  H    6.157744   7.241763   4.797514   3.958016   4.575487
    39  H    6.060107   6.908156   4.703420   4.259221   4.216051
    40  H    6.035020   6.784136   4.747251   4.465336   4.184369
    41  H    7.340477   8.094335   5.978373   5.596683   5.363366
    42  H    3.669303   3.253939   3.219896   4.400783   2.281913
    43  H    4.654506   4.257397   4.186188   5.212236   3.338131
    44  H    7.078392   8.393082   7.098195   6.067782   8.079583
    45  H    6.659483   7.793900   6.970119   6.217478   7.993719
                    6          7          8          9         10
     6  C    0.000000
     7  C    1.394709   0.000000
     8  H    1.079106   2.129855   0.000000
     9  C    2.404372   1.391030   3.372494   0.000000
    10  C    2.475872   1.456196   2.663562   2.467518   0.000000
    11  H    3.385123   2.143806   4.262783   1.081653   2.676973
    12  C    2.470325   3.751310   2.708580   4.235994   4.945803
    13  C    6.063655   6.233568   7.015604   5.319093   7.622071
    14  C    5.281322   5.214491   6.276505   4.216599   6.507825
    15  N    7.331123   7.365864   8.321571   6.305801   8.713123
    16  N    5.184684   4.819299   6.251807   3.585701   6.025469
    17  H    6.092546   5.926488   7.064353   4.903808   7.118615
    18  C    4.807663   6.074553   4.921644   6.407095   7.281915
    19  C    5.843854   7.025484   6.053093   7.195505   8.290679
    20  N    3.619618   4.786171   3.962095   5.007751   6.079329
    21  N    6.439978   7.476112   6.842190   7.392773   8.845395
    22  C    4.257183   3.694718   3.851540   4.799836   2.333677
    23  C    4.970090   4.602381   4.418589   5.744551   3.385877
    24  N    2.831065   2.375245   2.501680   3.621662   1.260903
    25  H    4.813947   3.957886   4.616206   4.813703   2.501775
    26  N    6.376674   5.922829   5.819322   6.994450   4.596976
    27  H    6.682194   6.316397   6.037843   7.452587   4.993414
    28  H    6.980588   6.605843   6.384611   7.679880   5.353012
    29  H    7.900934   7.867641   8.892539   6.776373   9.167199
    30  H    7.287493   7.173426   8.319728   6.012120   8.468977
    31  H    7.159482   8.138586   7.594436   7.977258   9.516523
    32  H    5.838796   6.764699   6.369827   6.558154   8.174888
    33  H    4.807098   4.071580   5.861799   2.713682   5.046928
    34  H    2.650816   4.042147   2.427153   4.823081   4.996107
    35  H    3.435716   2.175389   3.750123   2.642929   1.101584
    36  H    4.466015   4.554218   5.399497   3.779800   5.864920
    37  H    4.698675   4.295250   4.168865   5.445335   3.038449
    38  H    4.825991   6.183146   4.697761   6.736431   7.242320
    39  H    5.372985   6.602873   5.503289   6.882953   7.816475
    40  H    5.593014   6.723381   5.811609   6.898557   7.954430
    41  H    6.720125   7.961909   6.807133   8.218696   9.170932
    42  H    5.610317   5.892676   6.540952   5.063636   7.322567
    43  H    6.403799   6.736392   7.269702   5.970032   8.132215
    44  H    4.779344   4.730075   4.038244   5.998842   3.736487
    45  H    4.934763   4.468304   4.535282   5.475967   3.349512
                   11         12         13         14         15
    11  H    0.000000
    12  C    5.317643   0.000000
    13  C    5.830356   5.325663   0.000000
    14  C    4.618060   5.129317   1.547672   0.000000
    15  N    6.650008   6.682674   1.444721   2.520958   0.000000
    16  N    3.757916   5.507534   2.432550   1.430730   2.948294
    17  H    5.155455   6.044828   2.157077   1.096222   2.732000
    18  C    7.475318   2.339114   5.689845   6.049461   6.951529
    19  C    8.227933   3.447783   5.802659   6.493258   6.857813
    20  N    6.067919   1.260565   4.723867   4.868349   6.051085
    21  N    8.363258   4.147849   4.893043   5.844331   5.806403
    22  C    4.877398   6.538658   9.893276   8.772991  11.025998
    23  C    5.873050   7.058810  10.553367   9.383422  11.757671
    24  N    3.934269   5.146694   8.558502   7.507706   9.728195
    25  H    4.643856   7.218967  10.058591   8.858394  11.099122
    26  N    6.988086   8.483986  11.931123  10.722173  13.100855
    27  H    7.490427   8.720759  12.444854  11.303323  13.622383
    28  H    7.698956   8.974986  12.440425  11.211147  13.640294
    29  H    7.040215   7.347718   2.032472   2.744950   1.015018
    30  H    6.239815   6.898148   2.022695   2.709056   1.015046
    31  H    8.908241   4.948898   5.219679   6.331090   5.924205
    32  H    7.494384   3.730683   3.915178   4.842995   4.891681
    33  H    2.534164   5.789169   4.207203   3.326732   4.619776
    34  H    5.886506   1.101384   6.417680   6.174967   7.781917
    35  H    2.384626   5.887337   7.925712   6.713363   8.897113
    36  H    4.359547   4.272141   2.178332   1.098617   3.442526
    37  H    5.574099   6.838728  10.516676   9.491336  11.647723
    38  H    7.817899   2.502384   6.701031   6.934824   7.989238
    39  H    7.932494   2.994013   5.645302   6.031105   6.916373
    40  H    7.907392   3.402391   5.990355   6.636277   6.988312
    41  H    9.263839   4.297212   6.786750   7.524176   7.801937
    42  H    5.678935   4.707559   1.093822   2.167272   2.056629
    43  H    6.565387   5.366804   1.093274   2.160171   2.070229
    44  H    6.312433   6.598718  10.526053   9.452587  11.800660
    45  H    5.549221   7.034111  10.118695   8.866988  11.309595
                   16         17         18         19         20
    16  N    0.000000
    17  H    2.031067   0.000000
    18  C    6.753646   6.907697   0.000000
    19  C    7.120080   7.400979   1.532049   0.000000
    20  N    5.451372   5.785110   1.427205   2.413982   0.000000
    21  N    6.594511   6.673961   2.432660   1.451411   2.922977
    22  C    8.345130   9.333265   8.771003   9.872865   7.775389
    23  C    9.137163   9.846054   9.169884  10.417433   8.281804
    24  N    7.148943   8.135752   7.413945   8.503130   6.372256
    25  H    8.296387   9.356248   9.512665  10.570216   8.420562
    26  N   10.407530  11.147147  10.581344  11.816623   9.715613
    27  H   10.956444  11.799440  10.777114  11.959774   9.972579
    28  H   10.991358  11.578414  10.989274  12.291089  10.183020
    29  H    3.294590   2.534234   7.629475   7.632984   6.738950
    30  H    2.603031   2.996056   7.402061   7.288778   6.394296
    31  H    6.980907   7.168884   3.326132   2.043304   3.775631
    32  H    5.582334   5.696511   2.560601   2.022966   2.522522
    33  H    1.981212   3.932003   7.452301   7.811809   6.062683
    34  H    6.529646   7.055600   2.603323   3.811116   2.073328
    35  H    6.060111   7.232268   8.222816   9.178782   6.957772
    36  H    2.131709   1.786257   5.309734   5.968857   4.105083
    37  H    9.028550  10.128283   9.002620  10.030186   8.091387
    38  H    7.563956   7.797547   1.102876   2.177503   2.113682
    39  H    6.934852   6.764044   1.094298   2.135611   2.042144
    40  H    7.047559   7.627603   2.152791   1.104251   2.612531
    41  H    8.198242   8.396619   2.155241   1.094373   3.350457
    42  H    2.679640   3.057202   5.038910   5.006183   4.067569
    43  H    3.363783   2.509407   5.388624   5.545872   4.614642
    44  H    9.334969   9.964376   8.573104   9.857206   7.818228
    45  H    8.677155   9.228495   9.148398  10.447582   8.202154
                   21         22         23         24         25
    21  N    0.000000
    22  C   10.637818   0.000000
    23  C   11.200401   1.533540   0.000000
    24  N    9.227977   1.426397   2.419474   0.000000
    25  H   11.242767   1.101596   2.162620   2.118873   0.000000
    26  N   12.630286   2.440140   1.452413   3.687615   2.660491
    27  H   12.859257   2.679013   2.039417   3.969862   3.011879
    28  H   13.103040   3.332988   2.039368   4.445325   3.585478
    29  H    6.547443  11.465052  12.119495  10.203089  11.497579
    30  H    6.342397  10.801486  11.633773   9.546151  10.797346
    31  H    1.014226  11.344355  11.990498   9.936872  11.920040
    32  H    1.014885  10.086977  10.688182   8.663569  10.622332
    33  H    7.568634   7.318446   8.350084   6.254219   7.123316
    34  H    4.779871   6.230194   6.644230   4.921195   7.038447
    35  H    9.638282   2.591436   3.693666   2.071961   2.260113
    36  H    5.490759   8.056984   8.570205   6.762784   8.240893
    37  H   10.900721   1.095510   2.149213   2.041447   1.786042
    38  H    3.381016   8.474851   8.806985   7.187808   9.305748
    39  H    2.549736   9.311728   9.577173   7.963475  10.048480
    40  H    2.147980   9.524710  10.204466   8.174625  10.196772
    41  H    2.072808  10.616387  11.094857   9.282361  11.373283
    42  H    4.176080   9.580597  10.331920   8.211850   9.799855
    43  H    4.529760  10.331152  10.865712   8.977534  10.575022
    44  H   10.724062   2.151527   1.101965   2.605480   3.062771
    45  H   11.116256   2.153111   1.093837   2.691725   2.484284
                   26         27         28         29         30
    26  N    0.000000
    27  H    1.015044   0.000000
    28  H    1.013950   1.639134   0.000000
    29  H   13.444465  14.025367  13.938262   0.000000
    30  H   12.935685  13.438829  13.529043   1.634691   0.000000
    31  H   13.409411  13.607495  13.923164   6.715831   6.410976
    32  H   12.125786  12.405565  12.618422   5.647959   5.406289
    33  H    9.505857   9.970808  10.216387   5.084393   3.988417
    34  H    8.033486   8.189640   8.487610   8.436427   7.996317
    35  H    4.681208   5.144202   5.470405   9.295068   8.560030
    36  H    9.943336  10.522689  10.391302   3.701214   3.721175
    37  H    2.684034   2.491220   3.626401  12.154799  11.401019
    38  H   10.175467  10.296296  10.558609   8.669889   8.395621
    39  H   10.999143  11.264696  11.328914   7.484433   7.494545
    40  H   11.572550  11.653201  12.121370   7.847769   7.273861
    41  H   12.471558  12.570597  12.909565   8.553738   8.276186
    42  H   11.720775  12.155286  12.282150   2.913792   2.363262
    43  H   12.270409  12.800621  12.711821   2.370340   2.916963
    44  H    2.151557   2.440485   2.467212  12.195567  11.750982
    45  H    2.069508   2.923835   2.350768  11.590956  11.215327
                   31         32         33         34         35
    31  H    0.000000
    32  H    1.642758   0.000000
    33  H    7.901357   6.609643   0.000000
    34  H    5.582416   4.547696   6.672913   0.000000
    35  H   10.272813   8.905611   4.878917   6.032843   0.000000
    36  H    6.123834   4.528195   3.669695   5.270967   6.201764
    37  H   11.564096  10.416078   7.906283   6.423749   3.355823
    38  H    4.180461   3.621715   8.084313   2.271095   8.253948
    39  H    3.533267   2.702372   7.876420   3.281853   8.739316
    40  H    2.403237   2.485320   7.480298   3.745178   8.821029
    41  H    2.434525   2.912325   8.904168   4.453499  10.100503
    42  H    4.439821   3.183202   4.066923   5.805150   7.701380
    43  H    4.937710   3.628924   5.189207   6.417197   8.522637
    44  H   11.537943  10.293046   8.688347   6.047197   4.308753
    45  H   11.939252  10.547947   8.026174   6.734062   3.552914
                   36         37         38         39         40
    36  H    0.000000
    37  H    8.782731   0.000000
    38  H    6.124689   8.613026   0.000000
    39  H    5.262669   9.630517   1.791355   0.000000
    40  H    6.171504   9.598622   2.556523   3.039779   0.000000
    41  H    6.983815  10.718295   2.426509   2.529223   1.779841
    42  H    2.535476  10.107984   6.037484   5.168110   5.064115
    43  H    2.441177  10.970790   6.434916   5.147003   5.930852
    44  H    8.562847   2.483637   8.113886   8.966177   9.685361
    45  H    8.056521   3.049536   8.883084   9.455935  10.318443
                   41         42         43         44         45
    41  H    0.000000
    42  H    6.023347   0.000000
    43  H    6.445274   1.773796   0.000000
    44  H   10.456913  10.259336  10.754738   0.000000
    45  H   11.166782  10.005299  10.401340   1.775629   0.000000
 Stoichiometry    C15H24N6
 Framework group  C1[X(C15H24N6)]
 Deg. of freedom   129
 Full point group                 C1      NOp   1
 Largest Abelian subgroup         C1      NOp   1
 Largest concise Abelian subgroup C1      NOp   1
                         Standard orientation:                         
 ---------------------------------------------------------------------
 Center     Atomic      Atomic             Coordinates (Angstroms)
 Number     Number       Type             X           Y           Z
 ---------------------------------------------------------------------
      1          6           0       -0.362819   -1.562710   -0.526628
      2          6           0       -1.197398   -2.767940   -0.690230
      3          6           0       -0.903432   -0.302319   -0.308054
      4          6           0       -0.076975    0.811984   -0.147728
      5          1           0       -1.969269   -0.143988   -0.288084
      6          6           0        1.301014    0.657176   -0.216111
      7          6           0        1.859924   -0.598769   -0.451559
      8          1           0        1.966024    1.498330   -0.094902
      9          6           0        1.022733   -1.698111   -0.611316
     10          6           0        3.304506   -0.761935   -0.535623
     11          1           0        1.449932   -2.675435   -0.791076
     12          6           0       -0.662619    2.123707    0.093623
     13          6           0       -4.145143   -1.868807    0.636351
     14          6           0       -2.774669   -2.449516    1.060460
     15          7           0       -5.119240   -2.854130    0.227090
     16          7           0       -2.199208   -3.163501   -0.037747
     17          1           0       -2.947504   -3.189809    1.850267
     18          6           0       -2.462851    3.564592    0.486649
     19          6           0       -3.618815    3.798877   -0.491121
     20          7           0       -1.904068    2.272034    0.254334
     21          7           0       -4.725149    2.927197   -0.140704
     22          6           0        5.502339    0.020284   -0.474664
     23          6           0        6.150440    0.439590    0.850437
     24          7           0        4.091162    0.214037   -0.399505
     25          1           0        5.787323   -1.018634   -0.704765
     26          7           0        7.590879    0.276414    0.760925
     27          1           0        7.972727    0.906549    0.062758
     28          1           0        8.025831    0.498722    1.649458
     29          1           0       -5.311706   -3.495106    0.990220
     30          1           0       -4.742246   -3.402641   -0.539283
     31          1           0       -5.447545    2.961754   -0.851762
     32          1           0       -4.386119    1.972447   -0.081501
     33          1           0       -0.865500   -3.445059   -1.475504
     34          1           0        0.046442    2.965322    0.137919
     35          1           0        3.661562   -1.785865   -0.729439
     36          1           0       -2.140012   -1.645585    1.457783
     37          1           0        5.880207    0.673442   -1.268856
     38          1           0       -1.716853    4.372320    0.400634
     39          1           0       -2.879262    3.564743    1.498622
     40          1           0       -3.242695    3.647330   -1.518222
     41          1           0       -3.959075    4.835282   -0.403141
     42          1           0       -3.998341   -1.184657   -0.204384
     43          1           0       -4.556710   -1.301186    1.475198
     44          1           0        5.828246    1.467204    1.083950
     45          1           0        5.786496   -0.216458    1.646443
 ---------------------------------------------------------------------
 Rotational constants (GHZ):           0.3657374           0.1263789           0.0974064
 Leave Link  202 at Tue Oct 19 01:56:13 2021, MaxMem=  7864320000 cpu:               0.2 elap:               0.0
 (Enter /apps/gaussian/g16-c01-avx/g16/l301.exe)
 Standard basis: def2TZVP (5D, 7F)
 Ernie: Thresh=  0.10000D-02 Tol=  0.10000D-05 Strict=F.
 There are   900 symmetry adapted cartesian basis functions of A   symmetry.
 There are   795 symmetry adapted basis functions of A   symmetry.
   795 basis functions,  1263 primitive gaussians,   900 cartesian basis functions
    78 alpha electrons       78 beta electrons
       nuclear repulsion energy      1563.4281750939 Hartrees.
 IExCor= 1009 DFT=T Ex+Corr=PBE1PBE ExCW=0 ScaHFX=  0.250000
 ScaDFX=  0.750000  0.750000  1.000000  1.000000 ScalE2=  1.000000  1.000000
 IRadAn=      7 IRanWt=     -1 IRanGd=            0 ICorTp=0 IEmpDi=131
 NAtoms=   45 NActive=   45 NUniq=   45 SFac= 1.00D+00 NAtFMM=   60 NAOKFM=F Big=F
 Integral buffers will be    131072 words long.
 Raffenetti 2 integral format.
 Two-electron integral symmetry is turned on.
 R6Disp:  Grimme-D3 Dispersion energy=       -0.0241316341 Hartrees.
 Nuclear repulsion after empirical dispersion term =     1563.4040434598 Hartrees.
 ------------------------------------------------------------------------------
 Polarizable Continuum Model (PCM)
 =================================
 Model                : PCM.
 Atomic radii         : UFF (Universal Force Field).
 Polarization charges : Total charges.
 Charge compensation  : None.
 Solution method      : On-the-fly selection.
 Cavity type          : Scaled VdW (van der Waals Surface) (Alpha=1.100).
 Cavity algorithm     : GePol (No added spheres)
                        Default sphere list used, NSphG=   45.
                        Lebedev-Laikov grids with approx.  5.0 points / Ang**2.
                        Smoothing algorithm: York/Karplus (Gamma=1.0000).
                        Polarization charges: spherical gaussians, with
                                              point-specific exponents (IZeta= 3).
                        Self-potential: point-specific (ISelfS= 7).
                        Self-field    : sphere-specific E.n sum rule (ISelfD= 2).
 Solvent              : Dichloromethane, Eps=   8.930000 Eps(inf)=   2.028346
 ------------------------------------------------------------------------------
 GePol: Number of generator spheres                  =      45
 GePol: Total number of spheres                      =      45
 GePol: Number of exposed spheres                    =      45 (100.00%)
 GePol: Number of points                             =    3268
 GePol: Average weight of points                     =       0.13
 GePol: Minimum weight of points                     =   0.20D-11
 GePol: Maximum weight of points                     =    0.20577
 GePol: Number of points with low weight             =     212
 GePol: Fraction of low-weight points (<1% of avg)   =       6.49%
 GePol: Cavity surface area                          =    426.834 Ang**2
 GePol: Cavity volume                                =    445.800 Ang**3
 Leave Link  301 at Tue Oct 19 01:56:13 2021, MaxMem=  7864320000 cpu:               1.1 elap:               0.0
 (Enter /apps/gaussian/g16-c01-avx/g16/l302.exe)
 NPDir=0 NMtPBC=     1 NCelOv=     1 NCel=       1 NClECP=     1 NCelD=      1
         NCelK=      1 NCelE2=     1 NClLst=     1 CellRange=     0.0.
 One-electron integrals computed using PRISM.
 One-electron integral symmetry used in STVInt
   1 Symmetry operations used in ECPInt.
 ECPInt:  NShTT=   53628 NPrTT=  159864 LenC2=   42244 LenP2D=   88231.
 LDataN:  DoStor=T MaxTD1= 6 Len=  172
 NBasis=   795 RedAO= T EigKep=  5.23D-06  NBF=   795
 NBsUse=   795 1.00D-06 EigRej= -1.00D+00 NBFU=   795
 Precomputing XC quadrature grid using
 IXCGrd= 4 IRadAn=           7 IRanWt=          -1 IRanGd=           0 AccXCQ= 0.00D+00.
 Generated NRdTot=       0 NPtTot=           0 NUsed=           0 NTot=          32
 NSgBfM=   862   862   862   862   862 MxSgAt=    45 MxSgA2=    45.
 Leave Link  302 at Tue Oct 19 01:56:14 2021, MaxMem=  7864320000 cpu:              37.1 elap:               1.2
 (Enter /apps/gaussian/g16-c01-avx/g16/l303.exe)
 DipDrv:  MaxL=1.
 Leave Link  303 at Tue Oct 19 01:56:14 2021, MaxMem=  7864320000 cpu:               2.9 elap:               0.1
 (Enter /apps/gaussian/g16-c01-avx/g16/l401.exe)
 ExpMin= 9.52D-02 ExpMax= 1.97D+04 ExpMxC= 6.73D+02 IAcc=3 IRadAn=         7 AccDes= 0.00D+00
 Harris functional with IExCor= 1009 and IRadAn=       7 diagonalized for initial guess.
 HarFok:  IExCor= 1009 AccDes= 0.00D+00 IRadAn=         7 IDoV= 1 UseB2=F ITyADJ=14
 ICtDFT=  3500011 ScaDFX=  1.000000  1.000000  1.000000  1.000000
 FoFCou: FMM=F IPFlag=           0 FMFlag=      100000 FMFlg1=           0
         NFxFlg=           0 DoJE=T BraDBF=F KetDBF=T FulRan=T
         wScrn=  0.000000 ICntrl=       500 IOpCl=  0 I1Cent=   200000004 NGrid=           0
         NMat0=    1 NMatS0=      1 NMatT0=    0 NMatD0=    1 NMtDS0=    0 NMtDT0=    0
 Petite list used in FoFCou.
 Harris En= -914.028828939627    
 JPrj=0 DoOrth=F DoCkMO=F.
 Leave Link  401 at Tue Oct 19 01:56:20 2021, MaxMem=  7864320000 cpu:             186.2 elap:               5.9
 (Enter /apps/gaussian/g16-c01-avx/g16/l508.exe)
 Integral symmetry usage will be decided dynamically.
 Tight linear equation convergence will be used.
 RPBE1PBE wavefunction.
 Linear searches until partial convergence.
 Full line searches.
 Fock matrices will be formed incrementally for  20 cycles.
 Inv3:  Mode=1 IEnd=    32039472.
 Iteration    1 A*A^-1 deviation from unit magnitude is 3.77D-15 for   3262.
 Iteration    1 A*A^-1 deviation from orthogonality  is 2.94D-15 for   3262   3027.
 Iteration    1 A^-1*A deviation from unit magnitude is 3.55D-15 for   3236.
 Iteration    1 A^-1*A deviation from orthogonality  is 1.93D-14 for   2397   2373.
 FoFJK:  IHMeth= 1 ICntrl=       0 DoSepK=F KAlg= 0 I1Cent=           0 FoldK=F
 IRaf= 700000000 NMat=       1 IRICut=       1 DoRegI=T DoRafI=F ISym2E= 1 IDoP0=0 IntGTp=1.
 Iteration   1 EE= -913.309389114309                                    Grad=1.051D+00 Max rot=    2.0212 deg.
 Gradient too large for Newton-Raphson -- use scaled steepest descent instead.
 Alpha Gap=     0.184 HL deriv= 5.09D-03
     ILin= 1 X=0.000D+00 Y=-9.133093891143D+02 DE= 0.00D+00 F= -2.03D+00
 RMSU=  7.61D-04    CP:  9.97D-01
     ILin= 2 X=3.000D-01 Y=-9.137123832759D+02 DE=-4.03D-01 F= -6.48D-01 OKLS=F
 RMSU=  1.26D-04    CP:  9.97D-01  1.74D+00
     ILin= 3 X=5.000D-01 Y=-9.137482905578D+02 DE=-4.39D-01 F=  2.91D-01
     Accept linear search using points  2 and  3.
     An  expanding polynomial of degree  3 produced  0.3921
 RMSU=  6.68D-08    CP:  9.97D-01  1.33D+00  3.61D-01
 Iteration   2 EE= -913.752252448644     Delta-E=       -0.442863334335 Grad=3.297D-01 Max rot=    1.7499 deg.
 Gradient too large for Newton-Raphson -- use scaled steepest descent instead.
 Alpha Gap=     0.207 HL deriv= 3.40D-03
     ILin= 1 X=0.000D+00 Y=-9.137522524486D+02 DE= 0.00D+00 F= -9.70D-02
 RMSU=  1.27D-04    CP:  9.96D-01  1.56D+00  8.00D-01 -3.00D+00
     ILin= 2 X=3.000D-01 Y=-9.137742413777D+02 DE=-2.20D-02 F= -4.96D-02 OKLS=F
 RMSU=  1.65D-05    CP:  9.95D-01  1.87D+00  1.58D+00 -3.00D+00  2.36D+00
     ILin= 3 X=7.000D-01 Y=-9.137814267982D+02 DE=-2.92D-02 F=  1.36D-02
     Accept linear search using points  2 and  3.
     An  expanding polynomial of degree  3 produced  0.5130
 RMSU=  4.80D-08    CP:  9.96D-01  1.73D+00  1.19D+00 -3.00D+00  1.72D+00
                    CP:  3.90D-01
 Iteration   3 EE= -913.781213999445     Delta-E=       -0.028961550801 Grad=1.385D-01 Max rot=    0.7720 deg.
 Gradient too large for Newton-Raphson -- use scaled steepest descent instead.
 Alpha Gap=     0.193 HL deriv= 1.50D-03
     ILin= 1 X=0.000D+00 Y=-9.137812139994D+02 DE= 0.00D+00 F= -1.26D-02
 RMSU=  5.96D-05    CP:  9.96D-01  1.89D+00  1.63D+00 -3.00D+00  2.22D+00
                    CP:  7.77D-01 -3.00D+00
     ILin= 2 X=4.000D-01 Y=-9.137845361822D+02 DE=-3.32D-03 F= -3.97D-03 OKLS=F
 RMSU=  3.42D-06    CP:  9.97D-01  2.09D+00  2.26D+00 -3.00D+00  2.85D+00
                    CP:  1.53D+00 -3.00D+00  2.26D+00
     ILin= 3 X=9.000D-01 Y=-9.137838137603D+02 DE=-2.60D-03 F=  6.86D-03
     An  expanding polynomial of degree  3 produced  0.5833
 RMSU=  3.07D-08    CP:  9.96D-01  1.96D+00  1.85D+00 -3.00D+00  2.45D+00
                    CP:  1.02D+00 -3.00D+00  1.46D+00  2.38D-01
 Iteration   4 EE= -913.784900042866     Delta-E=       -0.003686043422 Grad=6.115D-02 Max rot=    0.3259 deg.
 Gradient too large for Newton-Raphson -- use scaled steepest descent instead.
 Alpha Gap=     0.202 HL deriv= 1.75D-03
     ILin= 1 X=0.000D+00 Y=-9.137849000429D+02 DE= 0.00D+00 F= -3.85D-03
 RMSU=  3.89D-05    CP:  9.96D-01  1.98D+00  1.92D+00 -3.00D+00  2.80D+00
                    CP:  1.40D+00 -3.00D+00  1.58D+00  6.49D-01  3.00D+00
     ILin= 2 X=5.000D-01 Y=-9.137855995344D+02 DE=-6.99D-04 F=  1.05D-03 OKLS=T
     Accept linear search using points  1 and  2.
     An  expanding polynomial of degree  2 produced  0.2911
 RMSU=  1.24D-07    CP:  9.96D-01  1.97D+00  1.89D+00 -3.00D+00  2.65D+00
                    CP:  1.23D+00 -3.00D+00  1.53D+00  4.72D-01  3.00D+00
                    CP:  5.82D-01
 Iteration   5 EE= -913.785605703023     Delta-E=       -0.000705660157 Grad=3.660D-02 Max rot=    0.2128 deg.
 Gradient too large for Newton-Raphson -- use scaled steepest descent instead.
 Alpha Gap=     0.199 HL deriv= 9.28D-05
     ILin= 1 X=0.000D+00 Y=-9.137856057030D+02 DE= 0.00D+00 F= -5.86D-04
 RMSU=  9.28D-06    CP:  9.96D-01  2.03D+00  2.09D+00 -3.00D+00  2.92D+00
                    CP:  1.57D+00 -3.00D+00  1.92D+00  8.43D-01  3.00D+00
                    CP:  1.05D+00  3.00D+00
     ILin= 2 X=6.000D-01 Y=-9.137858437692D+02 DE=-2.38D-04 F= -2.08D-04 OKLS=F
 RMSU=  2.42D-05    CP:  9.96D-01  2.09D+00  2.29D+00 -3.00D+00  3.00D+00
                    CP:  1.96D+00 -3.00D+00  2.32D+00  1.34D+00  3.00D+00
                    CP:  1.51D+00  3.00D+00  2.00D+00
     ILin= 3 X=1.200D+00 Y=-9.137858552253D+02 DE=-2.50D-04 F=  1.70D-04
     Accept linear search using points  2 and  3.
     An  expanding polynomial of degree  3 produced  0.9122
 RMSU=  3.50D-08    CP:  9.96D-01  2.06D+00  2.19D+00 -3.00D+00  3.00D+00
                    CP:  1.77D+00 -3.00D+00  2.13D+00  1.09D+00  3.00D+00
                    CP:  1.29D+00  3.00D+00  1.52D+00  3.24D-01
 Iteration   6 EE= -913.785878007425     Delta-E=       -0.000272304402 Grad=5.491D-03 Max rot=    0.0313 deg.
 SCF Done:  E(RPBE1PBE) =  -913.785878007     a.u. after    6 cycles
            Convg  =    0.5491D-02                    15 Fock formations.
              S**2 =  0.0000                  -V/T =  2.0047
 Leave Link  508 at Tue Oct 19 02:01:51 2021, MaxMem=  7864320000 cpu:           10399.9 elap:             330.7
 (Enter /apps/gaussian/g16-c01-avx/g16/l502.exe)
 Integral symmetry usage will be decided dynamically.
 Closed shell SCF:
 Using DIIS extrapolation, IDIIS=  1040.
 NGot=  7864320000 LenX=  7862662082 LenY=  7861851182
 Requested convergence on RMS density matrix=1.00D-08 within 128 cycles.
 Requested convergence on MAX density matrix=1.00D-06.
 Requested convergence on             energy=1.00D-06.
 No special actions if energy rises.
 Fock matrices will be formed incrementally for  20 cycles.

 Cycle   1  Pass 1  IDiag  1:
 FoFJK:  IHMeth= 1 ICntrl=       0 DoSepK=F KAlg= 0 I1Cent=           0 FoldK=F
 IRaf= 700000000 NMat=       1 IRICut=       1 DoRegI=T DoRafI=F ISym2E= 0 IDoP0=0 IntGTp=1.
 FoFCou: FMM=F IPFlag=           0 FMFlag=      100000 FMFlg1=           0
         NFxFlg=           0 DoJE=F BraDBF=F KetDBF=F FulRan=T
         wScrn=  0.000000 ICntrl=         0 IOpCl=  0 I1Cent=           0 NGrid=           0
         NMat0=    1 NMatS0=      1 NMatT0=    0 NMatD0=    1 NMtDS0=    0 NMtDT0=    0
 Symmetry not used in FoFCou.
 E= -913.785878007420    
 DIIS: error= 5.32D-05 at cycle   1 NSaved=   1.
 NSaved= 1 IEnMin= 1 EnMin= -913.785878007420     IErMin= 1 ErrMin= 5.32D-05
 ErrMax= 5.32D-05  0.00D+00 EMaxC= 1.00D-01 BMatC= 1.51D-05 BMatP= 1.51D-05
 IDIUse=1 WtCom= 1.00D+00 WtEn= 0.00D+00
 Coeff-Com:  0.100D+01
 Coeff:      0.100D+01
 Gap=     0.198 Goal=   None    Shift=    0.000
 RMSDP=3.61D-05 MaxDP=4.58D-03              OVMax= 1.82D-03

 Cycle   2  Pass 1  IDiag  1:
 RMSU=  3.47D-05    CP:  1.00D+00
 E= -913.785864662398     Delta-E=        0.000013345022 Rises=F Damp=F
 DIIS: error= 9.66D-05 at cycle   2 NSaved=   2.
 NSaved= 2 IEnMin= 1 EnMin= -913.785878007420     IErMin= 1 ErrMin= 5.32D-05
 ErrMax= 9.66D-05  0.00D+00 EMaxC= 1.00D-01 BMatC= 3.09D-05 BMatP= 1.51D-05
 IDIUse=1 WtCom= 1.00D+00 WtEn= 0.00D+00
 Coeff-Com:  0.601D+00 0.399D+00
 Coeff:      0.601D+00 0.399D+00
 Gap=     0.186 Goal=   None    Shift=    0.000
 RMSDP=1.17D-05 MaxDP=2.25D-03 DE= 1.33D-05 OVMax= 1.38D-03

 Cycle   3  Pass 1  IDiag  1:
 RMSU=  7.72D-06    CP:  1.00D+00  7.66D-01
 E= -913.785890409894     Delta-E=       -0.000025747496 Rises=F Damp=F
 DIIS: error= 1.96D-05 at cycle   3 NSaved=   3.
 NSaved= 3 IEnMin= 3 EnMin= -913.785890409894     IErMin= 3 ErrMin= 1.96D-05
 ErrMax= 1.96D-05  0.00D+00 EMaxC= 1.00D-01 BMatC= 1.07D-06 BMatP= 1.51D-05
 IDIUse=1 WtCom= 1.00D+00 WtEn= 0.00D+00
 Coeff-Com:  0.649D-01 0.162D+00 0.773D+00
 Coeff:      0.649D-01 0.162D+00 0.773D+00
 Gap=     0.186 Goal=   None    Shift=    0.000
 RMSDP=3.78D-06 MaxDP=6.75D-04 DE=-2.57D-05 OVMax= 2.90D-04

 Cycle   4  Pass 1  IDiag  1:
 RMSU=  1.47D-06    CP:  1.00D+00  8.54D-01  8.37D-01
 E= -913.785891102408     Delta-E=       -0.000000692514 Rises=F Damp=F
 DIIS: error= 9.59D-06 at cycle   4 NSaved=   4.
 NSaved= 4 IEnMin= 4 EnMin= -913.785891102408     IErMin= 4 ErrMin= 9.59D-06
 ErrMax= 9.59D-06  0.00D+00 EMaxC= 1.00D-01 BMatC= 3.13D-07 BMatP= 1.07D-06
 IDIUse=1 WtCom= 1.00D+00 WtEn= 0.00D+00
 Coeff-Com: -0.993D-02 0.653D-01 0.469D+00 0.475D+00
 Coeff:     -0.993D-02 0.653D-01 0.469D+00 0.475D+00
 Gap=     0.186 Goal=   None    Shift=    0.000
 RMSDP=1.08D-06 MaxDP=2.16D-04 DE=-6.93D-07 OVMax= 1.03D-04

 Cycle   5  Pass 1  IDiag  1:
 RMSU=  3.87D-07    CP:  1.00D+00  8.44D-01  9.22D-01  5.68D-01
 E= -913.785891372028     Delta-E=       -0.000000269620 Rises=F Damp=F
 DIIS: error= 6.14D-07 at cycle   5 NSaved=   5.
 NSaved= 5 IEnMin= 5 EnMin= -913.785891372028     IErMin= 5 ErrMin= 6.14D-07
 ErrMax= 6.14D-07  0.00D+00 EMaxC= 1.00D-01 BMatC= 1.37D-09 BMatP= 3.13D-07
 IDIUse=1 WtCom= 1.00D+00 WtEn= 0.00D+00
 Coeff-Com: -0.549D-02 0.873D-02 0.758D-01 0.108D+00 0.813D+00
 Coeff:     -0.549D-02 0.873D-02 0.758D-01 0.108D+00 0.813D+00
 Gap=     0.186 Goal=   None    Shift=    0.000
 RMSDP=1.34D-07 MaxDP=1.53D-05 DE=-2.70D-07 OVMax= 1.12D-05

 Cycle   6  Pass 1  IDiag  1:
 RMSU=  9.53D-08    CP:  1.00D+00  8.46D-01  9.26D-01  6.08D-01  1.03D+00
 E= -913.785891373065     Delta-E=       -0.000000001038 Rises=F Damp=F
 DIIS: error= 4.17D-07 at cycle   6 NSaved=   6.
 NSaved= 6 IEnMin= 6 EnMin= -913.785891373065     IErMin= 6 ErrMin= 4.17D-07
 ErrMax= 4.17D-07  0.00D+00 EMaxC= 1.00D-01 BMatC= 3.97D-10 BMatP= 1.37D-09
 IDIUse=1 WtCom= 1.00D+00 WtEn= 0.00D+00
 Coeff-Com: -0.227D-02 0.198D-02 0.206D-01 0.359D-01 0.415D+00 0.529D+00
 Coeff:     -0.227D-02 0.198D-02 0.206D-01 0.359D-01 0.415D+00 0.529D+00
 Gap=     0.186 Goal=   None    Shift=    0.000
 RMSDP=7.86D-08 MaxDP=1.80D-05 DE=-1.04D-09 OVMax= 6.01D-06

 Cycle   7  Pass 1  IDiag  1:
 RMSU=  4.75D-08    CP:  1.00D+00  8.45D-01  9.29D-01  5.92D-01  1.09D+00
                    CP:  6.61D-01
 E= -913.785891373396     Delta-E=       -0.000000000331 Rises=F Damp=F
 DIIS: error= 1.73D-07 at cycle   7 NSaved=   7.
 NSaved= 7 IEnMin= 7 EnMin= -913.785891373396     IErMin= 7 ErrMin= 1.73D-07
 ErrMax= 1.73D-07  0.00D+00 EMaxC= 1.00D-01 BMatC= 6.21D-11 BMatP= 3.97D-10
 IDIUse=1 WtCom= 1.00D+00 WtEn= 0.00D+00
 Coeff-Com: -0.258D-03-0.541D-03-0.247D-02 0.334D-04 0.889D-01 0.299D+00
 Coeff-Com:  0.616D+00
 Coeff:     -0.258D-03-0.541D-03-0.247D-02 0.334D-04 0.889D-01 0.299D+00
 Coeff:      0.616D+00
 Gap=     0.186 Goal=   None    Shift=    0.000
 RMSDP=2.87D-08 MaxDP=5.39D-06 DE=-3.31D-10 OVMax= 2.46D-06

 Cycle   8  Pass 1  IDiag  1:
 RMSU=  9.03D-09    CP:  1.00D+00  8.45D-01  9.29D-01  5.99D-01  1.09D+00
                    CP:  8.21D-01  6.99D-01
 E= -913.785891373423     Delta-E=       -0.000000000027 Rises=F Damp=F
 DIIS: error= 4.83D-08 at cycle   8 NSaved=   8.
 NSaved= 8 IEnMin= 8 EnMin= -913.785891373423     IErMin= 8 ErrMin= 4.83D-08
 ErrMax= 4.83D-08  0.00D+00 EMaxC= 1.00D-01 BMatC= 8.15D-12 BMatP= 6.21D-11
 IDIUse=1 WtCom= 1.00D+00 WtEn= 0.00D+00
 Coeff-Com:  0.712D-04-0.558D-03-0.369D-02-0.393D-02 0.547D-02 0.114D+00
 Coeff-Com:  0.351D+00 0.538D+00
 Coeff:      0.712D-04-0.558D-03-0.369D-02-0.393D-02 0.547D-02 0.114D+00
 Coeff:      0.351D+00 0.538D+00
 Gap=     0.186 Goal=   None    Shift=    0.000
 RMSDP=6.53D-09 MaxDP=1.29D-06 DE=-2.68D-11 OVMax= 5.74D-07

 Cycle   9  Pass 1  IDiag  1:
 RMSU=  2.79D-09    CP:  1.00D+00  8.45D-01  9.29D-01  5.99D-01  1.10D+00
                    CP:  8.10D-01  7.70D-01  7.88D-01
 E= -913.785891373447     Delta-E=       -0.000000000024 Rises=F Damp=F
 DIIS: error= 1.26D-08 at cycle   9 NSaved=   9.
 NSaved= 9 IEnMin= 9 EnMin= -913.785891373447     IErMin= 9 ErrMin= 1.26D-08
 ErrMax= 1.26D-08  0.00D+00 EMaxC= 1.00D-01 BMatC= 4.05D-13 BMatP= 8.15D-12
 IDIUse=1 WtCom= 1.00D+00 WtEn= 0.00D+00
 Coeff-Com:  0.460D-04-0.189D-03-0.128D-02-0.161D-02-0.543D-02 0.251D-01
 Coeff-Com:  0.104D+00 0.241D+00 0.638D+00
 Coeff:      0.460D-04-0.189D-03-0.128D-02-0.161D-02-0.543D-02 0.251D-01
 Coeff:      0.104D+00 0.241D+00 0.638D+00
 Gap=     0.186 Goal=   None    Shift=    0.000
 RMSDP=2.55D-09 MaxDP=3.84D-07 DE=-2.41D-11 OVMax= 2.24D-07

 Error on total polarization charges =  0.01846
 SCF Done:  E(RPBE1PBE) =  -913.785891373     A.U. after    9 cycles
            NFock=  9  Conv=0.25D-08     -V/T= 2.0047
 KE= 9.095423163992D+02 PE=-5.252776333522D+03 EE= 1.866044082290D+03
 Leave Link  502 at Tue Oct 19 02:05:00 2021, MaxMem=  7864320000 cpu:            6006.3 elap:             189.5
 (Enter /apps/gaussian/g16-c01-avx/g16/l508.exe)
 QCSCF skips out because SCF is already converged.
 Leave Link  508 at Tue Oct 19 02:05:00 2021, MaxMem=  7864320000 cpu:               0.1 elap:               0.0
 (Enter /apps/gaussian/g16-c01-avx/g16/l601.exe)
 Copying SCF densities to generalized density rwf, IOpCl= 0 IROHF=0.

 **********************************************************************

            Population analysis using the SCF Density.

 **********************************************************************

 Orbital symmetries:
       Occupied  (A) (A) (A) (A) (A) (A) (A) (A) (A) (A) (A) (A)
                 (A) (A) (A) (A) (A) (A) (A) (A) (A) (A) (A) (A)
                 (A) (A) (A) (A) (A) (A) (A) (A) (A) (A) (A) (A)
                 (A) (A) (A) (A) (A) (A) (A) (A) (A) (A) (A) (A)
                 (A) (A) (A) (A) (A) (A) (A) (A) (A) (A) (A) (A)
                 (A) (A) (A) (A) (A) (A) (A) (A) (A) (A) (A) (A)
                 (A) (A) (A) (A) (A) (A)
       Virtual   (A) (A) (A) (A) (A) (A) (A) (A) (A) (A) (A) (A)
                 (A) (A) (A) (A) (A) (A) (A) (A) (A) (A) (A) (A)
                 (A) (A) (A) (A) (A) (A) (A) (A) (A) (A) (A) (A)
                 (A) (A) (A) (A) (A) (A) (A) (A) (A) (A) (A) (A)
                 (A) (A) (A) (A) (A) (A) (A) (A) (A) (A) (A) (A)
                 (A) (A) (A) (A) (A) (A) (A) (A) (A) (A) (A) (A)
                 (A) (A) (A) (A) (A) (A) (A) (A) (A) (A) (A) (A)
                 (A) (A) (A) (A) (A) (A) (A) (A) (A) (A) (A) (A)
                 (A) (A) (A) (A) (A) (A) (A) (A) (A) (A) (A) (A)
                 (A) (A) (A) (A) (A) (A) (A) (A) (A) (A) (A) (A)
                 (A) (A) (A) (A) (A) (A) (A) (A) (A) (A) (A) (A)
                 (A) (A) (A) (A) (A) (A) (A) (A) (A) (A) (A) (A)
                 (A) (A) (A) (A) (A) (A) (A) (A) (A) (A) (A) (A)
                 (A) (A) (A) (A) (A) (A) (A) (A) (A) (A) (A) (A)
                 (A) (A) (A) (A) (A) (A) (A) (A) (A) (A) (A) (A)
                 (A) (A) (A) (A) (A) (A) (A) (A) (A) (A) (A) (A)
                 (A) (A) (A) (A) (A) (A) (A) (A) (A) (A) (A) (A)
                 (A) (A) (A) (A) (A) (A) (A) (A) (A) (A) (A) (A)
                 (A) (A) (A) (A) (A) (A) (A) (A) (A) (A) (A) (A)
                 (A) (A) (A) (A) (A) (A) (A) (A) (A) (A) (A) (A)
                 (A) (A) (A) (A) (A) (A) (A) (A) (A) (A) (A) (A)
                 (A) (A) (A) (A) (A) (A) (A) (A) (A) (A) (A) (A)
                 (A) (A) (A) (A) (A) (A) (A) (A) (A) (A) (A) (A)
                 (A) (A) (A) (A) (A) (A) (A) (A) (A) (A) (A) (A)
                 (A) (A) (A) (A) (A) (A) (A) (A) (A) (A) (A) (A)
                 (A) (A) (A) (A) (A) (A) (A) (A) (A) (A) (A) (A)
                 (A) (A) (A) (A) (A) (A) (A) (A) (A) (A) (A) (A)
                 (A) (A) (A) (A) (A) (A) (A) (A) (A) (A) (A) (A)
                 (A) (A) (A) (A) (A) (A) (A) (A) (A) (A) (A) (A)
                 (A) (A) (A) (A) (A) (A) (A) (A) (A) (A) (A) (A)
                 (A) (A) (A) (A) (A) (A) (A) (A) (A) (A) (A) (A)
                 (A) (A) (A) (A) (A) (A) (A) (A) (A) (A) (A) (A)
                 (A) (A) (A) (A) (A) (A) (A) (A) (A) (A) (A) (A)
                 (A) (A) (A) (A) (A) (A) (A) (A) (A) (A) (A) (A)
                 (A) (A) (A) (A) (A) (A) (A) (A) (A) (A) (A) (A)
                 (A) (A) (A) (A) (A) (A) (A) (A) (A) (A) (A) (A)
                 (A) (A) (A) (A) (A) (A) (A) (A) (A) (A) (A) (A)
                 (A) (A) (A) (A) (A) (A) (A) (A) (A) (A) (A) (A)
                 (A) (A) (A) (A) (A) (A) (A) (A) (A) (A) (A) (A)
                 (A) (A) (A) (A) (A) (A) (A) (A) (A) (A) (A) (A)
                 (A) (A) (A) (A) (A) (A) (A) (A) (A) (A) (A) (A)
                 (A) (A) (A) (A) (A) (A) (A) (A) (A) (A) (A) (A)
                 (A) (A) (A) (A) (A) (A) (A) (A) (A) (A) (A) (A)
                 (A) (A) (A) (A) (A) (A) (A) (A) (A) (A) (A) (A)
                 (A) (A) (A) (A) (A) (A) (A) (A) (A) (A) (A) (A)
                 (A) (A) (A) (A) (A) (A) (A) (A) (A) (A) (A) (A)
                 (A) (A) (A) (A) (A) (A) (A) (A) (A) (A) (A) (A)
                 (A) (A) (A) (A) (A) (A) (A) (A) (A) (A) (A) (A)
                 (A) (A) (A) (A) (A) (A) (A) (A) (A) (A) (A) (A)
                 (A) (A) (A) (A) (A) (A) (A) (A) (A) (A) (A) (A)
                 (A) (A) (A) (A) (A) (A) (A) (A) (A) (A) (A) (A)
                 (A) (A) (A) (A) (A) (A) (A) (A) (A) (A) (A) (A)
                 (A) (A) (A) (A) (A) (A) (A) (A) (A) (A) (A) (A)
                 (A) (A) (A) (A) (A) (A) (A) (A) (A) (A) (A) (A)
                 (A) (A) (A) (A) (A) (A) (A) (A) (A) (A) (A) (A)
                 (A) (A) (A) (A) (A) (A) (A) (A) (A) (A) (A) (A)
                 (A) (A) (A) (A) (A) (A) (A) (A) (A) (A) (A) (A)
                 (A) (A) (A) (A) (A) (A) (A) (A) (A) (A) (A) (A)
                 (A) (A) (A) (A) (A) (A) (A) (A) (A) (A) (A) (A)
                 (A) (A) (A) (A) (A) (A) (A) (A) (A)
 The electronic state is 1-A.
 Alpha  occ. eigenvalues --  -14.38369 -14.38298 -14.38141 -14.36285 -14.35838
 Alpha  occ. eigenvalues --  -14.35735 -10.27041 -10.27023 -10.26924 -10.25095
 Alpha  occ. eigenvalues --  -10.24829 -10.24777 -10.24661 -10.24545 -10.24517
 Alpha  occ. eigenvalues --  -10.24501 -10.24360 -10.24261 -10.24229 -10.24190
 Alpha  occ. eigenvalues --  -10.24154  -0.96935  -0.96631  -0.96312  -0.91313
 Alpha  occ. eigenvalues --   -0.90887  -0.90643  -0.89793  -0.81687  -0.81129
 Alpha  occ. eigenvalues --   -0.75966  -0.75181  -0.74839  -0.68216  -0.67447
 Alpha  occ. eigenvalues --   -0.66199  -0.63745  -0.62309  -0.60617  -0.57276
 Alpha  occ. eigenvalues --   -0.55917  -0.53947  -0.52930  -0.51686  -0.51259
 Alpha  occ. eigenvalues --   -0.50852  -0.50236  -0.49771  -0.48698  -0.48217
 Alpha  occ. eigenvalues --   -0.47547  -0.46229  -0.45796  -0.45281  -0.45018
 Alpha  occ. eigenvalues --   -0.43323  -0.42525  -0.41951  -0.40769  -0.40518
 Alpha  occ. eigenvalues --   -0.40040  -0.39355  -0.39062  -0.38386  -0.37086
 Alpha  occ. eigenvalues --   -0.36540  -0.36175  -0.35022  -0.34254  -0.31368
 Alpha  occ. eigenvalues --   -0.27936  -0.27547  -0.27040  -0.26582  -0.26163
 Alpha  occ. eigenvalues --   -0.25528  -0.25290  -0.25170
 Alpha virt. eigenvalues --   -0.06533  -0.05659  -0.01999   0.03714   0.04449
 Alpha virt. eigenvalues --    0.04756   0.05662   0.05821   0.06591   0.06985
 Alpha virt. eigenvalues --    0.07584   0.07966   0.08176   0.08979   0.09307
 Alpha virt. eigenvalues --    0.09554   0.10524   0.10759   0.11181   0.11839
 Alpha virt. eigenvalues --    0.12136   0.12651   0.12992   0.13547   0.13970
 Alpha virt. eigenvalues --    0.14242   0.14581   0.14813   0.15459   0.15518
 Alpha virt. eigenvalues --    0.16287   0.16984   0.17267   0.17525   0.18246
 Alpha virt. eigenvalues --    0.18863   0.19167   0.20237   0.20376   0.21069
 Alpha virt. eigenvalues --    0.21122   0.21670   0.22133   0.23276   0.23855
 Alpha virt. eigenvalues --    0.23951   0.24758   0.25023   0.25884   0.26153
 Alpha virt. eigenvalues --    0.26545   0.27136   0.27464   0.28225   0.28457
 Alpha virt. eigenvalues --    0.29074   0.29620   0.30032   0.30317   0.30664
 Alpha virt. eigenvalues --    0.30976   0.31474   0.31735   0.32187   0.33148
 Alpha virt. eigenvalues --    0.33468   0.33941   0.34609   0.34763   0.35055
 Alpha virt. eigenvalues --    0.35425   0.36166   0.36653   0.37409   0.37985
 Alpha virt. eigenvalues --    0.38551   0.38767   0.38870   0.39396   0.39926
 Alpha virt. eigenvalues --    0.40604   0.40868   0.40978   0.41184   0.41670
 Alpha virt. eigenvalues --    0.41786   0.42072   0.42278   0.42552   0.43069
 Alpha virt. eigenvalues --    0.43173   0.43755   0.43924   0.44469   0.44747
 Alpha virt. eigenvalues --    0.45307   0.45722   0.46132   0.46640   0.47258
 Alpha virt. eigenvalues --    0.47348   0.47881   0.48275   0.48897   0.49149
 Alpha virt. eigenvalues --    0.49694   0.50191   0.50401   0.50990   0.51362
 Alpha virt. eigenvalues --    0.51806   0.52550   0.52737   0.53175   0.53696
 Alpha virt. eigenvalues --    0.54004   0.54465   0.54574   0.54768   0.55166
 Alpha virt. eigenvalues --    0.55718   0.56535   0.57160   0.57471   0.57845
 Alpha virt. eigenvalues --    0.59218   0.59556   0.59839   0.60969   0.61181
 Alpha virt. eigenvalues --    0.61889   0.62089   0.62587   0.63155   0.63509
 Alpha virt. eigenvalues --    0.64361   0.64591   0.64953   0.65834   0.66645
 Alpha virt. eigenvalues --    0.67227   0.67853   0.68591   0.68727   0.69178
 Alpha virt. eigenvalues --    0.69914   0.71041   0.71418   0.71692   0.72329
 Alpha virt. eigenvalues --    0.73231   0.73458   0.74650   0.74844   0.75384
 Alpha virt. eigenvalues --    0.76564   0.76786   0.77597   0.77883   0.78502
 Alpha virt. eigenvalues --    0.79079   0.79738   0.81629   0.82185   0.82985
 Alpha virt. eigenvalues --    0.83873   0.84348   0.84884   0.85711   0.86356
 Alpha virt. eigenvalues --    0.86880   0.87717   0.88428   0.89365   0.89968
 Alpha virt. eigenvalues --    0.90882   0.90986   0.92831   0.93918   0.94797
 Alpha virt. eigenvalues --    0.95079   0.96069   0.96672   0.97231   0.97876
 Alpha virt. eigenvalues --    0.99276   0.99609   1.00760   1.01964   1.02749
 Alpha virt. eigenvalues --    1.03467   1.05167   1.06095   1.06718   1.07212
 Alpha virt. eigenvalues --    1.08449   1.08872   1.09647   1.10499   1.12087
 Alpha virt. eigenvalues --    1.12478   1.13598   1.15090   1.15257   1.16622
 Alpha virt. eigenvalues --    1.16955   1.18278   1.19216   1.19555   1.20593
 Alpha virt. eigenvalues --    1.21236   1.21703   1.22580   1.23416   1.23906
 Alpha virt. eigenvalues --    1.24670   1.25297   1.25736   1.26438   1.26808
 Alpha virt. eigenvalues --    1.28539   1.28724   1.29404   1.30307   1.30664
 Alpha virt. eigenvalues --    1.31845   1.34173   1.34442   1.34694   1.35707
 Alpha virt. eigenvalues --    1.35929   1.36301   1.37363   1.38759   1.39128
 Alpha virt. eigenvalues --    1.39539   1.40429   1.41231   1.42227   1.43547
 Alpha virt. eigenvalues --    1.43605   1.44101   1.44175   1.44920   1.45295
 Alpha virt. eigenvalues --    1.46399   1.47292   1.47453   1.48441   1.49583
 Alpha virt. eigenvalues --    1.50410   1.50755   1.51124   1.52498   1.52755
 Alpha virt. eigenvalues --    1.53996   1.54931   1.55255   1.55907   1.56378
 Alpha virt. eigenvalues --    1.57055   1.57748   1.58567   1.59190   1.59227
 Alpha virt. eigenvalues --    1.59830   1.59991   1.61571   1.61890   1.61999
 Alpha virt. eigenvalues --    1.64493   1.65040   1.65828   1.66132   1.67606
 Alpha virt. eigenvalues --    1.68125   1.68985   1.69210   1.70144   1.70647
 Alpha virt. eigenvalues --    1.71160   1.71400   1.72098   1.73417   1.74587
 Alpha virt. eigenvalues --    1.75038   1.75617   1.76349   1.76975   1.77648
 Alpha virt. eigenvalues --    1.78193   1.79119   1.80331   1.80609   1.81332
 Alpha virt. eigenvalues --    1.81965   1.83222   1.84276   1.85295   1.85528
 Alpha virt. eigenvalues --    1.85717   1.87331   1.87632   1.88236   1.89504
 Alpha virt. eigenvalues --    1.90011   1.90756   1.91953   1.92507   1.93717
 Alpha virt. eigenvalues --    1.94294   1.94906   1.95594   1.96909   1.97795
 Alpha virt. eigenvalues --    1.97897   1.98563   1.98990   1.99824   2.00784
 Alpha virt. eigenvalues --    2.01174   2.02155   2.02882   2.03087   2.03589
 Alpha virt. eigenvalues --    2.04082   2.04430   2.05098   2.06243   2.06817
 Alpha virt. eigenvalues --    2.07072   2.08756   2.08919   2.09750   2.11263
 Alpha virt. eigenvalues --    2.11889   2.13311   2.14442   2.14715   2.15828
 Alpha virt. eigenvalues --    2.16218   2.17935   2.18692   2.19375   2.21350
 Alpha virt. eigenvalues --    2.23065   2.24363   2.25065   2.25962   2.26284
 Alpha virt. eigenvalues --    2.26635   2.29017   2.31013   2.31190   2.31852
 Alpha virt. eigenvalues --    2.33064   2.33989   2.35433   2.37043   2.37818
 Alpha virt. eigenvalues --    2.38239   2.38596   2.38879   2.39939   2.40636
 Alpha virt. eigenvalues --    2.42079   2.42798   2.43238   2.44603   2.44964
 Alpha virt. eigenvalues --    2.45880   2.46847   2.47313   2.48464   2.49722
 Alpha virt. eigenvalues --    2.50786   2.51074   2.51505   2.52854   2.53086
 Alpha virt. eigenvalues --    2.53721   2.54107   2.55488   2.56008   2.56877
 Alpha virt. eigenvalues --    2.57206   2.58389   2.58850   2.59654   2.60003
 Alpha virt. eigenvalues --    2.61080   2.62230   2.62603   2.63377   2.63581
 Alpha virt. eigenvalues --    2.63811   2.65075   2.65910   2.66396   2.67158
 Alpha virt. eigenvalues --    2.67537   2.67802   2.68576   2.69449   2.69817
 Alpha virt. eigenvalues --    2.70389   2.71035   2.71107   2.71478   2.73139
 Alpha virt. eigenvalues --    2.73999   2.74362   2.74774   2.75568   2.76499
 Alpha virt. eigenvalues --    2.76907   2.77639   2.78438   2.78939   2.79736
 Alpha virt. eigenvalues --    2.80788   2.81527   2.81613   2.82200   2.83129
 Alpha virt. eigenvalues --    2.83639   2.84364   2.84854   2.85895   2.86766
 Alpha virt. eigenvalues --    2.87312   2.87806   2.89424   2.89804   2.90345
 Alpha virt. eigenvalues --    2.91747   2.93381   2.93774   2.95209   2.95994
 Alpha virt. eigenvalues --    2.96464   2.97656   2.98247   2.98373   2.99259
 Alpha virt. eigenvalues --    2.99414   3.01451   3.01866   3.03594   3.04454
 Alpha virt. eigenvalues --    3.05749   3.05935   3.06413   3.06449   3.08378
 Alpha virt. eigenvalues --    3.09070   3.09576   3.10575   3.10968   3.11807
 Alpha virt. eigenvalues --    3.12315   3.13685   3.14294   3.14741   3.15258
 Alpha virt. eigenvalues --    3.15809   3.16121   3.16669   3.17479   3.18069
 Alpha virt. eigenvalues --    3.18328   3.19245   3.19970   3.20324   3.21264
 Alpha virt. eigenvalues --    3.22229   3.22383   3.23748   3.24304   3.25225
 Alpha virt. eigenvalues --    3.25612   3.26058   3.26369   3.27019   3.27597
 Alpha virt. eigenvalues --    3.28300   3.29335   3.30595   3.30642   3.31324
 Alpha virt. eigenvalues --    3.31667   3.31775   3.32740   3.33133   3.34049
 Alpha virt. eigenvalues --    3.34321   3.34743   3.35518   3.35690   3.36863
 Alpha virt. eigenvalues --    3.37504   3.37935   3.39052   3.39908   3.40297
 Alpha virt. eigenvalues --    3.41072   3.41177   3.41952   3.42765   3.43331
 Alpha virt. eigenvalues --    3.43986   3.44878   3.45462   3.46625   3.47295
 Alpha virt. eigenvalues --    3.47820   3.48956   3.50336   3.51582   3.52264
 Alpha virt. eigenvalues --    3.54398   3.55117   3.56278   3.57621   3.58471
 Alpha virt. eigenvalues --    3.60403   3.60960   3.61834   3.62420   3.63100
 Alpha virt. eigenvalues --    3.65158   3.67181   3.67950   3.70200   3.72129
 Alpha virt. eigenvalues --    3.72971   3.75012   3.75182   3.75821   3.76543
 Alpha virt. eigenvalues --    3.77219   3.77792   3.78235   3.79164   3.79697
 Alpha virt. eigenvalues --    3.80529   3.81600   3.82678   3.83251   3.84358
 Alpha virt. eigenvalues --    3.85337   3.85875   3.86294   3.87785   3.88884
 Alpha virt. eigenvalues --    3.89252   3.90249   3.91046   3.91669   3.92834
 Alpha virt. eigenvalues --    3.95056   3.96061   3.97839   3.98829   4.00096
 Alpha virt. eigenvalues --    4.00735   4.01989   4.02954   4.04369   4.05692
 Alpha virt. eigenvalues --    4.07059   4.07885   4.09208   4.10425   4.12498
 Alpha virt. eigenvalues --    4.13148   4.14254   4.14759   4.15748   4.17084
 Alpha virt. eigenvalues --    4.18284   4.20569   4.21194   4.21974   4.23620
 Alpha virt. eigenvalues --    4.24151   4.24836   4.25759   4.26948   4.29459
 Alpha virt. eigenvalues --    4.30643   4.32682   4.33323   4.33733   4.35278
 Alpha virt. eigenvalues --    4.35844   4.36887   4.37645   4.38842   4.40141
 Alpha virt. eigenvalues --    4.42265   4.43546   4.45950   4.47234   4.48417
 Alpha virt. eigenvalues --    4.50497   4.52547   4.54668   4.55490   4.56507
 Alpha virt. eigenvalues --    4.58051   4.59860   4.61102   4.62201   4.64472
 Alpha virt. eigenvalues --    4.65166   4.67241   4.68817   4.70465   4.71691
 Alpha virt. eigenvalues --    4.73362   4.76307   4.77060   4.77315   4.80996
 Alpha virt. eigenvalues --    4.81879   4.82649   4.83045   4.83602   4.84838
 Alpha virt. eigenvalues --    4.86144   4.86281   4.87123   4.88770   4.89357
 Alpha virt. eigenvalues --    4.90716   4.92359   4.93745   4.94969   4.96326
 Alpha virt. eigenvalues --    4.97761   5.02573   5.03665   5.04157   5.04688
 Alpha virt. eigenvalues --    5.06877   5.08460   5.09787   5.10414   5.11462
 Alpha virt. eigenvalues --    5.11988   5.13609   5.13855   5.14393   5.15640
 Alpha virt. eigenvalues --    5.18175   5.21968   5.22247   5.23180   5.24526
 Alpha virt. eigenvalues --    5.26731   5.28217   5.29238   5.29705   5.31363
 Alpha virt. eigenvalues --    5.32967   5.33504   5.35092   5.35593   5.36575
 Alpha virt. eigenvalues --    5.37399   5.41630   5.43803   5.44425   5.48013
 Alpha virt. eigenvalues --    5.52414   5.52881   5.54312   5.55589   5.56587
 Alpha virt. eigenvalues --    5.59219   5.62023   5.64874   5.68474   5.70277
 Alpha virt. eigenvalues --    5.73557   5.77542   5.79351   5.82635   5.82871
 Alpha virt. eigenvalues --    5.84107   5.90807   5.93580   5.98805   6.03074
 Alpha virt. eigenvalues --    6.10314  22.36493  22.49881  22.50902  22.54597
 Alpha virt. eigenvalues --   22.64132  22.65193  22.65786  22.85269  22.88223
 Alpha virt. eigenvalues --   22.97830  23.09531  23.11686  23.13729  23.16603
 Alpha virt. eigenvalues --   23.49517  32.00082  32.03844  32.06716  32.61956
 Alpha virt. eigenvalues --   32.67648  32.73095
          Condensed to atoms (all electrons):
               1          2          3          4          5          6
     1  C    5.292977   0.265854   0.160096   0.161245  -0.098089  -0.202853
     2  C    0.265854   4.994686  -0.109646   0.028885  -0.008896   0.000594
     3  C    0.160096  -0.109646   5.841961  -0.070568   0.462053   0.161910
     4  C    0.161245   0.028885  -0.070568   5.520285  -0.072341   0.093745
     5  H   -0.098089  -0.008896   0.462053  -0.072341   0.526647   0.019755
     6  C   -0.202853   0.000594   0.161910   0.093745   0.019755   5.963507
     7  C    0.161662   0.009493  -0.253126   0.263782  -0.006191  -0.231010
     8  H   -0.008247   0.000024   0.030109  -0.098014   0.000245   0.495681
     9  C    0.287943  -0.062246   0.099998  -0.172839   0.016133   0.071724
    10  C   -0.002592  -0.002635   0.014317  -0.007381   0.000293  -0.039658
    11  H   -0.078153  -0.004404   0.017487  -0.007127  -0.000007   0.025345
    12  C    0.023815  -0.001959  -0.084783   0.278437  -0.023858  -0.100268
    13  C   -0.003584  -0.001090  -0.010082   0.002235  -0.000885   0.000021
    14  C   -0.016860  -0.092879   0.019374  -0.003663  -0.002148  -0.000186
    15  N   -0.000259   0.003384  -0.000170  -0.000108  -0.000303  -0.000002
    16  N   -0.122027   0.702320   0.001677   0.005211   0.001863   0.000267
    17  H   -0.003490   0.000373   0.002228   0.000179   0.001184   0.000035
    18  C   -0.000014   0.000033  -0.008901   0.036980  -0.003959  -0.000256
    19  C   -0.000025   0.000003  -0.000304  -0.001046  -0.000027  -0.000016
    20  N   -0.000384  -0.000239   0.024779  -0.157005   0.024778   0.000579
    21  N   -0.000001  -0.000010  -0.000137   0.000108   0.001003  -0.000002
    22  C    0.000059  -0.000002  -0.000077  -0.000107   0.000000  -0.007885
    23  C    0.000020   0.000000  -0.000015   0.000005  -0.000000  -0.000980
    24  N   -0.001412   0.000002   0.002135  -0.008502   0.000007   0.048100
    25  H   -0.000087  -0.000001   0.000054  -0.000159   0.000000   0.003151
    26  N   -0.000000  -0.000000   0.000000  -0.000001   0.000000   0.000036
    27  H    0.000000  -0.000000  -0.000000   0.000000  -0.000000   0.000002
    28  H   -0.000000  -0.000000  -0.000000  -0.000000   0.000000   0.000000
    29  H   -0.000023   0.000313  -0.000044   0.000004   0.000083   0.000000
    30  H    0.000383   0.002973  -0.000048  -0.000033  -0.000064  -0.000001
    31  H   -0.000001  -0.000001   0.000028  -0.000078   0.000009  -0.000002
    32  H    0.000059  -0.000020   0.000181  -0.001733   0.001944   0.000008
    33  H   -0.116202   0.437101   0.004564  -0.000066   0.000032   0.000293
    34  H   -0.001629  -0.000036   0.032933  -0.121705   0.002229   0.000122
    35  H   -0.003252  -0.000135   0.002626  -0.005084   0.000008   0.051153
    36  H    0.025775  -0.002380  -0.000799  -0.009365  -0.007562  -0.001582
    37  H    0.000005  -0.000000  -0.000006   0.000053  -0.000000  -0.000070
    38  H   -0.000019   0.000000   0.001409  -0.003438   0.000324   0.000127
    39  H    0.000060   0.000001   0.000119  -0.001616  -0.000483   0.000024
    40  H    0.000055   0.000005  -0.000277  -0.000219  -0.000699  -0.000055
    41  H   -0.000001  -0.000000   0.000045  -0.000082   0.000064   0.000000
    42  H   -0.004211   0.004167  -0.004773   0.000703   0.012114   0.000107
    43  H   -0.000226   0.000875   0.001156  -0.000133  -0.001137  -0.000011
    44  H   -0.000009   0.000000   0.000014  -0.000032   0.000000   0.000410
    45  H    0.000004  -0.000000  -0.000002   0.000017  -0.000000   0.000067
               7          8          9         10         11         12
     1  C    0.161662  -0.008247   0.287943  -0.002592  -0.078153   0.023815
     2  C    0.009493   0.000024  -0.062246  -0.002635  -0.004404  -0.001959
     3  C   -0.253126   0.030109   0.099998   0.014317   0.017487  -0.084783
     4  C    0.263782  -0.098014  -0.172839  -0.007381  -0.007127   0.278437
     5  H   -0.006191   0.000245   0.016133   0.000293  -0.000007  -0.023858
     6  C   -0.231010   0.495681   0.071724  -0.039658   0.025345  -0.100268
     7  C    5.698675  -0.128731   0.278544   0.262545  -0.079168   0.029791
     8  H   -0.128731   0.526800   0.018081  -0.006954   0.000198  -0.008931
     9  C    0.278544   0.018081   5.376687  -0.059894   0.452832   0.002062
    10  C    0.262545  -0.006954  -0.059894   4.966800  -0.002477  -0.003856
    11  H   -0.079168   0.000198   0.452832  -0.002477   0.520695   0.000077
    12  C    0.029791  -0.008931   0.002062  -0.003856   0.000077   5.009524
    13  C   -0.000047   0.000000  -0.000203  -0.000001   0.000014   0.000286
    14  C    0.000166  -0.000001   0.002610   0.000018   0.000140  -0.000186
    15  N    0.000004   0.000000  -0.000043  -0.000000  -0.000001   0.000008
    16  N   -0.002785  -0.000004   0.008193  -0.000044   0.000695  -0.000143
    17  H   -0.000036  -0.000000   0.000014  -0.000000   0.000002  -0.000043
    18  C    0.000120  -0.000080  -0.000098  -0.000004  -0.000000  -0.077314
    19  C    0.000002  -0.000001  -0.000005   0.000000   0.000000   0.000366
    20  N   -0.000923  -0.000279   0.000755   0.000005   0.000002   0.684352
    21  N   -0.000002   0.000000   0.000005   0.000000   0.000000  -0.000536
    22  C    0.021268  -0.003520  -0.001419  -0.083574  -0.000139   0.000005
    23  C    0.003495  -0.000621   0.000123   0.000629  -0.000004   0.000005
    24  N   -0.193979   0.046702   0.003380   0.681104  -0.000396  -0.000880
    25  H   -0.002761   0.000835   0.000387   0.001119   0.000241  -0.000004
    26  N   -0.000136   0.000021   0.000002   0.000783   0.000000  -0.000000
    27  H   -0.000006  -0.000001  -0.000001   0.000028  -0.000000   0.000000
    28  H   -0.000011  -0.000000   0.000000  -0.000071   0.000000  -0.000000
    29  H   -0.000000   0.000000  -0.000000  -0.000000   0.000000  -0.000000
    30  H    0.000004   0.000000  -0.000033   0.000000  -0.000001   0.000001
    31  H   -0.000000  -0.000000   0.000000  -0.000000   0.000000  -0.000029
    32  H   -0.000002   0.000001   0.000012   0.000000   0.000000   0.001131
    33  H   -0.000355  -0.000000   0.005696  -0.000107   0.003107  -0.000008
    34  H    0.001979   0.006187   0.000651  -0.000048  -0.000001   0.433477
    35  H   -0.135358   0.003720   0.002042   0.415927   0.010663  -0.000089
    36  H    0.001868   0.000005  -0.002455   0.000038  -0.000162   0.001509
    37  H   -0.000215  -0.000302  -0.000059  -0.001581  -0.000006   0.000001
    38  H    0.000003   0.000107   0.000009   0.000000   0.000000   0.003686
    39  H    0.000005  -0.000004  -0.000010  -0.000000  -0.000000  -0.001091
    40  H    0.000011  -0.000003  -0.000012  -0.000000  -0.000000   0.004007
    41  H   -0.000000   0.000000   0.000000   0.000000   0.000000   0.000268
    42  H   -0.000039  -0.000000   0.000201  -0.000000   0.000002  -0.000288
    43  H    0.000009   0.000000  -0.000038   0.000000  -0.000000   0.000014
    44  H   -0.000866   0.001375   0.000090   0.003031   0.000005  -0.000007
    45  H   -0.001067  -0.000074  -0.000149   0.003682  -0.000004  -0.000000
              13         14         15         16         17         18
     1  C   -0.003584  -0.016860  -0.000259  -0.122027  -0.003490  -0.000014
     2  C   -0.001090  -0.092879   0.003384   0.702320   0.000373   0.000033
     3  C   -0.010082   0.019374  -0.000170   0.001677   0.002228  -0.008901
     4  C    0.002235  -0.003663  -0.000108   0.005211   0.000179   0.036980
     5  H   -0.000885  -0.002148  -0.000303   0.001863   0.001184  -0.003959
     6  C    0.000021  -0.000186  -0.000002   0.000267   0.000035  -0.000256
     7  C   -0.000047   0.000166   0.000004  -0.002785  -0.000036   0.000120
     8  H    0.000000  -0.000001   0.000000  -0.000004  -0.000000  -0.000080
     9  C   -0.000203   0.002610  -0.000043   0.008193   0.000014  -0.000098
    10  C   -0.000001   0.000018  -0.000000  -0.000044  -0.000000  -0.000004
    11  H    0.000014   0.000140  -0.000001   0.000695   0.000002  -0.000000
    12  C    0.000286  -0.000186   0.000008  -0.000143  -0.000043  -0.077314
    13  C    4.863957   0.402589   0.309841  -0.051566  -0.035405  -0.000013
    14  C    0.402589   4.959403  -0.070439   0.264796   0.402475   0.000018
    15  N    0.309841  -0.070439   6.608579  -0.011909  -0.001686  -0.000001
    16  N   -0.051566   0.264796  -0.011909   6.530730  -0.043299  -0.000001
    17  H   -0.035405   0.402475  -0.001686  -0.043299   0.569449   0.000000
    18  C   -0.000013   0.000018  -0.000001  -0.000001   0.000000   4.829788
    19  C    0.000052  -0.000028  -0.000001   0.000000   0.000000   0.381295
    20  N    0.001185  -0.001745   0.000012   0.000059   0.000003   0.281151
    21  N   -0.000277   0.000054  -0.000003   0.000000  -0.000000  -0.051623
    22  C    0.000000   0.000000  -0.000000  -0.000000   0.000000  -0.000000
    23  C    0.000000   0.000000  -0.000000   0.000000  -0.000000   0.000000
    24  N    0.000000  -0.000000   0.000000  -0.000000   0.000000  -0.000000
    25  H   -0.000000   0.000000   0.000000  -0.000000   0.000000   0.000000
    26  N   -0.000000  -0.000000  -0.000000  -0.000000   0.000000  -0.000000
    27  H   -0.000000  -0.000000  -0.000000  -0.000000   0.000000   0.000000
    28  H    0.000000   0.000000  -0.000000  -0.000000  -0.000000  -0.000000
    29  H   -0.056139   0.002503   0.372857  -0.000962   0.004573  -0.000000
    30  H   -0.060680  -0.006939   0.383401   0.013859  -0.000323   0.000000
    31  H   -0.000060   0.000007  -0.000000   0.000000   0.000000   0.008424
    32  H    0.000005  -0.000016   0.000039   0.000008   0.000002  -0.019370
    33  H   -0.000975   0.011048   0.000592  -0.035325   0.000125   0.000000
    34  H    0.000014  -0.000034   0.000000  -0.000002  -0.000000  -0.027179
    35  H   -0.000000   0.000001   0.000000  -0.000005  -0.000000   0.000000
    36  H   -0.047603   0.384374   0.012292  -0.049176  -0.021449  -0.000040
[...]
    22  C    0.000000  -0.000000   0.000000   4.925476   0.349846   0.292390
    23  C    0.000000   0.000000  -0.000000   0.349846   4.874763  -0.073808
    24  N    0.000000  -0.000001  -0.000000   0.292390  -0.073808   6.507945
    25  H    0.000000   0.000000  -0.000000   0.356671  -0.047027  -0.042247
    26  N   -0.000000  -0.000000  -0.000000  -0.068824   0.298953   0.007871
    27  H   -0.000000  -0.000000   0.000000  -0.005774  -0.038071  -0.000161
    28  H    0.000000  -0.000000   0.000000   0.010775  -0.034790  -0.000668
    29  H    0.000000   0.000000  -0.000000   0.000000  -0.000000   0.000000
    30  H   -0.000000   0.000001   0.000000  -0.000000  -0.000000   0.000000
    31  H   -0.031287  -0.000531   0.360476  -0.000000   0.000000  -0.000000
    32  H   -0.038575   0.016813   0.377392   0.000000  -0.000000  -0.000000
    33  H    0.000000   0.000000  -0.000000  -0.000000  -0.000000  -0.000001
    34  H   -0.000266  -0.061093  -0.000054   0.000004   0.000000  -0.000095
    35  H    0.000000   0.000000   0.000000  -0.019063  -0.002815  -0.064355
    36  H    0.000004   0.001169  -0.000008   0.000000  -0.000000   0.000000
    37  H   -0.000000   0.000000   0.000000   0.412750  -0.041599  -0.033939
    38  H   -0.039939  -0.046608   0.005581   0.000000  -0.000000   0.000000
    39  H   -0.045355  -0.038553   0.010664  -0.000000   0.000000   0.000000
    40  H    0.414569  -0.005159  -0.061670  -0.000000   0.000000  -0.000000
    41  H    0.397246   0.007595  -0.032632   0.000000  -0.000000   0.000000
    42  H    0.000014  -0.000370   0.000416   0.000000  -0.000000   0.000000
    43  H   -0.000011   0.000107   0.000110   0.000000  -0.000000   0.000000
    44  H    0.000000   0.000000  -0.000000  -0.083386   0.435565   0.020151
    45  H   -0.000000  -0.000000   0.000000  -0.011586   0.383920  -0.000159
              25         26         27         28         29         30
     1  C   -0.000087  -0.000000   0.000000  -0.000000  -0.000023   0.000383
     2  C   -0.000001  -0.000000  -0.000000  -0.000000   0.000313   0.002973
     3  C    0.000054   0.000000  -0.000000  -0.000000  -0.000044  -0.000048
     4  C   -0.000159  -0.000001   0.000000  -0.000000   0.000004  -0.000033
     5  H    0.000000   0.000000  -0.000000   0.000000   0.000083  -0.000064
     6  C    0.003151   0.000036   0.000002   0.000000   0.000000  -0.000001
     7  C   -0.002761  -0.000136  -0.000006  -0.000011  -0.000000   0.000004
     8  H    0.000835   0.000021  -0.000001  -0.000000   0.000000   0.000000
     9  C    0.000387   0.000002  -0.000001   0.000000  -0.000000  -0.000033
    10  C    0.001119   0.000783   0.000028  -0.000071  -0.000000   0.000000
    11  H    0.000241   0.000000  -0.000000   0.000000   0.000000  -0.000001
    12  C   -0.000004  -0.000000   0.000000  -0.000000  -0.000000   0.000001
    13  C   -0.000000  -0.000000  -0.000000   0.000000  -0.056139  -0.060680
    14  C    0.000000  -0.000000  -0.000000   0.000000   0.002503  -0.006939
    15  N    0.000000  -0.000000  -0.000000  -0.000000   0.372857   0.383401
    16  N   -0.000000  -0.000000  -0.000000  -0.000000  -0.000962   0.013859
    17  H    0.000000   0.000000   0.000000  -0.000000   0.004573  -0.000323
    18  C    0.000000  -0.000000   0.000000  -0.000000  -0.000000   0.000000
    19  C    0.000000  -0.000000  -0.000000   0.000000   0.000000  -0.000000
    20  N    0.000000  -0.000000  -0.000000  -0.000000   0.000000   0.000001
    21  N   -0.000000  -0.000000   0.000000   0.000000  -0.000000   0.000000
    22  C    0.356671  -0.068824  -0.005774   0.010775   0.000000  -0.000000
    23  C   -0.047027   0.298953  -0.038071  -0.034790  -0.000000  -0.000000
    24  N   -0.042247   0.007871  -0.000161  -0.000668   0.000000   0.000000
    25  H    0.643910   0.021418  -0.001654  -0.000576  -0.000000  -0.000000
    26  N    0.021418   6.654986   0.364117   0.363511   0.000000   0.000000
    27  H   -0.001654   0.364117   0.467802  -0.030225   0.000000   0.000000
    28  H   -0.000576   0.363511  -0.030225   0.464428  -0.000000  -0.000000
    29  H   -0.000000   0.000000   0.000000  -0.000000   0.475219  -0.031125
    30  H   -0.000000   0.000000   0.000000  -0.000000  -0.031125   0.460417
    31  H   -0.000000  -0.000000  -0.000000   0.000000   0.000000   0.000000
    32  H   -0.000000   0.000000   0.000000  -0.000000  -0.000000  -0.000003
    33  H    0.000000   0.000000   0.000000  -0.000000   0.000015  -0.000124
    34  H   -0.000000  -0.000000  -0.000000  -0.000000   0.000000   0.000000
    35  H    0.024412   0.000155   0.000025   0.000017  -0.000000   0.000000
    36  H   -0.000000  -0.000000   0.000000   0.000000   0.000649   0.000907
    37  H   -0.038680  -0.001347   0.006154  -0.000437   0.000000   0.000000
    38  H    0.000000   0.000000  -0.000000   0.000000   0.000000   0.000000
    39  H   -0.000000   0.000000   0.000000  -0.000000   0.000000   0.000000
    40  H    0.000000   0.000000  -0.000000  -0.000000   0.000000  -0.000000
    41  H    0.000000   0.000000   0.000000  -0.000000  -0.000000  -0.000000
    42  H   -0.000000  -0.000000  -0.000000  -0.000000   0.009245  -0.005205
    43  H    0.000000   0.000000  -0.000000  -0.000000  -0.006547   0.008856
    44  H    0.014924  -0.052713  -0.008194  -0.005148   0.000000   0.000000
    45  H   -0.010895  -0.030012   0.009094  -0.006572   0.000000   0.000000
              31         32         33         34         35         36
     1  C   -0.000001   0.000059  -0.116202  -0.001629  -0.003252   0.025775
     2  C   -0.000001  -0.000020   0.437101  -0.000036  -0.000135  -0.002380
     3  C    0.000028   0.000181   0.004564   0.032933   0.002626  -0.000799
     4  C   -0.000078  -0.001733  -0.000066  -0.121705  -0.005084  -0.009365
     5  H    0.000009   0.001944   0.000032   0.002229   0.000008  -0.007562
     6  C   -0.000002   0.000008   0.000293   0.000122   0.051153  -0.001582
     7  C   -0.000000  -0.000002  -0.000355   0.001979  -0.135358   0.001868
     8  H   -0.000000   0.000001  -0.000000   0.006187   0.003720   0.000005
     9  C    0.000000   0.000012   0.005696   0.000651   0.002042  -0.002455
    10  C   -0.000000   0.000000  -0.000107  -0.000048   0.415927   0.000038
    11  H    0.000000   0.000000   0.003107  -0.000001   0.010663  -0.000162
    12  C   -0.000029   0.001131  -0.000008   0.433477  -0.000089   0.001509
    13  C   -0.000060   0.000005  -0.000975   0.000014  -0.000000  -0.047603
    14  C    0.000007  -0.000016   0.011048  -0.000034   0.000001   0.384374
    15  N   -0.000000   0.000039   0.000592   0.000000   0.000000   0.012292
    16  N    0.000000   0.000008  -0.035325  -0.000002  -0.000005  -0.049176
    17  H    0.000000   0.000002   0.000125  -0.000000  -0.000000  -0.021449
    18  C    0.008424  -0.019370   0.000000  -0.027179   0.000000  -0.000040
    19  C   -0.031287  -0.038575   0.000000  -0.000266   0.000000   0.000004
    20  N   -0.000531   0.016813   0.000000  -0.061093   0.000000   0.001169
    21  N    0.360476   0.377392  -0.000000  -0.000054   0.000000  -0.000008
    22  C   -0.000000   0.000000  -0.000000   0.000004  -0.019063   0.000000
    23  C    0.000000  -0.000000  -0.000000   0.000000  -0.002815  -0.000000
    24  N   -0.000000  -0.000000  -0.000001  -0.000095  -0.064355   0.000000
    25  H   -0.000000  -0.000000   0.000000  -0.000000   0.024412  -0.000000
    26  N   -0.000000   0.000000   0.000000  -0.000000   0.000155  -0.000000
    27  H   -0.000000   0.000000   0.000000  -0.000000   0.000025   0.000000
    28  H    0.000000  -0.000000  -0.000000  -0.000000   0.000017   0.000000
    29  H    0.000000  -0.000000   0.000015   0.000000  -0.000000   0.000649
    30  H    0.000000  -0.000003  -0.000124   0.000000   0.000000   0.000907
    31  H    0.472895  -0.030836  -0.000000   0.000005  -0.000000  -0.000001
    32  H   -0.030836   0.449989  -0.000000   0.000239  -0.000000   0.000027
    33  H   -0.000000  -0.000000   0.556658  -0.000001   0.000022  -0.001014
    34  H    0.000005   0.000239  -0.000001   0.614477  -0.000006   0.000076
    35  H   -0.000000  -0.000000   0.000022  -0.000006   0.626799  -0.000000
    36  H   -0.000001   0.000027  -0.001014   0.000076  -0.000000   0.588182
    37  H   -0.000000   0.000000   0.000000   0.000000  -0.000343   0.000000
    38  H   -0.000669   0.001067   0.000000   0.023012   0.000000   0.000008
    39  H   -0.000648  -0.001005  -0.000000   0.000044  -0.000000  -0.000002
    40  H   -0.008532  -0.002456   0.000000  -0.000120  -0.000000   0.000001
    41  H   -0.003358   0.008506  -0.000000   0.000196   0.000000  -0.000000
    42  H    0.000140   0.000696   0.000236  -0.000005  -0.000000   0.000964
    43  H   -0.000021  -0.000032   0.000042   0.000001   0.000000   0.001976
    44  H   -0.000000  -0.000000   0.000000  -0.000001   0.000458  -0.000000
    45  H   -0.000000   0.000000   0.000000   0.000000   0.000594   0.000000
              37         38         39         40         41         42
     1  C    0.000005  -0.000019   0.000060   0.000055  -0.000001  -0.004211
     2  C   -0.000000   0.000000   0.000001   0.000005  -0.000000   0.004167
     3  C   -0.000006   0.001409   0.000119  -0.000277   0.000045  -0.004773
     4  C    0.000053  -0.003438  -0.001616  -0.000219  -0.000082   0.000703
     5  H   -0.000000   0.000324  -0.000483  -0.000699   0.000064   0.012114
     6  C   -0.000070   0.000127   0.000024  -0.000055   0.000000   0.000107
     7  C   -0.000215   0.000003   0.000005   0.000011  -0.000000  -0.000039
     8  H   -0.000302   0.000107  -0.000004  -0.000003   0.000000  -0.000000
     9  C   -0.000059   0.000009  -0.000010  -0.000012   0.000000   0.000201
    10  C   -0.001581   0.000000  -0.000000  -0.000000   0.000000  -0.000000
    11  H   -0.000006   0.000000  -0.000000  -0.000000   0.000000   0.000002
    12  C    0.000001   0.003686  -0.001091   0.004007   0.000268  -0.000288
    13  C    0.000000   0.000010   0.000020   0.000037  -0.000003   0.394429
    14  C   -0.000000  -0.000007  -0.000007  -0.000008   0.000001  -0.047979
    15  N   -0.000000   0.000000   0.000000   0.000000   0.000000  -0.036371
    16  N   -0.000000   0.000000  -0.000000  -0.000000   0.000000  -0.004620
    17  H    0.000000  -0.000000   0.000000  -0.000000   0.000000   0.006830
    18  C    0.000000   0.374260   0.402040  -0.036645  -0.025078  -0.000076
    19  C   -0.000000  -0.039939  -0.045355   0.414569   0.397246   0.000014
    20  N    0.000000  -0.046608  -0.038553  -0.005159   0.007595  -0.000370
    21  N    0.000000   0.005581   0.010664  -0.061670  -0.032632   0.000416
    22  C    0.412750   0.000000  -0.000000  -0.000000   0.000000   0.000000
    23  C   -0.041599  -0.000000   0.000000   0.000000  -0.000000  -0.000000
    24  N   -0.033939   0.000000   0.000000  -0.000000   0.000000   0.000000
    25  H   -0.038680   0.000000  -0.000000   0.000000   0.000000  -0.000000
    26  N   -0.001347   0.000000   0.000000   0.000000   0.000000  -0.000000
    27  H    0.006154  -0.000000   0.000000  -0.000000   0.000000  -0.000000
    28  H   -0.000437   0.000000  -0.000000  -0.000000  -0.000000  -0.000000
    29  H    0.000000   0.000000   0.000000   0.000000  -0.000000   0.009245
    30  H    0.000000   0.000000   0.000000  -0.000000  -0.000000  -0.005205
    31  H   -0.000000  -0.000669  -0.000648  -0.008532  -0.003358   0.000140
    32  H    0.000000   0.001067  -0.001005  -0.002456   0.008506   0.000696
    33  H    0.000000   0.000000  -0.000000   0.000000  -0.000000   0.000236
    34  H    0.000000   0.023012   0.000044  -0.000120   0.000196  -0.000005
    35  H   -0.000343   0.000000  -0.000000  -0.000000   0.000000  -0.000000
    36  H    0.000000   0.000008  -0.000002   0.000001  -0.000000   0.000964
    37  H    0.582422  -0.000000   0.000000  -0.000000   0.000000  -0.000000
    38  H   -0.000000   0.616855  -0.025918   0.001802  -0.002277  -0.000009
    39  H    0.000000  -0.025918   0.587395   0.011962  -0.005585  -0.000027
    40  H   -0.000000   0.001802   0.011962   0.625707  -0.040314  -0.000070
    41  H    0.000000  -0.002277  -0.005585  -0.040314   0.587976   0.000004
    42  H   -0.000000  -0.000009  -0.000027  -0.000070   0.000004   0.576158
    43  H    0.000000   0.000001   0.000023   0.000006  -0.000001  -0.017519
    44  H   -0.010033   0.000000   0.000000   0.000000   0.000000  -0.000000
    45  H    0.008458  -0.000000   0.000000  -0.000000   0.000000  -0.000000
              43         44         45
     1  C   -0.000226  -0.000009   0.000004
     2  C    0.000875   0.000000  -0.000000
     3  C    0.001156   0.000014  -0.000002
     4  C   -0.000133  -0.000032   0.000017
     5  H   -0.001137   0.000000  -0.000000
     6  C   -0.000011   0.000410   0.000067
     7  C    0.000009  -0.000866  -0.001067
     8  H    0.000000   0.001375  -0.000074
     9  C   -0.000038   0.000090  -0.000149
    10  C    0.000000   0.003031   0.003682
    11  H   -0.000000   0.000005  -0.000004
    12  C    0.000014  -0.000007  -0.000000
    13  C    0.395389  -0.000000   0.000000
    14  C   -0.050715   0.000000  -0.000000
    15  N   -0.024236   0.000000  -0.000000
    16  N    0.006652  -0.000000  -0.000000
    17  H   -0.000898  -0.000000   0.000000
    18  C    0.000035   0.000000  -0.000000
    19  C   -0.000011   0.000000  -0.000000
    20  N    0.000107   0.000000  -0.000000
    21  N    0.000110  -0.000000   0.000000
    22  C    0.000000  -0.083386  -0.011586
    23  C   -0.000000   0.435565   0.383920
    24  N    0.000000   0.020151  -0.000159
    25  H    0.000000   0.014924  -0.010895
    26  N    0.000000  -0.052713  -0.030012
    27  H   -0.000000  -0.008194   0.009094
    28  H   -0.000000  -0.005148  -0.006572
    29  H   -0.006547   0.000000   0.000000
    30  H    0.008856   0.000000   0.000000
    31  H   -0.000021  -0.000000  -0.000000
    32  H   -0.000032  -0.000000   0.000000
    33  H    0.000042   0.000000   0.000000
    34  H    0.000001  -0.000001   0.000000
    35  H    0.000000   0.000458   0.000594
    36  H    0.001976  -0.000000   0.000000
    37  H    0.000000  -0.010033   0.008458
    38  H    0.000001   0.000000  -0.000000
    39  H    0.000023   0.000000   0.000000
    40  H    0.000006   0.000000  -0.000000
    41  H   -0.000001   0.000000   0.000000
    42  H   -0.017519  -0.000000  -0.000000
    43  H    0.562777   0.000000  -0.000000
    44  H    0.000000   0.633120  -0.044011
    45  H   -0.000000  -0.044011   0.587781
 Mulliken charges:
               1
     1  C    0.283635
     2  C   -0.164507
     3  C   -0.337496
     4  C    0.350570
     5  H    0.155881
     6  C   -0.351929
     7  C    0.303390
     8  H    0.125675
     9  C   -0.328668
    10  C   -0.139440
    11  H    0.140544
    12  C   -0.168548
    13  C   -0.101471
    14  C   -0.155737
    15  N   -0.545476
    16  N   -0.214464
    17  H    0.119158
    18  C   -0.063494
    19  C   -0.084088
    20  N   -0.215913
    21  N   -0.569464
    22  C   -0.083887
    23  C   -0.107595
    24  N   -0.189185
    25  H    0.076967
    26  N   -0.558821
    27  H    0.236864
    28  H    0.239766
    29  H    0.229379
    30  H    0.233777
    31  H    0.234069
    32  H    0.235929
    33  H    0.134647
    34  H    0.096629
    35  H    0.091882
    36  H    0.123772
    37  H    0.118774
    38  H    0.090625
    39  H    0.107946
    40  H    0.098075
    41  H    0.107426
    42  H    0.115135
    43  H    0.123495
    44  H    0.095256
    45  H    0.110913
 Sum of Mulliken charges =   0.00000
 Mulliken charges with hydrogens summed into heavy atoms:
               1
     1  C    0.283635
     2  C   -0.029860
     3  C   -0.181615
     4  C    0.350570
     6  C   -0.226254
     7  C    0.303390
     9  C   -0.188124
    10  C   -0.047557
    12  C   -0.071918
    13  C    0.137159
    14  C    0.087194
    15  N   -0.082320
    16  N   -0.214464
    18  C    0.135078
    19  C    0.121413
    20  N   -0.215913
    21  N   -0.099467
    22  C    0.111854
    23  C    0.098575
    24  N   -0.189185
    26  N   -0.082191
 Electronic spatial extent (au):  <R**2>=          10889.0180
 Charge=              0.0000 electrons
 Dipole moment (field-independent basis, Debye):
    X=              4.2047    Y=              1.5039    Z=             -0.3591  Tot=              4.4800
 Quadrupole moment (field-independent basis, Debye-Ang):
   XX=           -137.6501   YY=           -120.9428   ZZ=           -123.4673
   XY=              5.3467   XZ=              4.2835   YZ=             -3.4506
 Traceless Quadrupole moment (field-independent basis, Debye-Ang):
   XX=            -10.2967   YY=              6.4106   ZZ=              3.8861
   XY=              5.3467   XZ=              4.2835   YZ=             -3.4506
 Octapole moment (field-independent basis, Debye-Ang**2):
  XXX=            190.8344  YYY=             36.9882  ZZZ=             12.3796  XYY=             15.0876
  XXY=             90.5479  XXZ=              8.4257  XZZ=              2.7637  YZZ=             -8.2792
  YYZ=             -6.9438  XYZ=             45.3304
 Hexadecapole moment (field-independent basis, Debye-Ang**3):
 XXXX=         -10842.2319 YYYY=          -3499.2015 ZZZZ=           -413.8932 XXXY=            703.3953
 XXXZ=            312.1114 YYYX=            -18.4822 YYYZ=            -43.3098 ZZZX=             42.4427
 ZZZY=            -10.6876 XXYY=          -2330.3479 XXZZ=          -1608.8398 YYZZ=           -633.5492
 XXYZ=           -155.2743 YYXZ=              7.2718 ZZXY=             47.7793
 N-N= 1.563404043460D+03 E-N=-5.252776340257D+03  KE= 9.095423163992D+02
 No NMR shielding tensors so no spin-rotation constants.
 Leave Link  601 at Tue Oct 19 02:05:01 2021, MaxMem=  7864320000 cpu:              21.1 elap:               0.8
 (Enter /apps/gaussian/g16-c01-avx/g16/l9999.exe)
 Unable to Open any file for archive entry.
 1\1\GINC-CX3-5-0\SP\RPBE1PBE\def2TZVP\C15H24N6\ROOT\19-Oct-2021\0\\#P 
 PBE1PBE/Def2TZVP SP SCF=(YQC,MaxCycle=900) int=(Grid=Superfinegrid) Em
 piricalDispersion=GD3 SCRF=(PCM,Solvent=Dichloromethane)\\_1_alde1_3_a
 mi4_2_opt_dcm\\0,1\C,0,-0.872,-0.345,-1.1043\C,0,-0.9763,-1.6702,-0.46
 49\C,0,-1.9469,0.5299,-1.1924\C,0,-1.8029,1.7806,-1.7969\H,0,-2.924,0.
 2578,-0.8281\C,0,-0.5718,2.1486,-2.3227\C,0,0.5137,1.2753,-2.2575\H,0,
 -0.4284,3.1084,-2.7946\C,0,0.353,0.0323,-1.6541\C,0,1.8029,1.654,-2.81
 88\H,0,1.1917,-0.6484,-1.5975\C,0,-2.9389,2.6896,-1.8681\C,0,-3.7274,-
 1.4104,1.4381\C,0,-2.2088,-1.1167,1.4918\N,0,-4.0997,-2.7471,1.8404\N,
 0,-1.5185,-2.0151,0.6181\H,0,-1.8536,-1.3407,2.5044\C,0,-5.1426,3.316,
 -1.3961\C,0,-6.3839,2.5511,-1.8665\N,0,-4.0378,2.4162,-1.3143\N,0,-6.8
 13,1.645,-0.817\C,0,3.2595,3.1182,-3.9053\C,0,3.7866,4.3718,-3.1965\N,
 0,1.9813,2.771,-3.3759\H,0,4.0027,2.3103,-3.8133\N,0,5.0715,4.7461,-3.
 7608\H,0,4.9631,5.0123,-4.7343\H,0,5.4557,5.5417,-3.2633\H,0,-3.8164,-
 2.9162,2.8003\H,0,-3.6127,-3.4219,1.2592\H,0,-7.5458,1.0294,-1.1527\H,
 0,-6.0246,1.072,-0.534\H,0,-0.4636,-2.4705,-0.9959\H,0,-2.7701,3.6266,
 -2.4218\H,0,2.6045,0.9037,-2.7295\H,0,-2.0305,-0.0539,1.2782\H,0,3.121
 5,3.3508,-4.9669\H,0,-4.9446,4.1735,-2.0608\H,0,-5.3425,3.6826,-0.3846
 \H,0,-6.1419,2.0453,-2.8178\H,0,-7.1936,3.2625,-2.0561\H,0,-4.0831,-1.
 2657,0.4139\H,0,-4.2426,-0.6965,2.0863\H,0,3.0184,5.1587,-3.2671\H,0,3
 .9381,4.1432,-2.1376\\Version=ES64L-G16RevC.01\State=1-A\HF=-913.78589
 14\RMSD=2.549e-09\Dipole=1.0669182,1.0073493,-0.976513\Quadrupole=-6.3
 646866,4.0009837,2.3637029,-0.3575803,6.6225538,-1.5235639\PG=C01 [X(C
 15H24N6)]\\@
 The archive entry for this job was punched.


 LEARN FROM YESTERDAY,
 LIVE FOR TODAY,
 LOOK TO TOMORROW,
 REST THIS AFTERNOON.

           -- SNOOPY
 Job cpu time:       0 days  4 hours 37 minutes 43.3 seconds.
 Elapsed time:       0 days  0 hours  8 minutes 48.6 seconds.
 File lengths (MBytes):  RWF=   1024 Int=      0 D2E=      0 Chk=     48 Scr=     16
 Normal termination of Gaussian 16 at Tue Oct 19 02:05:01 2021.
