 Entering Gaussian System, Link 0=g16
 Initial command:
 /apps/gaussian/g16-c01-avx/g16/l1.exe "/rds/general/ephemeral/user/atarzia/ephemeral/xtb_spe_DFT/Gau-3004177.inp" -scrdir="/rds/general/ephemeral/user/atarzia/ephemeral/xtb_spe_DFT/"
 Entering Link 1 = /apps/gaussian/g16-c01-avx/g16/l1.exe PID=   3004178.
  
 Copyright (c) 1988-2019, Gaussian, Inc.  All Rights Reserved.
  
 This is part of the Gaussian(R) 16 program.  It is based on
 the Gaussian(R) 09 system (copyright 2009, Gaussian, Inc.),
 the Gaussian(R) 03 system (copyright 2003, Gaussian, Inc.),
 the Gaussian(R) 98 system (copyright 1998, Gaussian, Inc.),
 the Gaussian(R) 94 system (copyright 1995, Gaussian, Inc.),
 the Gaussian 92(TM) system (copyright 1992, Gaussian, Inc.),
 the Gaussian 90(TM) system (copyright 1990, Gaussian, Inc.),
 the Gaussian 88(TM) system (copyright 1988, Gaussian, Inc.),
 the Gaussian 86(TM) system (copyright 1986, Carnegie Mellon
 University), and the Gaussian 82(TM) system (copyright 1983,
 Carnegie Mellon University). Gaussian is a federally registered
 trademark of Gaussian, Inc.
  
 This software contains proprietary and confidential information,
 including trade secrets, belonging to Gaussian, Inc.
  
 This software is provided under written license and may be
 used, copied, transmitted, or stored only in accord with that
 written license.
  
 The following legend is applicable only to US Government
 contracts under FAR:
  
                    RESTRICTED RIGHTS LEGEND
  
 Use, reproduction and disclosure by the US Government is
 subject to restrictions as set forth in subparagraphs (a)
 and (c) of the Commercial Computer Software - Restricted
 Rights clause in FAR 52.227-19.
  
 Gaussian, Inc.
 340 Quinnipiac St., Bldg. 40, Wallingford CT 06492
  
  
 ---------------------------------------------------------------
 Warning -- This program may not be used in any manner that
 competes with the business of Gaussian, Inc. or will provide
 assistance to any competitor of Gaussian, Inc.  The licensee
 of this program is prohibited from giving any competitor of
 Gaussian, Inc. access to this program.  By using this program,
 the user acknowledges that Gaussian, Inc. is engaged in the
 business of creating and licensing software in the field of
 computational chemistry and represents and warrants to the
 licensee that it is not a competitor of Gaussian, Inc. and that
 it will not use this program in any manner prohibited above.
 ---------------------------------------------------------------
  

 Cite this work as:
 Gaussian 16, Revision C.01,
 M. J. Frisch, G. W. Trucks, H. B. Schlegel, G. E. Scuseria, 
 M. A. Robb, J. R. Cheeseman, G. Scalmani, V. Barone, 
 G. A. Petersson, H. Nakatsuji, X. Li, M. Caricato, A. V. Marenich, 
 J. Bloino, B. G. Janesko, R. Gomperts, B. Mennucci, H. P. Hratchian, 
 J. V. Ortiz, A. F. Izmaylov, J. L. Sonnenberg, D. Williams-Young, 
 F. Ding, F. Lipparini, F. Egidi, J. Goings, B. Peng, A. Petrone, 
 T. Henderson, D. Ranasinghe, V. G. Zakrzewski, J. Gao, N. Rega, 
 G. Zheng, W. Liang, M. Hada, M. Ehara, K. Toyota, R. Fukuda, 
 J. Hasegawa, M. Ishida, T. Nakajima, Y. Honda, O. Kitao, H. Nakai, 
 T. Vreven, K. Throssell, J. A. Montgomery, Jr., J. E. Peralta, 
 F. Ogliaro, M. J. Bearpark, J. J. Heyd, E. N. Brothers, K. N. Kudin, 
 V. N. Staroverov, T. A. Keith, R. Kobayashi, J. Normand, 
 K. Raghavachari, A. P. Rendell, J. C. Burant, S. S. Iyengar, 
 J. Tomasi, M. Cossi, J. M. Millam, M. Klene, C. Adamo, R. Cammi, 
 J. W. Ochterski, R. L. Martin, K. Morokuma, O. Farkas, 
 J. B. Foresman, and D. J. Fox, Gaussian, Inc., Wallingford CT, 2019.
 
 ******************************************
 Gaussian 16:  ES64L-G16RevC.01  3-Jul-2019
                 1-Nov-2021 
 ******************************************
 %chk=_1_alde1_3_ami3_2_opt_gas_mp2.chk
 %mem=60000mb
 %nprocshared=32
 Will use up to   32 processors via shared memory.
 ---------------------------------------------------------------------
 #P MP2/aug-cc-pVDZ SP SCF=(YQC,MaxCycle=900) int=(Grid=Superfinegrid)
 ---------------------------------------------------------------------
 1/38=1,172=1/1;
 2/12=2,17=6,18=5,40=1/2;
 3/5=16,7=10,11=9,25=1,30=1,75=-7/1,2,3;
 4//1;
 5/5=2,7=900,8=4,13=1,38=1/8,2,8;
 8/10=1/1;
 9/16=-3/6;
 6/7=2,8=2,9=2,10=2/1;
 99/5=1,9=1/99;
 Leave Link    1 at Mon Nov  1 15:30:36 2021, MaxMem=  7864320000 cpu:               6.4 elap:               0.2
 (Enter /apps/gaussian/g16-c01-avx/g16/l101.exe)
 -----------------------------
 _1_alde1_3_ami3_2_opt_gas_mp2
 -----------------------------
 Symbolic Z-matrix:
 Charge =  0 Multiplicity = 1
 C                    -0.8344    0.0796    0.1552 
 C                    -0.4031   -1.0133    1.0486 
 C                    -2.1777    0.4023   -0.0312 
 C                    -2.5415    1.4375   -0.8903 
 H                    -2.9412   -0.1382    0.5125 
 C                    -1.5547    2.1524   -1.5653 
 C                    -0.211     1.8507   -1.375 
 H                    -1.8589    2.9484   -2.2278 
 C                     0.1405    0.8176   -0.5059 
 C                     0.8164    2.6111   -2.0726 
 H                     1.1883    0.5969   -0.3701 
 C                    -3.9498    1.759    -1.0723 
 C                    -3.0907   -3.0514    1.2479 
 C                    -1.8811   -2.7347    0.3483 
 N                    -3.5934   -1.8123    1.8326 
 H                    -2.7504   -3.7645    2.0195 
 C                    -4.1892   -3.7062    0.4132 
 N                    -0.827    -2.1941    1.1581 
 H                    -2.2069   -2.0507   -0.4497 
 C                    -1.3686   -4.0332   -0.2849 
 C                    -3.6846   -4.9868   -0.2428 
 C                    -2.4645   -4.6966   -1.1103 
 C                    -5.7181    2.9663   -2.0103 
 C                    -6.0906    2.7486   -3.488 
 N                    -4.3264    2.6792   -1.8487 
 H                    -6.3497    2.3002   -1.3953 
 C                    -5.9582    4.427    -1.6155 
 N                    -5.9592    1.3301   -3.793 
 H                    -5.4144    3.3784   -4.0944 
 C                    -7.5363    3.1767   -3.7364 
 C                    -7.4048    4.8323   -1.867 
 C                    -7.7628    4.6293   -3.335 
 C                     3.029     3.121    -2.6295 
 C                     3.8329    2.1616   -3.5254 
 N                     2.0436    2.3605   -1.9254 
 H                     2.5706    3.8913   -3.2754 
 C                     3.953     3.7822   -1.6017 
 N                     2.9465    1.6434   -4.5588 
 H                     4.2387    1.3657   -2.8746 
 C                     4.9887    2.9061   -4.1925 
 C                     5.0948    4.5218   -2.287 
 C                     5.8968    3.5631   -3.1599 
 H                     2.1604    1.1652   -4.1306 
 H                     3.4399    0.9734   -5.1391 
 H                    -2.9057   -1.4427    2.4824 
 H                    -4.4425   -1.9979    2.3571 
 H                    -5.0085    1.0255   -3.6107 
 H                    -6.1567    1.1638   -4.7741 
 H                     0.441    -0.7653    1.6904 
 H                     0.4526    3.4116   -2.7352 
 H                    -8.8059    4.9016   -3.5081 
 H                    -7.1388    5.2792   -3.953 
 H                    -7.5462    5.8783   -1.5871 
 H                    -8.0663    4.2249   -1.245 
 H                    -5.7037    4.5544   -0.5611 
 H                    -5.2848    5.0556   -2.201 
 H                    -7.7734    3.0373   -4.7937 
 H                    -8.1904    2.5213   -3.1587 
 H                    -4.6583    1.1466   -0.4936 
 H                     5.7424    4.9746   -1.5334 
 H                     4.6884    5.3237   -2.9076 
 H                     3.3657    4.4698   -0.9893 
 H                     4.3491    3.0044   -0.9463 
 H                     6.7021    4.0999   -3.6651 
 H                     6.3491    2.7929   -2.5307 
 H                     5.5604    2.2039   -4.8037 
 H                     4.5687    3.6623   -4.8581 
 H                    -2.0869   -5.6241   -1.5454 
 H                    -2.7519   -4.0337   -1.9298 
 H                    -4.4784   -5.4281   -0.8487 
 H                    -3.4138   -5.7075    0.5325 
 H                    -4.5168   -2.9972   -0.3497 
 H                    -5.046    -3.9283    1.0543 
 H                    -1.0351   -4.7015    0.5107 
 H                    -0.506    -3.8034   -0.9134 
 
 ITRead=  0  0  0  0  0  0  0  0  0  0  0  0  0  0  0  0  0  0  0  0
 ITRead=  0  0  0  0  0  0  0  0  0  0  0  0  0  0  0  0  0  0  0  0
 ITRead=  0  0  0  0  0  0  0  0  0  0  0  0  0  0  0  0  0  0  0  0
 ITRead=  0  0  0  0  0  0  0  0  0  0  0  0  0  0  0
 MicOpt= -1 -1 -1 -1 -1 -1 -1 -1 -1 -1 -1 -1 -1 -1 -1 -1 -1 -1 -1 -1
 MicOpt= -1 -1 -1 -1 -1 -1 -1 -1 -1 -1 -1 -1 -1 -1 -1 -1 -1 -1 -1 -1
 MicOpt= -1 -1 -1 -1 -1 -1 -1 -1 -1 -1 -1 -1 -1 -1 -1 -1 -1 -1 -1 -1
 MicOpt= -1 -1 -1 -1 -1 -1 -1 -1 -1 -1 -1 -1 -1 -1 -1
 NAtoms=     75 NQM=       75 NQMF=       0 NMMI=      0 NMMIF=      0
                NMic=       0 NMicF=      0.
                    Isotopes and Nuclear Properties:
 (Nuclear quadrupole moments (NQMom) in fm**2, nuclear magnetic moments (NMagM)
  in nuclear magnetons)

  Atom         1           2           3           4           5           6           7           8           9          10
 IAtWgt=          12          12          12          12           1          12          12           1          12          12
 AtmWgt=  12.0000000  12.0000000  12.0000000  12.0000000   1.0078250  12.0000000  12.0000000   1.0078250  12.0000000  12.0000000
 NucSpn=           0           0           0           0           1           0           0           1           0           0
 AtZEff=  -0.0000000  -0.0000000  -0.0000000  -0.0000000  -0.0000000  -0.0000000  -0.0000000  -0.0000000  -0.0000000  -0.0000000
 NQMom=    0.0000000   0.0000000   0.0000000   0.0000000   0.0000000   0.0000000   0.0000000   0.0000000   0.0000000   0.0000000
 NMagM=    0.0000000   0.0000000   0.0000000   0.0000000   2.7928460   0.0000000   0.0000000   2.7928460   0.0000000   0.0000000
 AtZNuc=   6.0000000   6.0000000   6.0000000   6.0000000   1.0000000   6.0000000   6.0000000   1.0000000   6.0000000   6.0000000

  Atom        11          12          13          14          15          16          17          18          19          20
 IAtWgt=           1          12          12          12          14           1          12          14           1          12
 AtmWgt=   1.0078250  12.0000000  12.0000000  12.0000000  14.0030740   1.0078250  12.0000000  14.0030740   1.0078250  12.0000000
 NucSpn=           1           0           0           0           2           1           0           2           1           0
 AtZEff=  -0.0000000  -0.0000000  -0.0000000  -0.0000000  -0.0000000  -0.0000000  -0.0000000  -0.0000000  -0.0000000  -0.0000000
 NQMom=    0.0000000   0.0000000   0.0000000   0.0000000   2.0440000   0.0000000   0.0000000   2.0440000   0.0000000   0.0000000
 NMagM=    2.7928460   0.0000000   0.0000000   0.0000000   0.4037610   2.7928460   0.0000000   0.4037610   2.7928460   0.0000000
 AtZNuc=   1.0000000   6.0000000   6.0000000   6.0000000   7.0000000   1.0000000   6.0000000   7.0000000   1.0000000   6.0000000

  Atom        21          22          23          24          25          26          27          28          29          30
 IAtWgt=          12          12          12          12          14           1          12          14           1          12
 AtmWgt=  12.0000000  12.0000000  12.0000000  12.0000000  14.0030740   1.0078250  12.0000000  14.0030740   1.0078250  12.0000000
 NucSpn=           0           0           0           0           2           1           0           2           1           0
 AtZEff=  -0.0000000  -0.0000000  -0.0000000  -0.0000000  -0.0000000  -0.0000000  -0.0000000  -0.0000000  -0.0000000  -0.0000000
 NQMom=    0.0000000   0.0000000   0.0000000   0.0000000   2.0440000   0.0000000   0.0000000   2.0440000   0.0000000   0.0000000
 NMagM=    0.0000000   0.0000000   0.0000000   0.0000000   0.4037610   2.7928460   0.0000000   0.4037610   2.7928460   0.0000000
 AtZNuc=   6.0000000   6.0000000   6.0000000   6.0000000   7.0000000   1.0000000   6.0000000   7.0000000   1.0000000   6.0000000

  Atom        31          32          33          34          35          36          37          38          39          40
 IAtWgt=          12          12          12          12          14           1          12          14           1          12
 AtmWgt=  12.0000000  12.0000000  12.0000000  12.0000000  14.0030740   1.0078250  12.0000000  14.0030740   1.0078250  12.0000000
 NucSpn=           0           0           0           0           2           1           0           2           1           0
 AtZEff=  -0.0000000  -0.0000000  -0.0000000  -0.0000000  -0.0000000  -0.0000000  -0.0000000  -0.0000000  -0.0000000  -0.0000000
 NQMom=    0.0000000   0.0000000   0.0000000   0.0000000   2.0440000   0.0000000   0.0000000   2.0440000   0.0000000   0.0000000
 NMagM=    0.0000000   0.0000000   0.0000000   0.0000000   0.4037610   2.7928460   0.0000000   0.4037610   2.7928460   0.0000000
 AtZNuc=   6.0000000   6.0000000   6.0000000   6.0000000   7.0000000   1.0000000   6.0000000   7.0000000   1.0000000   6.0000000

  Atom        41          42          43          44          45          46          47          48          49          50
 IAtWgt=          12          12           1           1           1           1           1           1           1           1
 AtmWgt=  12.0000000  12.0000000   1.0078250   1.0078250   1.0078250   1.0078250   1.0078250   1.0078250   1.0078250   1.0078250
 NucSpn=           0           0           1           1           1           1           1           1           1           1
 AtZEff=  -0.0000000  -0.0000000  -0.0000000  -0.0000000  -0.0000000  -0.0000000  -0.0000000  -0.0000000  -0.0000000  -0.0000000
 NQMom=    0.0000000   0.0000000   0.0000000   0.0000000   0.0000000   0.0000000   0.0000000   0.0000000   0.0000000   0.0000000
 NMagM=    0.0000000   0.0000000   2.7928460   2.7928460   2.7928460   2.7928460   2.7928460   2.7928460   2.7928460   2.7928460
 AtZNuc=   6.0000000   6.0000000   1.0000000   1.0000000   1.0000000   1.0000000   1.0000000   1.0000000   1.0000000   1.0000000

  Atom        51          52          53          54          55          56          57          58          59          60
 IAtWgt=           1           1           1           1           1           1           1           1           1           1
 AtmWgt=   1.0078250   1.0078250   1.0078250   1.0078250   1.0078250   1.0078250   1.0078250   1.0078250   1.0078250   1.0078250
 NucSpn=           1           1           1           1           1           1           1           1           1           1
 AtZEff=  -0.0000000  -0.0000000  -0.0000000  -0.0000000  -0.0000000  -0.0000000  -0.0000000  -0.0000000  -0.0000000  -0.0000000
 NQMom=    0.0000000   0.0000000   0.0000000   0.0000000   0.0000000   0.0000000   0.0000000   0.0000000   0.0000000   0.0000000
 NMagM=    2.7928460   2.7928460   2.7928460   2.7928460   2.7928460   2.7928460   2.7928460   2.7928460   2.7928460   2.7928460
 AtZNuc=   1.0000000   1.0000000   1.0000000   1.0000000   1.0000000   1.0000000   1.0000000   1.0000000   1.0000000   1.0000000

  Atom        61          62          63          64          65          66          67          68          69          70
 IAtWgt=           1           1           1           1           1           1           1           1           1           1
 AtmWgt=   1.0078250   1.0078250   1.0078250   1.0078250   1.0078250   1.0078250   1.0078250   1.0078250   1.0078250   1.0078250
 NucSpn=           1           1           1           1           1           1           1           1           1           1
 AtZEff=  -0.0000000  -0.0000000  -0.0000000  -0.0000000  -0.0000000  -0.0000000  -0.0000000  -0.0000000  -0.0000000  -0.0000000
 NQMom=    0.0000000   0.0000000   0.0000000   0.0000000   0.0000000   0.0000000   0.0000000   0.0000000   0.0000000   0.0000000
 NMagM=    2.7928460   2.7928460   2.7928460   2.7928460   2.7928460   2.7928460   2.7928460   2.7928460   2.7928460   2.7928460
 AtZNuc=   1.0000000   1.0000000   1.0000000   1.0000000   1.0000000   1.0000000   1.0000000   1.0000000   1.0000000   1.0000000

  Atom        71          72          73          74          75
 IAtWgt=           1           1           1           1           1
 AtmWgt=   1.0078250   1.0078250   1.0078250   1.0078250   1.0078250
 NucSpn=           1           1           1           1           1
 AtZEff=  -0.0000000  -0.0000000  -0.0000000  -0.0000000  -0.0000000
 NQMom=    0.0000000   0.0000000   0.0000000   0.0000000   0.0000000
 NMagM=    2.7928460   2.7928460   2.7928460   2.7928460   2.7928460
 AtZNuc=   1.0000000   1.0000000   1.0000000   1.0000000   1.0000000
 Leave Link  101 at Mon Nov  1 15:30:36 2021, MaxMem=  7864320000 cpu:               3.0 elap:               0.1
 (Enter /apps/gaussian/g16-c01-avx/g16/l202.exe)
 Stoichiometry    C27H42N6
 Framework group  C1[X(C27H42N6)]
 Deg. of freedom   219
 Full point group                 C1      NOp   1
 Largest Abelian subgroup         C1      NOp   1
 Largest concise Abelian subgroup C1      NOp   1
                         Standard orientation:                         
 ---------------------------------------------------------------------
 Center     Atomic      Atomic             Coordinates (Angstroms)
 Number     Number       Type             X           Y           Z
 ---------------------------------------------------------------------
      1          6           0        0.262562    1.683372   -1.143704
      2          6           0        0.307044    3.114013   -1.504123
      3          6           0       -0.933736    0.971667   -1.068329
      4          6           0       -0.930947   -0.376816   -0.716723
      5          1           0       -1.867743    1.462717   -1.307458
      6          6           0        0.276042   -1.014699   -0.439659
      7          6           0        1.476920   -0.319755   -0.527463
      8          1           0        0.254868   -2.058802   -0.166783
      9          6           0        1.461349    1.027653   -0.888618
     10          6           0        2.736476   -0.995927   -0.250488
     11          1           0        2.402823    1.551738   -0.951844
     12          6           0       -2.190800   -1.102827   -0.642739
     13          6           0       -2.771942    4.274432   -0.735984
     14          6           0       -1.408639    3.954674   -0.094213
     15          7           0       -3.058646    3.288952   -1.773568
     16          1           0       -2.712488    5.299012   -1.143885
     17          6           0       -3.862280    4.225228    0.332160
     18          7           0       -0.383403    4.082419   -1.090066
     19          1           0       -1.456993    2.948871    0.349441
     20          6           0       -1.119119    4.975427    1.012106
     21          6           0       -3.573155    5.219056    1.451805
     22          6           0       -2.210189    4.938180    2.075384
     23          6           0       -3.492309   -3.003905   -0.247417
     24          6           0       -3.694263   -3.503089    1.194726
     25          7           0       -2.237849   -2.320628   -0.316951
     26          1           0       -4.337442   -2.339324   -0.502201
     27          6           0       -3.449307   -4.190766   -1.215234
     28          7           0       -3.845083   -2.345910    2.066863
     29          1           0       -2.815521   -4.120622    1.455650
     30          6           0       -4.956850   -4.359102    1.284935
     31          6           0       -4.717473   -5.028250   -1.112543
     32          6           0       -4.903485   -5.532628    0.314131
     33          6           0        5.062571   -1.083709   -0.032979
     34          6           0        5.746242   -0.389031    1.158388
     35          7           0        3.842579   -0.393781   -0.317146
     36          1           0        4.884608   -2.139225    0.240689
     37          6           0        5.959148   -1.008711   -1.273084
     38          7           0        4.918968   -0.581855    2.341853
     39          1           0        5.867030    0.677058    0.892803
     40          6           0        7.121749   -1.005208    1.410350
     41          6           0        7.322592   -1.631569   -1.002119
     42          6           0        8.001378   -0.928790    0.168187
     43          1           0        3.993355   -0.197708    2.181677
     44          1           0        5.324511   -0.096465    3.134962
     45          1           0       -2.402922    3.406132   -2.540426
     46          1           0       -3.992418    3.438325   -2.142723
     47          1           0       -3.022653   -1.755145    2.000147
     48          1           0       -3.936048   -2.645119    3.031964
     49          1           0        1.087238    3.375893   -2.217308
     50          1           0        2.658868   -2.059718    0.022487
     51          1           0       -5.823576   -6.115701    0.389150
     52          1           0       -4.068916   -6.186197    0.578730
     53          1           0       -4.656847   -5.871241   -1.804024
     54          1           0       -5.579166   -4.420252   -1.397542
     55          1           0       -3.322397   -3.813036   -2.232079
     56          1           0       -2.576453   -4.799609   -0.972638
     57          1           0       -5.069286   -4.722880    2.308925
     58          1           0       -5.816054   -3.724783    1.060121
     59          1           0       -3.092891   -0.520170   -0.884905
     60          1           0        7.943935   -1.556370   -1.896884
     61          1           0        7.198363   -2.690980   -0.766400
     62          1           0        5.462561   -1.521418   -2.099693
     63          1           0        6.074026    0.040782   -1.550181
     64          1           0        8.969476   -1.390156    0.372677
     65          1           0        8.175813    0.118340   -0.090206
     66          1           0        7.599833   -0.483318    2.242550
     67          1           0        6.980378   -2.046130    1.706590
     68          1           0       -1.994674    5.677213    2.849680
     69          1           0       -2.223280    3.952394    2.546201
     70          1           0       -4.353483    5.154438    2.212654
     71          1           0       -3.582941    6.233481    1.046000
     72          1           0       -3.911629    3.211077    0.733511
     73          1           0       -4.827993    4.451323   -0.126887
     74          1           0       -1.059463    5.968519    0.563735
     75          1           0       -0.147836    4.749151    1.456299
 ---------------------------------------------------------------------
 Rotational constants (GHZ):           0.1024453           0.0655712           0.0444646
 Leave Link  202 at Mon Nov  1 15:30:36 2021, MaxMem=  7864320000 cpu:               0.7 elap:               0.1
 (Enter /apps/gaussian/g16-c01-avx/g16/l301.exe)
 Standard basis: Aug-CC-pVDZ (5D, 7F)
 Ernie: Thresh=  0.10000D-02 Tol=  0.10000D-05 Strict=F.
 Ernie:  66 primitive shells out of 1119 were deleted.
 There are  1203 symmetry adapted cartesian basis functions of A   symmetry.
 There are  1137 symmetry adapted basis functions of A   symmetry.
  1137 basis functions,  1881 primitive gaussians,  1203 cartesian basis functions
   123 alpha electrons      123 beta electrons
       nuclear repulsion energy      3292.4248295830 Hartrees.
 IExCor=    0 DFT=F Ex=HF Corr=None ExCW=0 ScaHFX=  1.000000
 ScaDFX=  1.000000  1.000000  1.000000  1.000000 ScalE2=  1.000000  1.000000
 IRadAn=      7 IRanWt=     -1 IRanGd=            0 ICorTp=0 IEmpDi=  4
 NAtoms=   75 NActive=   75 NUniq=   75 SFac= 1.00D+00 NAtFMM=   60 NAOKFM=T Big=T
 Integral buffers will be    131072 words long.
 Raffenetti 1 integral format.
 Two-electron integral symmetry is turned on.
 Leave Link  301 at Mon Nov  1 15:30:37 2021, MaxMem=  7864320000 cpu:               2.0 elap:               0.1
 (Enter /apps/gaussian/g16-c01-avx/g16/l302.exe)
 NPDir=0 NMtPBC=     1 NCelOv=     1 NCel=       1 NClECP=     1 NCelD=      1
         NCelK=      1 NCelE2=     1 NClLst=     1 CellRange=     0.0.
 One-electron integrals computed using PRISM.
 One-electron integral symmetry used in STVInt
 NBasis=  1137 RedAO= T EigKep=  1.22D-06  NBF=  1137
 NBsUse=  1132 1.00D-06 EigRej=  9.73D-07 NBFU=  1132
 Leave Link  302 at Mon Nov  1 15:30:40 2021, MaxMem=  7864320000 cpu:             100.4 elap:               3.2
 (Enter /apps/gaussian/g16-c01-avx/g16/l303.exe)
 DipDrv:  MaxL=1.
 Leave Link  303 at Mon Nov  1 15:30:40 2021, MaxMem=  7864320000 cpu:               7.9 elap:               0.3
 (Enter /apps/gaussian/g16-c01-avx/g16/l401.exe)
 ExpMin= 2.97D-02 ExpMax= 9.05D+03 ExpMxC= 3.09D+02 IAcc=3 IRadAn=         7 AccDes= 0.00D+00
 Harris functional with IExCor=  205 and IRadAn=       7 diagonalized for initial guess.
 HarFok:  IExCor=  205 AccDes= 0.00D+00 IRadAn=         7 IDoV= 1 UseB2=F ITyADJ=14
 ICtDFT=  3500011 ScaDFX=  1.000000  1.000000  1.000000  1.000000
 FoFCou: FMM=F IPFlag=           0 FMFlag=      100000 FMFlg1=        2001
         NFxFlg=           0 DoJE=T BraDBF=F KetDBF=T FulRan=T
         wScrn=  0.000000 ICntrl=       500 IOpCl=  0 I1Cent=   200000004 NGrid=           0
         NMat0=    1 NMatS0=      1 NMatT0=    0 NMatD0=    1 NMtDS0=    0 NMtDT0=    0
 Petite list used in FoFCou.
 Harris En= -1376.04338830133    
 JPrj=0 DoOrth=F DoCkMO=F.
 Leave Link  401 at Mon Nov  1 15:30:51 2021, MaxMem=  7864320000 cpu:             346.6 elap:              10.9
 (Enter /apps/gaussian/g16-c01-avx/g16/l508.exe)
 Integral symmetry usage will be decided dynamically.
 Tight linear equation convergence will be used.
 RHF wavefunction.
 Linear searches until partial convergence.
 Full line searches.
 Fock matrices will be formed incrementally for  20 cycles.
 FoFJK:  IHMeth= 1 ICntrl=       0 DoSepK=F KAlg= 0 I1Cent=           0 FoldK=F
 IRaf= 970000000 NMat=       1 IRICut=       1 DoRegI=T DoRafI=F ISym2E= 1 IDoP0=0 IntGTp=1.
 FoFCou: FMM=T IPFlag=           0 FMFlag=      100000 FMFlg1=        2001
         NFxFlg=           0 DoJE=F BraDBF=F KetDBF=F FulRan=T
         wScrn=  0.000000 ICntrl=         0 IOpCl=  0 I1Cent=           0 NGrid=           0
         NMat0=    1 NMatS0=      1 NMatT0=    0 NMatD0=    1 NMtDS0=    0 NMtDT0=    0
 Petite list used in FoFCou.
 FMM levels:  10  Number of levels for PrismC:   9
 Iteration   1 EE= -1372.32831591548                                    Grad=1.865D+00 Max rot=    2.5107 deg.
 Gradient too large for Newton-Raphson -- use scaled steepest descent instead.
 Alpha Gap=     0.466 HL deriv= 1.84D-04
     ILin= 1 X=0.000D+00 Y=-1.372328315915D+03 DE= 0.00D+00 F= -4.61D+00
 RMSU=  6.04D-03    CP:  7.76D-01
     ILin= 2 X=3.000D-01 Y=-1.373348393756D+03 DE=-1.02D+00 F= -2.18D+00 OKLS=F
 RMSU=  1.16D-03    CP:  6.53D-01  1.47D+00
     ILin= 3 X=5.000D-01 Y=-1.373619405082D+03 DE=-1.29D+00 F= -5.31D-01
 RMSU=  2.77D-03    CP:  4.74D-01  1.96D+00  3.00D+00
     ILin= 4 X=9.000D-01 Y=-1.373172189396D+03 DE=-8.44D-01 F=  2.76D+00
     An  expanding polynomial of degree  4 produced  0.5648
 RMSU=  2.10D-06    CP:  6.18D-01  1.59D+00  1.49D+00  1.22D-05
 Iteration   2 EE= -1373.63644561633     Delta-E=       -1.308129700844 Grad=6.458D-01 Max rot=    1.0431 deg.
 Gradient too large for Newton-Raphson -- use scaled steepest descent instead.
 Alpha Gap=     0.480 HL deriv= 1.03D-03
     ILin= 1 X=0.000D+00 Y=-1.373636445616D+03 DE= 0.00D+00 F= -2.39D-01
 RMSU=  1.74D-03    CP:  5.37D-01  1.69D+00  2.75D+00  5.77D-04  3.00D+00
     ILin= 2 X=4.000D-01 Y=-1.373708270269D+03 DE=-7.18D-02 F= -1.21D-01 OKLS=F
 RMSU=  3.40D-04    CP:  4.70D-01  1.73D+00  3.00D+00  5.36D-01  3.00D+00
                    CP:  1.86D+00
     ILin= 3 X=8.000D-01 Y=-1.373733053468D+03 DE=-9.66D-02 F= -3.32D-03
 RMSU=  1.05D-03    CP:  3.77D-01  1.61D+00  3.00D+00  2.16D+00  3.00D+00
                    CP:  3.00D+00  3.00D+00
     ILin= 4 X=1.600D+00 Y=-1.373642369571D+03 DE=-5.92D-03 F=  2.30D-01
     An  expanding polynomial of degree  4 produced  0.8114
     Minimum is close to point  3 DX=  1.14D-02 DF= -1.90D-05 DXR=  1.41D-02 DFR=  1.97D-04 which will be used.
 Iteration   3 EE= -1373.73305346808     Delta-E=       -0.096607851751 Grad=1.859D-01 Max rot=    0.3217 deg.
 Gradient too large for Newton-Raphson -- use scaled steepest descent instead.
 Alpha Gap=     0.472 HL deriv= 3.31D-04
     ILin= 1 X=0.000D+00 Y=-1.373733053468D+03 DE= 0.00D+00 F= -3.47D-02
 RMSU=  7.97D-04    CP:  4.44D-01  1.71D+00  3.00D+00  9.09D-01  3.00D+00
                    CP:  2.06D+00  1.64D+00 -5.74D-03
     ILin= 2 X=7.000D-01 Y=-1.373744807698D+03 DE=-1.18D-02 F=  1.06D-03 OKLS=T
     Accept linear search using points  1 and  2.
     An  expanding polynomial of degree  2 produced  0.6361
 RMSU=  3.46D-06    CP:  4.46D-01  1.71D+00  3.00D+00  8.74D-01  3.00D+00
                    CP:  2.04D+00  1.57D+00 -5.25D-03  9.11D-01
 Iteration   4 EE= -1373.74477138750     Delta-E=       -0.011717919425 Grad=7.408D-02 Max rot=    0.1395 deg.
 Gradient too large for Newton-Raphson -- use scaled steepest descent instead.
 Alpha Gap=     0.481 HL deriv= 3.17D-04
     ILin= 1 X=0.000D+00 Y=-1.373744771388D+03 DE= 0.00D+00 F= -4.50D-03
 RMSU=  1.92D-04    CP:  4.33D-01  1.69D+00  3.00D+00  1.00D+00  3.00D+00
                    CP:  2.21D+00  2.09D+00 -4.61D-03  1.08D+00 -3.00D+00
     ILin= 2 X=7.000D-01 Y=-1.373746772423D+03 DE=-2.00D-03 F= -1.22D-03 OKLS=T
     Reject lnstep IMin12=  1  2 Big=T Turn=F Min= 1.145D+00 FVal=-1.373747340084D+03 Lims=  0.00D+00  7.00D-01
 RMSU=  2.50D-05    CP:  4.21D-01  1.67D+00  3.00D+00  1.14D+00  3.00D+00
                    CP:  2.38D+00  2.66D+00 -3.86D-03  1.25D+00 -3.00D+00
                    CP:  2.01D+00
     ILin= 3 X=1.400D+00 Y=-1.373746485974D+03 DE=-1.71D-03 F=  2.04D-03
     An  expanding polynomial of degree  3 produced  0.9623
 RMSU=  7.21D-07    CP:  4.28D-01  1.69D+00  3.00D+00  1.05D+00  3.00D+00
                    CP:  2.28D+00  2.30D+00 -4.34D-03  1.14D+00 -3.00D+00
                    CP:  1.38D+00  3.15D-01
 Iteration   5 EE= -1373.74693269175     Delta-E=       -0.002161304244 Grad=2.445D-02 Max rot=    0.0951 deg.
 Gradient too large for Newton-Raphson -- use scaled steepest descent instead.
 Alpha Gap=     0.479 HL deriv= 3.11D-04
     ILin= 1 X=0.000D+00 Y=-1.373746932692D+03 DE= 0.00D+00 F= -1.12D-03
 RMSU=  6.30D-05    CP:  4.26D-01  1.68D+00  3.00D+00  1.09D+00  3.00D+00
                    CP:  2.29D+00  2.37D+00 -5.11D-03  1.35D+00 -3.00D+00
                    CP:  1.54D+00  9.19D-01  3.00D+00
     ILin= 2 X=8.000D-01 Y=-1.373747257034D+03 DE=-3.24D-04 F=  3.07D-04 OKLS=T
     Accept linear search using points  1 and  2.
     An  expanding polynomial of degree  2 produced  0.5736
 RMSU=  4.72D-07    CP:  4.27D-01  1.68D+00  3.00D+00  1.08D+00  3.00D+00
                    CP:  2.28D+00  2.35D+00 -4.89D-03  1.30D+00 -3.00D+00
                    CP:  1.49D+00  7.41D-01  2.98D+00  7.17D-01
 Iteration   6 EE= -1373.74728086710     Delta-E=       -0.000348175353 Grad=8.665D-03 Max rot=    0.0413 deg.
 SCF Done:  E(RHF) =  -1373.74728087     a.u. after    6 cycles
            Convg  =    0.8665D-02                    15 Fock formations.
              S**2 =  0.0000                  -V/T =  2.0004
 Leave Link  508 at Mon Nov  1 15:48:08 2021, MaxMem=  7864320000 cpu:           32903.9 elap:            1036.7
 (Enter /apps/gaussian/g16-c01-avx/g16/l502.exe)
 Integral symmetry usage will be decided dynamically.
 Closed shell SCF:
 Using DIIS extrapolation, IDIIS=  1040.
 NGot=  7864320000 LenX=  7861374008 LenY=  7859925596
 Requested convergence on RMS density matrix=1.00D-08 within 128 cycles.
 Requested convergence on MAX density matrix=1.00D-06.
 Requested convergence on             energy=1.00D-06.
 No special actions if energy rises.
 Fock matrices will be formed incrementally for  20 cycles.

 Cycle   1  Pass 1  IDiag  1:
 FoFJK:  IHMeth= 1 ICntrl=       0 DoSepK=F KAlg= 0 I1Cent=           0 FoldK=F
 IRaf= 970000000 NMat=       1 IRICut=       1 DoRegI=T DoRafI=F ISym2E= 0 IDoP0=0 IntGTp=1.
 FoFCou: FMM=T IPFlag=           0 FMFlag=      100000 FMFlg1=        2001
         NFxFlg=           0 DoJE=F BraDBF=F KetDBF=F FulRan=T
         wScrn=  0.000000 ICntrl=         0 IOpCl=  0 I1Cent=           0 NGrid=           0
         NMat0=    1 NMatS0=      1 NMatT0=    0 NMatD0=    1 NMtDS0=    0 NMtDT0=    0
 Symmetry not used in FoFCou.
 FMM levels:  10  Number of levels for PrismC:   9
 E= -1373.74728086774    
 DIIS: error= 1.30D-04 at cycle   1 NSaved=   1.
 NSaved= 1 IEnMin= 1 EnMin= -1373.74728086774     IErMin= 1 ErrMin= 1.30D-04
 ErrMax= 1.30D-04  0.00D+00 EMaxC= 1.00D-01 BMatC= 3.75D-05 BMatP= 3.75D-05
 IDIUse=3 WtCom= 9.99D-01 WtEn= 1.30D-03
 Coeff-Com:  0.100D+01
 Coeff-En:   0.100D+01
 Coeff:      0.100D+01
 Gap=     0.481 Goal=   None    Shift=    0.000
 RMSDP=1.86D-04 MaxDP=2.85D-02              OVMax= 2.70D-03

 Cycle   2  Pass 1  IDiag  1:
 RMSU=  1.49D-04    CP:  9.96D-01
 E= -1373.74736985502     Delta-E=       -0.000088987280 Rises=F Damp=F
 DIIS: error= 4.13D-05 at cycle   2 NSaved=   2.
 NSaved= 2 IEnMin= 2 EnMin= -1373.74736985502     IErMin= 2 ErrMin= 4.13D-05
 ErrMax= 4.13D-05  0.00D+00 EMaxC= 1.00D-01 BMatC= 5.70D-06 BMatP= 3.75D-05
 IDIUse=1 WtCom= 1.00D+00 WtEn= 0.00D+00
 Coeff-Com: -0.759D-01 0.108D+01
 Coeff:     -0.759D-01 0.108D+01
 Gap=     0.350 Goal=   None    Shift=    0.000
 RMSDP=3.84D-05 MaxDP=6.87D-03 DE=-8.90D-05 OVMax= 1.44D-03

 Cycle   3  Pass 1  IDiag  1:
 RMSU=  2.36D-05    CP:  9.96D-01  1.19D+00
 E= -1373.74738427917     Delta-E=       -0.000014424150 Rises=F Damp=F
 DIIS: error= 2.15D-05 at cycle   3 NSaved=   3.
 NSaved= 3 IEnMin= 3 EnMin= -1373.74738427917     IErMin= 3 ErrMin= 2.15D-05
 ErrMax= 2.15D-05  0.00D+00 EMaxC= 1.00D-01 BMatC= 1.98D-06 BMatP= 5.70D-06
 IDIUse=1 WtCom= 1.00D+00 WtEn= 0.00D+00
 Coeff-Com: -0.177D+00 0.359D+00 0.818D+00
 Coeff:     -0.177D+00 0.359D+00 0.818D+00
 Gap=     0.350 Goal=   None    Shift=    0.000
 RMSDP=1.44D-05 MaxDP=2.20D-03 DE=-1.44D-05 OVMax= 8.12D-04

 Cycle   4  Pass 1  IDiag  1:
 RMSU=  9.54D-06    CP:  9.96D-01  1.24D+00  1.11D+00
 E= -1373.74738847199     Delta-E=       -0.000004192822 Rises=F Damp=F
 DIIS: error= 1.11D-05 at cycle   4 NSaved=   4.
 NSaved= 4 IEnMin= 4 EnMin= -1373.74738847199     IErMin= 4 ErrMin= 1.11D-05
 ErrMax= 1.11D-05  0.00D+00 EMaxC= 1.00D-01 BMatC= 2.02D-07 BMatP= 1.98D-06
 IDIUse=1 WtCom= 1.00D+00 WtEn= 0.00D+00
 Coeff-Com:  0.439D-01-0.182D+00-0.158D+00 0.130D+01
 Coeff:      0.439D-01-0.182D+00-0.158D+00 0.130D+01
 Gap=     0.350 Goal=   None    Shift=    0.000
 RMSDP=7.23D-06 MaxDP=1.06D-03 DE=-4.19D-06 OVMax= 6.03D-04

 Cycle   5  Pass 1  IDiag  1:
 RMSU=  4.42D-06    CP:  9.96D-01  1.24D+00  1.27D+00  1.42D+00
 E= -1373.74738952127     Delta-E=       -0.000001049281 Rises=F Damp=F
 DIIS: error= 5.82D-06 at cycle   5 NSaved=   5.
 NSaved= 5 IEnMin= 5 EnMin= -1373.74738952127     IErMin= 5 ErrMin= 5.82D-06
 ErrMax= 5.82D-06  0.00D+00 EMaxC= 1.00D-01 BMatC= 6.10D-08 BMatP= 2.02D-07
 IDIUse=1 WtCom= 1.00D+00 WtEn= 0.00D+00
 Coeff-Com:  0.484D-01-0.118D+00-0.204D+00 0.298D+00 0.975D+00
 Coeff:      0.484D-01-0.118D+00-0.204D+00 0.298D+00 0.975D+00
 Gap=     0.350 Goal=   None    Shift=    0.000
 RMSDP=3.69D-06 MaxDP=3.98D-04 DE=-1.05D-06 OVMax= 3.41D-04

 Cycle   6  Pass 1  IDiag  1:
 RMSU=  1.84D-06    CP:  9.96D-01  1.24D+00  1.32D+00  1.63D+00  1.51D+00
 E= -1373.74738981685     Delta-E=       -0.000000295570 Rises=F Damp=F
 DIIS: error= 2.94D-06 at cycle   6 NSaved=   6.
 NSaved= 6 IEnMin= 6 EnMin= -1373.74738981685     IErMin= 6 ErrMin= 2.94D-06
 ErrMax= 2.94D-06  0.00D+00 EMaxC= 1.00D-01 BMatC= 1.45D-08 BMatP= 6.10D-08
 IDIUse=1 WtCom= 1.00D+00 WtEn= 0.00D+00
 Coeff-Com: -0.265D-01 0.926D-01 0.104D+00-0.569D+00-0.148D+00 0.155D+01
 Coeff:     -0.265D-01 0.926D-01 0.104D+00-0.569D+00-0.148D+00 0.155D+01
 Gap=     0.350 Goal=   None    Shift=    0.000
 RMSDP=3.36D-06 MaxDP=4.76D-04 DE=-2.96D-07 OVMax= 2.91D-04

 Cycle   7  Pass 1  IDiag  1:
 RMSU=  1.07D-06    CP:  9.96D-01  1.24D+00  1.34D+00  1.77D+00  2.09D+00
                    CP:  1.58D+00
 E= -1373.74738991658     Delta-E=       -0.000000099739 Rises=F Damp=F
 DIIS: error= 4.54D-07 at cycle   7 NSaved=   7.
 NSaved= 7 IEnMin= 7 EnMin= -1373.74738991658     IErMin= 7 ErrMin= 4.54D-07
 ErrMax= 4.54D-07  0.00D+00 EMaxC= 1.00D-01 BMatC= 6.52D-10 BMatP= 1.45D-08
 IDIUse=1 WtCom= 1.00D+00 WtEn= 0.00D+00
 Coeff-Com: -0.295D-02 0.681D-02 0.140D-01-0.229D-01-0.317D-01-0.395D-01
 Coeff-Com:  0.108D+01
 Coeff:     -0.295D-02 0.681D-02 0.140D-01-0.229D-01-0.317D-01-0.395D-01
 Coeff:      0.108D+01
 Gap=     0.350 Goal=   None    Shift=    0.000
 RMSDP=4.81D-07 MaxDP=6.91D-05 DE=-9.97D-08 OVMax= 3.60D-05

 Cycle   8  Pass 1  IDiag  1:
 RMSU=  2.26D-07    CP:  9.96D-01  1.24D+00  1.35D+00  1.79D+00  2.13D+00
                    CP:  1.64D+00  1.24D+00
 E= -1373.74738991928     Delta-E=       -0.000000002692 Rises=F Damp=F
 DIIS: error= 1.97D-07 at cycle   8 NSaved=   8.
 NSaved= 8 IEnMin= 8 EnMin= -1373.74738991928     IErMin= 8 ErrMin= 1.97D-07
 ErrMax= 1.97D-07  0.00D+00 EMaxC= 1.00D-01 BMatC= 2.07D-10 BMatP= 6.52D-10
 IDIUse=1 WtCom= 1.00D+00 WtEn= 0.00D+00
 Coeff-Com:  0.395D-02-0.151D-01-0.139D-01 0.921D-01 0.276D-01-0.308D+00
 Coeff-Com:  0.324D+00 0.889D+00
 Coeff:      0.395D-02-0.151D-01-0.139D-01 0.921D-01 0.276D-01-0.308D+00
 Coeff:      0.324D+00 0.889D+00
 Gap=     0.350 Goal=   None    Shift=    0.000
 RMSDP=2.22D-07 MaxDP=3.63D-05 DE=-2.69D-09 OVMax= 1.51D-05

 Cycle   9  Pass 1  IDiag  1:
 RMSU=  1.01D-07    CP:  9.96D-01  1.24D+00  1.36D+00  1.79D+00  2.15D+00
                    CP:  1.67D+00  1.35D+00  1.24D+00
 E= -1373.74738991983     Delta-E=       -0.000000000551 Rises=F Damp=F
 DIIS: error= 7.15D-08 at cycle   9 NSaved=   9.
 NSaved= 9 IEnMin= 9 EnMin= -1373.74738991983     IErMin= 9 ErrMin= 7.15D-08
 ErrMax= 7.15D-08  0.00D+00 EMaxC= 1.00D-01 BMatC= 2.72D-11 BMatP= 2.07D-10
 IDIUse=1 WtCom= 1.00D+00 WtEn= 0.00D+00
 Coeff-Com:  0.229D-03-0.530D-03-0.429D-03-0.281D-02 0.848D-02 0.685D-02
 Coeff-Com: -0.144D+00-0.461D-01 0.118D+01
 Coeff:      0.229D-03-0.530D-03-0.429D-03-0.281D-02 0.848D-02 0.685D-02
 Coeff:     -0.144D+00-0.461D-01 0.118D+01
 Gap=     0.350 Goal=   None    Shift=    0.000
 RMSDP=9.10D-08 MaxDP=9.85D-06 DE=-5.51D-10 OVMax= 6.13D-06

 Cycle  10  Pass 1  IDiag  1:
 RMSU=  4.35D-08    CP:  9.96D-01  1.24D+00  1.36D+00  1.79D+00  2.16D+00
                    CP:  1.68D+00  1.37D+00  1.40D+00  1.37D+00
 E= -1373.74738991996     Delta-E=       -0.000000000135 Rises=F Damp=F
 DIIS: error= 5.39D-08 at cycle  10 NSaved=  10.
 NSaved=10 IEnMin=10 EnMin= -1373.74738991996     IErMin=10 ErrMin= 5.39D-08
 ErrMax= 5.39D-08  0.00D+00 EMaxC= 1.00D-01 BMatC= 5.59D-12 BMatP= 2.72D-11
 IDIUse=1 WtCom= 1.00D+00 WtEn= 0.00D+00
 Coeff-Com: -0.857D-03 0.332D-02 0.344D-02-0.221D-01-0.235D-02 0.698D-01
 Coeff-Com: -0.920D-01-0.211D+00 0.205D+00 0.105D+01
 Coeff:     -0.857D-03 0.332D-02 0.344D-02-0.221D-01-0.235D-02 0.698D-01
 Coeff:     -0.920D-01-0.211D+00 0.205D+00 0.105D+01
 Gap=     0.350 Goal=   None    Shift=    0.000
 RMSDP=3.29D-08 MaxDP=2.69D-06 DE=-1.35D-10 OVMax= 3.44D-06

 Cycle  11  Pass 1  IDiag  1:
 RMSU=  1.87D-08    CP:  9.96D-01  1.24D+00  1.36D+00  1.79D+00  2.16D+00
                    CP:  1.68D+00  1.37D+00  1.44D+00  1.51D+00  1.35D+00
 E= -1373.74738991992     Delta-E=        0.000000000045 Rises=F Damp=F
 DIIS: error= 1.81D-08 at cycle  11 NSaved=  11.
 NSaved=11 IEnMin=10 EnMin= -1373.74738991996     IErMin=11 ErrMin= 1.81D-08
 ErrMax= 1.81D-08  0.00D+00 EMaxC= 1.00D-01 BMatC= 9.64D-13 BMatP= 5.59D-12
 IDIUse=1 WtCom= 1.00D+00 WtEn= 0.00D+00
 Coeff-Com: -0.796D-04 0.243D-03 0.285D-03-0.728D-03-0.100D-02 0.153D-02
 Coeff-Com:  0.220D-01-0.571D-02-0.211D+00 0.915D-01 0.110D+01
 Coeff:     -0.796D-04 0.243D-03 0.285D-03-0.728D-03-0.100D-02 0.153D-02
 Coeff:      0.220D-01-0.571D-02-0.211D+00 0.915D-01 0.110D+01
 Gap=     0.350 Goal=   None    Shift=    0.000
 RMSDP=1.57D-08 MaxDP=1.59D-06 DE= 4.55D-11 OVMax= 1.51D-06

 Cycle  12  Pass 1  IDiag  1:
 RMSU=  9.32D-09    CP:  9.96D-01  1.24D+00  1.36D+00  1.79D+00  2.16D+00
                    CP:  1.68D+00  1.38D+00  1.44D+00  1.54D+00  1.57D+00
                    CP:  1.21D+00
 E= -1373.74738992003     Delta-E=       -0.000000000118 Rises=F Damp=F
 DIIS: error= 9.56D-09 at cycle  12 NSaved=  12.
 NSaved=12 IEnMin=12 EnMin= -1373.74738992003     IErMin=12 ErrMin= 9.56D-09
 ErrMax= 9.56D-09  0.00D+00 EMaxC= 1.00D-01 BMatC= 1.81D-13 BMatP= 9.64D-13
 IDIUse=1 WtCom= 1.00D+00 WtEn= 0.00D+00
 Coeff-Com:  0.166D-03-0.652D-03-0.682D-03 0.449D-02 0.270D-03-0.147D-01
 Coeff-Com:  0.251D-01 0.420D-01-0.866D-01-0.181D+00 0.224D+00 0.987D+00
 Coeff:      0.166D-03-0.652D-03-0.682D-03 0.449D-02 0.270D-03-0.147D-01
 Coeff:      0.251D-01 0.420D-01-0.866D-01-0.181D+00 0.224D+00 0.987D+00
 Gap=     0.350 Goal=   None    Shift=    0.000
 RMSDP=7.12D-09 MaxDP=5.88D-07 DE=-1.18D-10 OVMax= 6.31D-07

 SCF Done:  E(RHF) =  -1373.74738992     A.U. after   12 cycles
            NFock= 12  Conv=0.71D-08     -V/T= 2.0004
 KE= 1.373240547501D+03 PE=-9.788846433529D+03 EE= 3.749433666525D+03
 Leave Link  502 at Mon Nov  1 16:00:24 2021, MaxMem=  7864320000 cpu:           23375.5 elap:             736.7
 (Enter /apps/gaussian/g16-c01-avx/g16/l508.exe)
 QCSCF skips out because SCF is already converged.
 Leave Link  508 at Mon Nov  1 16:00:25 2021, MaxMem=  7864320000 cpu:               0.1 elap:               0.0
 (Enter /apps/gaussian/g16-c01-avx/g16/l801.exe)
 ExpMin= 2.97D-02 ExpMax= 9.05D+03 ExpMxC= 3.09D+02 IAcc=3 IRadAn=         7 AccDes= 0.00D+00
 HarFok:  IExCor=  205 AccDes= 0.00D+00 IRadAn=         7 IDoV=-2 UseB2=F ITyADJ=14
 ICtDFT= 12500011 ScaDFX=  1.000000  1.000000  1.000000  1.000000
 GSVD:  LWork=       -1353 too small for GESVD, short by        5940 words or        5940 for optimal perf.
 Largest valence mixing into a core orbital is  1.14D-04
 Largest core mixing into a valence orbital is  4.21D-05
 Range of M.O.s used for correlation:    34  1132
 NBasis=  1137 NAE=   123 NBE=   123 NFC=    33 NFV=     0
 NROrb=   1099 NOA=    90 NOB=    90 NVA=  1009 NVB=  1009

 **** Warning!!: The largest alpha MO coefficient is  0.17280341D+03

 Leave Link  801 at Mon Nov  1 16:00:25 2021, MaxMem=  7864320000 cpu:              10.1 elap:               0.3
 (Enter /apps/gaussian/g16-c01-avx/g16/l906.exe)
 FulOut=F Deriv=F AODrv=F NAtomX=    75
   MMem=           2  MDisk=          90 MDiskD=          90
  W3Min=   109244430 MinDsk=   103979168 NBas6D=        1203
 NBas2D=      725745    NTT=      724206    LW2=     2000000
    MDV=  7857142668 MDiskM=       90689 NBas2p=      509388
 Disk-based method using OVN memory for 90 occupieds at a time.
 Estimated scratch disk usage=146629904652 words.
 IMap=   1   2   3   4   5   6   7   8   9  10  11  12  13  14  15  16  17  18  19  20
 IMap=  21  22  23  24  25  26  27  28  29  30  31  32  33  34  35  36  37  38  39  40
 IMap=  41  42  43  44  45  46  47  48  49  50  51  52  53  54  55  56  57  58  59  60
 IMap=  61  62  63  64  65  66  67  68  69  70  71  72  73  74  75  76  77  78  79  80
 IMap=  81  82  83  84  85  86  87  88  89  90
 Actual    scratch disk usage=138778970328 words.
 JobTyp=1 Pass  1:  I=   1 to  90 NPSUse= 32 ParTrn=T ParDer=T DoDerP=F.
 Spin components of T(2) and E(2):
     alpha-alpha T2 =       0.2293458371D+00 E2=     -0.6295266169D+00
     alpha-beta  T2 =       0.1244491248D+01 E2=     -0.3645731082D+01
     beta-beta   T2 =       0.2293458371D+00 E2=     -0.6295266169D+00
 The integrals were generated   1 times.
 ANorm=    0.1644135919D+01
 E2 =    -0.4904784316D+01 EUMP2 =    -0.13786521742361D+04
 Leave Link  906 at Mon Nov  1 18:27:43 2021, MaxMem=  7864320000 cpu:          278072.5 elap:            8837.9
 (Enter /apps/gaussian/g16-c01-avx/g16/l601.exe)
 Copying SCF densities to generalized density rwf, IOpCl= 0 IROHF=0.

 **********************************************************************

            Population analysis using the SCF Density.

 **********************************************************************

 Orbital symmetries:
       Occupied  (A) (A) (A) (A) (A) (A) (A) (A) (A) (A) (A) (A)
                 (A) (A) (A) (A) (A) (A) (A) (A) (A) (A) (A) (A)
                 (A) (A) (A) (A) (A) (A) (A) (A) (A) (A) (A) (A)
                 (A) (A) (A) (A) (A) (A) (A) (A) (A) (A) (A) (A)
                 (A) (A) (A) (A) (A) (A) (A) (A) (A) (A) (A) (A)
                 (A) (A) (A) (A) (A) (A) (A) (A) (A) (A) (A) (A)
                 (A) (A) (A) (A) (A) (A) (A) (A) (A) (A) (A) (A)
                 (A) (A) (A) (A) (A) (A) (A) (A) (A) (A) (A) (A)
                 (A) (A) (A) (A) (A) (A) (A) (A) (A) (A) (A) (A)
                 (A) (A) (A) (A) (A) (A) (A) (A) (A) (A) (A) (A)
                 (A) (A) (A)
       Virtual   (A) (A) (A) (A) (A) (A) (A) (A) (A) (A) (A) (A)
                 (A) (A) (A) (A) (A) (A) (A) (A) (A) (A) (A) (A)
                 (A) (A) (A) (A) (A) (A) (A) (A) (A) (A) (A) (A)
                 (A) (A) (A) (A) (A) (A) (A) (A) (A) (A) (A) (A)
                 (A) (A) (A) (A) (A) (A) (A) (A) (A) (A) (A) (A)
                 (A) (A) (A) (A) (A) (A) (A) (A) (A) (A) (A) (A)
                 (A) (A) (A) (A) (A) (A) (A) (A) (A) (A) (A) (A)
                 (A) (A) (A) (A) (A) (A) (A) (A) (A) (A) (A) (A)
                 (A) (A) (A) (A) (A) (A) (A) (A) (A) (A) (A) (A)
                 (A) (A) (A) (A) (A) (A) (A) (A) (A) (A) (A) (A)
                 (A) (A) (A) (A) (A) (A) (A) (A) (A) (A) (A) (A)
                 (A) (A) (A) (A) (A) (A) (A) (A) (A) (A) (A) (A)
                 (A) (A) (A) (A) (A) (A) (A) (A) (A) (A) (A) (A)
                 (A) (A) (A) (A) (A) (A) (A) (A) (A) (A) (A) (A)
                 (A) (A) (A) (A) (A) (A) (A) (A) (A) (A) (A) (A)
                 (A) (A) (A) (A) (A) (A) (A) (A) (A) (A) (A) (A)
                 (A) (A) (A) (A) (A) (A) (A) (A) (A) (A) (A) (A)
                 (A) (A) (A) (A) (A) (A) (A) (A) (A) (A) (A) (A)
                 (A) (A) (A) (A) (A) (A) (A) (A) (A) (A) (A) (A)
                 (A) (A) (A) (A) (A) (A) (A) (A) (A) (A) (A) (A)
                 (A) (A) (A) (A) (A) (A) (A) (A) (A) (A) (A) (A)
                 (A) (A) (A) (A) (A) (A) (A) (A) (A) (A) (A) (A)
                 (A) (A) (A) (A) (A) (A) (A) (A) (A) (A) (A) (A)
                 (A) (A) (A) (A) (A) (A) (A) (A) (A) (A) (A) (A)
                 (A) (A) (A) (A) (A) (A) (A) (A) (A) (A) (A) (A)
                 (A) (A) (A) (A) (A) (A) (A) (A) (A) (A) (A) (A)
                 (A) (A) (A) (A) (A) (A) (A) (A) (A) (A) (A) (A)
                 (A) (A) (A) (A) (A) (A) (A) (A) (A) (A) (A) (A)
                 (A) (A) (A) (A) (A) (A) (A) (A) (A) (A) (A) (A)
                 (A) (A) (A) (A) (A) (A) (A) (A) (A) (A) (A) (A)
                 (A) (A) (A) (A) (A) (A) (A) (A) (A) (A) (A) (A)
                 (A) (A) (A) (A) (A) (A) (A) (A) (A) (A) (A) (A)
                 (A) (A) (A) (A) (A) (A) (A) (A) (A) (A) (A) (A)
                 (A) (A) (A) (A) (A) (A) (A) (A) (A) (A) (A) (A)
                 (A) (A) (A) (A) (A) (A) (A) (A) (A) (A) (A) (A)
                 (A) (A) (A) (A) (A) (A) (A) (A) (A) (A) (A) (A)
                 (A) (A) (A) (A) (A) (A) (A) (A) (A) (A) (A) (A)
                 (A) (A) (A) (A) (A) (A) (A) (A) (A) (A) (A) (A)
                 (A) (A) (A) (A) (A) (A) (A) (A) (A) (A) (A) (A)
                 (A) (A) (A) (A) (A) (A) (A) (A) (A) (A) (A) (A)
                 (A) (A) (A) (A) (A) (A) (A) (A) (A) (A) (A) (A)
                 (A) (A) (A) (A) (A) (A) (A) (A) (A) (A) (A) (A)
                 (A) (A) (A) (A) (A) (A) (A) (A) (A) (A) (A) (A)
                 (A) (A) (A) (A) (A) (A) (A) (A) (A) (A) (A) (A)
                 (A) (A) (A) (A) (A) (A) (A) (A) (A) (A) (A) (A)
                 (A) (A) (A) (A) (A) (A) (A) (A) (A) (A) (A) (A)
                 (A) (A) (A) (A) (A) (A) (A) (A) (A) (A) (A) (A)
                 (A) (A) (A) (A) (A) (A) (A) (A) (A) (A) (A) (A)
                 (A) (A) (A) (A) (A) (A) (A) (A) (A) (A) (A) (A)
                 (A) (A) (A) (A) (A) (A) (A) (A) (A) (A) (A) (A)
                 (A) (A) (A) (A) (A) (A) (A) (A) (A) (A) (A) (A)
                 (A) (A) (A) (A) (A) (A) (A) (A) (A) (A) (A) (A)
                 (A) (A) (A) (A) (A) (A) (A) (A) (A) (A) (A) (A)
                 (A) (A) (A) (A) (A) (A) (A) (A) (A) (A) (A) (A)
                 (A) (A) (A) (A) (A) (A) (A) (A) (A) (A) (A) (A)
                 (A) (A) (A) (A) (A) (A) (A) (A) (A) (A) (A) (A)
                 (A) (A) (A) (A) (A) (A) (A) (A) (A) (A) (A) (A)
                 (A) (A) (A) (A) (A) (A) (A) (A) (A) (A) (A) (A)
                 (A) (A) (A) (A) (A) (A) (A) (A) (A) (A) (A) (A)
                 (A) (A) (A) (A) (A) (A) (A) (A) (A) (A) (A) (A)
                 (A) (A) (A) (A) (A) (A) (A) (A) (A) (A) (A) (A)
                 (A) (A) (A) (A) (A) (A) (A) (A) (A) (A) (A) (A)
                 (A) (A) (A) (A) (A) (A) (A) (A) (A) (A) (A) (A)
                 (A) (A) (A) (A) (A) (A) (A) (A) (A) (A) (A) (A)
                 (A) (A) (A) (A) (A) (A) (A) (A) (A) (A) (A) (A)
                 (A) (A) (A) (A) (A) (A) (A) (A) (A) (A) (A) (A)
                 (A) (A) (A) (A) (A) (A) (A) (A) (A) (A) (A) (A)
                 (A) (A) (A) (A) (A) (A) (A) (A) (A) (A) (A) (A)
                 (A) (A) (A) (A) (A) (A) (A) (A) (A) (A) (A) (A)
                 (A) (A) (A) (A) (A) (A) (A) (A) (A) (A) (A) (A)
                 (A) (A) (A) (A) (A) (A) (A) (A) (A) (A) (A) (A)
                 (A) (A) (A) (A) (A) (A) (A) (A) (A) (A) (A) (A)
                 (A) (A) (A) (A) (A) (A) (A) (A) (A) (A) (A) (A)
                 (A) (A) (A) (A) (A) (A) (A) (A) (A) (A) (A) (A)
                 (A) (A) (A) (A) (A) (A) (A) (A) (A) (A) (A) (A)
                 (A) (A) (A) (A) (A) (A) (A) (A) (A) (A) (A) (A)
                 (A) (A) (A) (A) (A) (A) (A) (A) (A) (A) (A) (A)
                 (A) (A) (A) (A) (A) (A) (A) (A) (A) (A) (A) (A)
                 (A) (A) (A) (A) (A) (A) (A) (A) (A) (A) (A) (A)
                 (A) (A) (A) (A) (A) (A) (A) (A) (A) (A) (A) (A)
                 (A) (A) (A) (A) (A) (A) (A) (A) (A) (A) (A) (A)
                 (A) (A) (A) (A) (A) (A) (A) (A) (A) (A) (A) (A)
                 (A) (A) (A) (A) (A) (A) (A) (A) (A) (A) (A) (A)
                 (A) (A) (A) (A) (A) (A) (A) (A) (A) (A) (A) (A)
                 (A)
 The electronic state is 1-A.
 Alpha  occ. eigenvalues --  -15.55984 -15.55955 -15.55835 -15.55005 -15.54006
 Alpha  occ. eigenvalues --  -15.53996 -11.28506 -11.28355 -11.28278 -11.25592
 Alpha  occ. eigenvalues --  -11.25145 -11.25104 -11.25100 -11.25054 -11.24993
 Alpha  occ. eigenvalues --  -11.24983 -11.24944 -11.24892 -11.24765 -11.24666
 Alpha  occ. eigenvalues --  -11.24540 -11.22186 -11.22096 -11.21918 -11.21871
 Alpha  occ. eigenvalues --  -11.21865 -11.21811 -11.21803 -11.21726 -11.21710
 Alpha  occ. eigenvalues --  -11.21641 -11.21601 -11.21596  -1.25444  -1.25152
 Alpha  occ. eigenvalues --   -1.24903  -1.19015  -1.18473  -1.18108  -1.16323
 Alpha  occ. eigenvalues --   -1.10223  -1.10008  -1.09724  -1.05664  -1.05378
 Alpha  occ. eigenvalues --   -1.00680  -0.99979  -0.99626  -0.97986  -0.97517
 Alpha  occ. eigenvalues --   -0.97289  -0.88954  -0.88736  -0.87160  -0.83812
 Alpha  occ. eigenvalues --   -0.82897  -0.82268  -0.81831  -0.81363  -0.79893
 Alpha  occ. eigenvalues --   -0.76746  -0.76075  -0.75874  -0.74820  -0.73811
 Alpha  occ. eigenvalues --   -0.69792  -0.68836  -0.66948  -0.66347  -0.66128
 Alpha  occ. eigenvalues --   -0.65191  -0.65033  -0.64799  -0.64329  -0.64136
 Alpha  occ. eigenvalues --   -0.63951  -0.62181  -0.61710  -0.61522  -0.61430
 Alpha  occ. eigenvalues --   -0.61155  -0.60708  -0.59604  -0.59138  -0.59017
 Alpha  occ. eigenvalues --   -0.55807  -0.55474  -0.55341  -0.54354  -0.53386
 Alpha  occ. eigenvalues --   -0.52984  -0.52956  -0.52821  -0.52663  -0.52594
 Alpha  occ. eigenvalues --   -0.51913  -0.51227  -0.50513  -0.50076  -0.49784
 Alpha  occ. eigenvalues --   -0.49047  -0.48771  -0.48599  -0.47038  -0.46608
 Alpha  occ. eigenvalues --   -0.46457  -0.46273  -0.46237  -0.45318  -0.43868
 Alpha  occ. eigenvalues --   -0.43635  -0.43476  -0.42522  -0.42108  -0.40805
 Alpha  occ. eigenvalues --   -0.40289  -0.40100  -0.39055  -0.38637  -0.38384
 Alpha  occ. eigenvalues --   -0.38044  -0.32714  -0.31841
 Alpha virt. eigenvalues --    0.03139   0.03419   0.03542   0.03660   0.04036
 Alpha virt. eigenvalues --    0.04128   0.04354   0.04381   0.04536   0.05058
 Alpha virt. eigenvalues --    0.05336   0.05507   0.05688   0.05872   0.05900
 Alpha virt. eigenvalues --    0.06073   0.06457   0.06764   0.06920   0.07020
 Alpha virt. eigenvalues --    0.07304   0.07394   0.07554   0.07696   0.07956
 Alpha virt. eigenvalues --    0.08164   0.08481   0.08611   0.08716   0.08981
 Alpha virt. eigenvalues --    0.09121   0.09287   0.09805   0.09960   0.10036
 Alpha virt. eigenvalues --    0.10359   0.10559   0.10736   0.11505   0.11721
 Alpha virt. eigenvalues --    0.11983   0.12315   0.12545   0.13084   0.13423
 Alpha virt. eigenvalues --    0.13658   0.13773   0.13896   0.14125   0.14338
 Alpha virt. eigenvalues --    0.14362   0.14691   0.14724   0.14893   0.15171
 Alpha virt. eigenvalues --    0.15212   0.15302   0.15457   0.15503   0.15659
 Alpha virt. eigenvalues --    0.15795   0.15928   0.16058   0.16170   0.16248
 Alpha virt. eigenvalues --    0.16366   0.16685   0.17018   0.17079   0.17206
 Alpha virt. eigenvalues --    0.17369   0.17556   0.17826   0.17911   0.18331
 Alpha virt. eigenvalues --    0.18509   0.18671   0.18857   0.18909   0.19194
 Alpha virt. eigenvalues --    0.19386   0.19563   0.19605   0.19797   0.19853
 Alpha virt. eigenvalues --    0.19941   0.20229   0.20275   0.20444   0.20755
 Alpha virt. eigenvalues --    0.20897   0.21201   0.21348   0.21487   0.21558
 Alpha virt. eigenvalues --    0.21776   0.22050   0.22163   0.22342   0.22447
 Alpha virt. eigenvalues --    0.22590   0.22700   0.22818   0.23097   0.23299
 Alpha virt. eigenvalues --    0.23409   0.23499   0.23645   0.23796   0.24071
 Alpha virt. eigenvalues --    0.24214   0.24664   0.24796   0.24933   0.25169
 Alpha virt. eigenvalues --    0.25395   0.25722   0.25920   0.26006   0.26245
 Alpha virt. eigenvalues --    0.26329   0.26791   0.26863   0.27037   0.27333
 Alpha virt. eigenvalues --    0.27620   0.27894   0.27954   0.28151   0.28824
 Alpha virt. eigenvalues --    0.29189   0.29442   0.29701   0.29862   0.30107
 Alpha virt. eigenvalues --    0.30363   0.30562   0.30768   0.30792   0.30852
 Alpha virt. eigenvalues --    0.31245   0.31489   0.31669   0.32025   0.32357
 Alpha virt. eigenvalues --    0.32584   0.32883   0.33032   0.33283   0.33424
 Alpha virt. eigenvalues --    0.33495   0.33790   0.34066   0.34241   0.34405
 Alpha virt. eigenvalues --    0.34755   0.35125   0.35268   0.35506   0.35635
 Alpha virt. eigenvalues --    0.36003   0.36106   0.36416   0.36707   0.36818
 Alpha virt. eigenvalues --    0.37112   0.37166   0.37425   0.37506   0.37633
 Alpha virt. eigenvalues --    0.37856   0.37899   0.38184   0.38290   0.38502
 Alpha virt. eigenvalues --    0.38543   0.38983   0.39167   0.39400   0.39699
 Alpha virt. eigenvalues --    0.39792   0.39815   0.39979   0.40052   0.40101
 Alpha virt. eigenvalues --    0.40338   0.40588   0.40949   0.40993   0.41213
 Alpha virt. eigenvalues --    0.41434   0.41518   0.42041   0.42119   0.42277
 Alpha virt. eigenvalues --    0.42531   0.42645   0.42699   0.42990   0.43225
 Alpha virt. eigenvalues --    0.43424   0.43686   0.44043   0.44141   0.44357
 Alpha virt. eigenvalues --    0.44372   0.44509   0.44519   0.44866   0.45113
 Alpha virt. eigenvalues --    0.45226   0.45591   0.45626   0.45738   0.46041
 Alpha virt. eigenvalues --    0.46082   0.46204   0.46577   0.46794   0.47133
 Alpha virt. eigenvalues --    0.47212   0.47502   0.47531   0.47649   0.47700
 Alpha virt. eigenvalues --    0.47931   0.48136   0.48389   0.48651   0.48795
 Alpha virt. eigenvalues --    0.48868   0.49182   0.49467   0.49861   0.49889
 Alpha virt. eigenvalues --    0.49923   0.50120   0.50404   0.50540   0.50764
 Alpha virt. eigenvalues --    0.50974   0.51199   0.51550   0.51701   0.51833
 Alpha virt. eigenvalues --    0.51924   0.52081   0.52366   0.52522   0.52707
 Alpha virt. eigenvalues --    0.52986   0.53193   0.53480   0.53680   0.53789
 Alpha virt. eigenvalues --    0.54104   0.54425   0.54489   0.54873   0.55145
 Alpha virt. eigenvalues --    0.55550   0.55588   0.55707   0.55892   0.56057
 Alpha virt. eigenvalues --    0.56343   0.56470   0.56707   0.56848   0.57176
 Alpha virt. eigenvalues --    0.57304   0.57434   0.57702   0.57884   0.58035
 Alpha virt. eigenvalues --    0.58325   0.58492   0.58733   0.59056   0.59183
 Alpha virt. eigenvalues --    0.59310   0.59518   0.59699   0.60138   0.60181
 Alpha virt. eigenvalues --    0.60218   0.60471   0.60634   0.61053   0.61243
 Alpha virt. eigenvalues --    0.61428   0.61532   0.61632   0.61925   0.62146
 Alpha virt. eigenvalues --    0.62285   0.62385   0.62450   0.62839   0.63178
 Alpha virt. eigenvalues --    0.63406   0.63610   0.63808   0.64218   0.64281
 Alpha virt. eigenvalues --    0.64465   0.64785   0.64986   0.65097   0.65381
 Alpha virt. eigenvalues --    0.65614   0.65916   0.66397   0.66598   0.66742
 Alpha virt. eigenvalues --    0.66893   0.67180   0.67378   0.67606   0.67837
 Alpha virt. eigenvalues --    0.67925   0.68151   0.68438   0.68843   0.69147
 Alpha virt. eigenvalues --    0.69485   0.69694   0.69857   0.70156   0.70309
 Alpha virt. eigenvalues --    0.70528   0.70611   0.70840   0.71014   0.71245
 Alpha virt. eigenvalues --    0.71669   0.71786   0.71814   0.71993   0.72121
 Alpha virt. eigenvalues --    0.72319   0.72470   0.72773   0.72893   0.73106
 Alpha virt. eigenvalues --    0.73511   0.73592   0.74187   0.74384   0.74413
 Alpha virt. eigenvalues --    0.74932   0.75212   0.75368   0.75448   0.75598
 Alpha virt. eigenvalues --    0.75741   0.76059   0.76185   0.76492   0.76656
 Alpha virt. eigenvalues --    0.76946   0.76974   0.77198   0.77488   0.77645
 Alpha virt. eigenvalues --    0.78047   0.78390   0.78801   0.78876   0.78927
 Alpha virt. eigenvalues --    0.79164   0.79392   0.79574   0.79815   0.79951
 Alpha virt. eigenvalues --    0.80164   0.80292   0.80564   0.80837   0.80895
 Alpha virt. eigenvalues --    0.81207   0.81340   0.81546   0.81929   0.81993
 Alpha virt. eigenvalues --    0.82217   0.82337   0.82626   0.82749   0.82995
 Alpha virt. eigenvalues --    0.83327   0.83374   0.83752   0.84161   0.84396
 Alpha virt. eigenvalues --    0.84432   0.84542   0.84783   0.85129   0.85247
 Alpha virt. eigenvalues --    0.85660   0.85930   0.86095   0.86494   0.86647
 Alpha virt. eigenvalues --    0.87017   0.87251   0.87345   0.87406   0.87508
 Alpha virt. eigenvalues --    0.87956   0.88000   0.88084   0.88186   0.88442
 Alpha virt. eigenvalues --    0.88647   0.88994   0.89136   0.89336   0.89574
 Alpha virt. eigenvalues --    0.89788   0.90043   0.90106   0.90555   0.90746
 Alpha virt. eigenvalues --    0.91224   0.91424   0.91529   0.91953   0.92168
 Alpha virt. eigenvalues --    0.92399   0.92566   0.92702   0.92796   0.93005
 Alpha virt. eigenvalues --    0.93383   0.93457   0.93825   0.94020   0.94334
 Alpha virt. eigenvalues --    0.94438   0.94705   0.94897   0.95200   0.95432
 Alpha virt. eigenvalues --    0.95960   0.96158   0.96489   0.96694   0.96898
 Alpha virt. eigenvalues --    0.97259   0.97438   0.97676   0.97937   0.98300
 Alpha virt. eigenvalues --    0.98763   0.99050   0.99079   0.99358   0.99730
 Alpha virt. eigenvalues --    0.99864   1.00032   1.00150   1.00708   1.00876
 Alpha virt. eigenvalues --    1.01188   1.01570   1.01662   1.01960   1.02173
 Alpha virt. eigenvalues --    1.02445   1.02772   1.03085   1.03238   1.03503
 Alpha virt. eigenvalues --    1.03659   1.03875   1.03964   1.04123   1.04461
 Alpha virt. eigenvalues --    1.04937   1.05056   1.05224   1.05460   1.05515
 Alpha virt. eigenvalues --    1.05618   1.06062   1.06354   1.07243   1.07322
 Alpha virt. eigenvalues --    1.07898   1.08248   1.08463   1.08687   1.08810
 Alpha virt. eigenvalues --    1.09147   1.09435   1.09692   1.10061   1.10157
 Alpha virt. eigenvalues --    1.10344   1.10594   1.10861   1.11385   1.11657
 Alpha virt. eigenvalues --    1.12211   1.12430   1.12609   1.13106   1.13674
 Alpha virt. eigenvalues --    1.13828   1.14486   1.14900   1.15290   1.15442
 Alpha virt. eigenvalues --    1.16365   1.16699   1.17004   1.17217   1.17690
 Alpha virt. eigenvalues --    1.17984   1.18264   1.18532   1.18984   1.19550
 Alpha virt. eigenvalues --    1.19756   1.20430   1.21164   1.21509   1.22183
 Alpha virt. eigenvalues --    1.22437   1.22691   1.22928   1.23873   1.24402
 Alpha virt. eigenvalues --    1.25115   1.25138   1.25425   1.26181   1.26715
 Alpha virt. eigenvalues --    1.27209   1.27785   1.28346   1.28782   1.29847
 Alpha virt. eigenvalues --    1.30064   1.30290   1.30397   1.31077   1.31706
 Alpha virt. eigenvalues --    1.31965   1.32521   1.32851   1.34210   1.34359
 Alpha virt. eigenvalues --    1.35153   1.35438   1.36507   1.36684   1.37706
 Alpha virt. eigenvalues --    1.37867   1.38538   1.38748   1.39050   1.39394
 Alpha virt. eigenvalues --    1.40169   1.40207   1.40574   1.41258   1.41565
 Alpha virt. eigenvalues --    1.42856   1.43336   1.43582   1.44376   1.45588
 Alpha virt. eigenvalues --    1.46151   1.46426   1.46922   1.47286   1.47725
 Alpha virt. eigenvalues --    1.47850   1.48508   1.48607   1.49150   1.49371
 Alpha virt. eigenvalues --    1.50008   1.50406   1.50562   1.51181   1.51391
 Alpha virt. eigenvalues --    1.51965   1.53055   1.53111   1.53811   1.54313
 Alpha virt. eigenvalues --    1.54484   1.54765   1.55605   1.55653   1.56375
 Alpha virt. eigenvalues --    1.56767   1.57539   1.58026   1.58610   1.59019
 Alpha virt. eigenvalues --    1.59630   1.60884   1.61198   1.62394   1.62428
 Alpha virt. eigenvalues --    1.63008   1.63824   1.64444   1.65116   1.65657
 Alpha virt. eigenvalues --    1.65932   1.66548   1.66601   1.67174   1.67257
 Alpha virt. eigenvalues --    1.67370   1.67674   1.68694   1.69892   1.70305
 Alpha virt. eigenvalues --    1.70607   1.70694   1.70941   1.72166   1.72790
 Alpha virt. eigenvalues --    1.72855   1.73414   1.73805   1.74553   1.74642
 Alpha virt. eigenvalues --    1.74895   1.75279   1.75457   1.76338   1.76643
 Alpha virt. eigenvalues --    1.76827   1.77250   1.77898   1.78053   1.79041
 Alpha virt. eigenvalues --    1.79270   1.79663   1.79936   1.80532   1.80756
 Alpha virt. eigenvalues --    1.81325   1.81493   1.81897   1.82572   1.82899
 Alpha virt. eigenvalues --    1.83143   1.83417   1.84091   1.85129   1.85429
 Alpha virt. eigenvalues --    1.85673   1.86369   1.86736   1.86875   1.87590
 Alpha virt. eigenvalues --    1.88084   1.88749   1.89035   1.89369   1.89613
 Alpha virt. eigenvalues --    1.90222   1.90382   1.90540   1.91086   1.91175
 Alpha virt. eigenvalues --    1.91278   1.91609   1.91881   1.92200   1.92326
 Alpha virt. eigenvalues --    1.92988   1.93474   1.93652   1.94049   1.94719
 Alpha virt. eigenvalues --    1.94751   1.95152   1.95284   1.95698   1.95992
 Alpha virt. eigenvalues --    1.96801   1.97018   1.97472   1.97866   1.98646
 Alpha virt. eigenvalues --    1.98885   1.99629   2.00610   2.01094   2.01749
 Alpha virt. eigenvalues --    2.02432   2.02933   2.03398   2.04012   2.04427
 Alpha virt. eigenvalues --    2.04702   2.05572   2.06082   2.06740   2.07274
 Alpha virt. eigenvalues --    2.07896   2.08160   2.08325   2.09040   2.09278
 Alpha virt. eigenvalues --    2.09692   2.09891   2.09914   2.10501   2.10562
 Alpha virt. eigenvalues --    2.11025   2.11122   2.11486   2.11933   2.12381
 Alpha virt. eigenvalues --    2.12652   2.13071   2.13500   2.13838   2.14129
 Alpha virt. eigenvalues --    2.14154   2.15379   2.15626   2.15905   2.16128
 Alpha virt. eigenvalues --    2.16802   2.17871   2.18457   2.18806   2.18961
 Alpha virt. eigenvalues --    2.19120   2.19389   2.19595   2.20459   2.21109
 Alpha virt. eigenvalues --    2.21440   2.21605   2.21739   2.22270   2.22406
 Alpha virt. eigenvalues --    2.22640   2.22794   2.23158   2.23515   2.23828
 Alpha virt. eigenvalues --    2.24075   2.24243   2.24426   2.24672   2.25615
 Alpha virt. eigenvalues --    2.25759   2.25961   2.26386   2.26749   2.27088
 Alpha virt. eigenvalues --    2.27518   2.27549   2.28348   2.28501   2.28809
 Alpha virt. eigenvalues --    2.29600   2.29910   2.31138   2.31470   2.31669
 Alpha virt. eigenvalues --    2.31921   2.32362   2.33059   2.33344   2.33819
 Alpha virt. eigenvalues --    2.34278   2.34510   2.35073   2.35418   2.36247
 Alpha virt. eigenvalues --    2.36588   2.37008   2.37264   2.37469   2.38069
 Alpha virt. eigenvalues --    2.38079   2.38700   2.39062   2.39405   2.39605
 Alpha virt. eigenvalues --    2.39897   2.40233   2.40952   2.41371   2.41639
 Alpha virt. eigenvalues --    2.42006   2.42250   2.43306   2.43849   2.43932
 Alpha virt. eigenvalues --    2.44370   2.45108   2.45447   2.45717   2.45908
 Alpha virt. eigenvalues --    2.46874   2.47155   2.47341   2.48007   2.48115
 Alpha virt. eigenvalues --    2.48429   2.48973   2.49636   2.49814   2.50168
 Alpha virt. eigenvalues --    2.50912   2.51194   2.51384   2.51659   2.52687
 Alpha virt. eigenvalues --    2.52965   2.53375   2.53669   2.54242   2.54799
 Alpha virt. eigenvalues --    2.55495   2.55819   2.56010   2.56912   2.57162
 Alpha virt. eigenvalues --    2.57327   2.57692   2.58191   2.58890   2.59088
 Alpha virt. eigenvalues --    2.59376   2.60051   2.60519   2.61046   2.61403
 Alpha virt. eigenvalues --    2.61980   2.62535   2.62751   2.63002   2.63381
 Alpha virt. eigenvalues --    2.63913   2.64051   2.64478   2.64805   2.65081
 Alpha virt. eigenvalues --    2.65150   2.65668   2.66588   2.67164   2.67319
 Alpha virt. eigenvalues --    2.67983   2.68388   2.68609   2.69063   2.70377
 Alpha virt. eigenvalues --    2.70536   2.71074   2.71178   2.71537   2.72372
 Alpha virt. eigenvalues --    2.72869   2.73042   2.73668   2.73878   2.74442
 Alpha virt. eigenvalues --    2.74584   2.75132   2.75440   2.76578   2.76918
 Alpha virt. eigenvalues --    2.77328   2.77909   2.78660   2.79313   2.80394
 Alpha virt. eigenvalues --    2.81144   2.81736   2.81844   2.82557   2.83663
 Alpha virt. eigenvalues --    2.83823   2.84686   2.85131   2.86120   2.86304
 Alpha virt. eigenvalues --    2.87527   2.88029   2.88663   2.89191   2.89761
 Alpha virt. eigenvalues --    2.90027   2.90290   2.90887   2.91179   2.91414
 Alpha virt. eigenvalues --    2.92578   2.93010   2.93478   2.93805   2.93877
 Alpha virt. eigenvalues --    2.94649   2.95498   2.95809   2.96156   2.97112
 Alpha virt. eigenvalues --    2.97179   2.97478   2.98252   2.98834   2.99742
 Alpha virt. eigenvalues --    3.00344   3.00616   3.01129   3.02652   3.02867
 Alpha virt. eigenvalues --    3.03184   3.04477   3.05361   3.05980   3.06351
 Alpha virt. eigenvalues --    3.07281   3.07693   3.08148   3.08585   3.09127
 Alpha virt. eigenvalues --    3.09256   3.09444   3.09851   3.11070   3.11776
 Alpha virt. eigenvalues --    3.12485   3.13123   3.14332   3.14493   3.15152
 Alpha virt. eigenvalues --    3.18230   3.18350   3.18818   3.19705   3.20246
 Alpha virt. eigenvalues --    3.20686   3.21661   3.23937   3.24599   3.24717
 Alpha virt. eigenvalues --    3.25305   3.27037   3.27385   3.27799   3.28059
 Alpha virt. eigenvalues --    3.29169   3.29880   3.30510   3.30856   3.31809
 Alpha virt. eigenvalues --    3.33446   3.33788   3.38972   3.41475   3.43973
 Alpha virt. eigenvalues --    3.46702   3.47261   3.47931   3.48107   3.49432
 Alpha virt. eigenvalues --    3.51002   3.52661   3.53014   3.55888   3.56358
 Alpha virt. eigenvalues --    3.56970   3.57078   3.66928   3.67086   3.68221
 Alpha virt. eigenvalues --    3.69720   3.71127   3.75846   3.78705   3.79761
 Alpha virt. eigenvalues --    3.80767   3.86461   3.88336   3.90172   3.92872
 Alpha virt. eigenvalues --    3.95019   3.97126   4.01031   4.04405   4.16005
 Alpha virt. eigenvalues --    4.30984   4.35021   4.36468   4.42723   4.46910
 Alpha virt. eigenvalues --    4.60741   4.63839   4.76151   5.11390
          Condensed to atoms (all electrons):
 Mulliken charges:
               1
     1  C    0.368722
     2  C    0.287589
     3  C    1.166145
     4  C    0.097592
     5  H   -0.642331
     6  C    0.730171
     7  C    0.844203
     8  H   -0.852808
     9  C   -0.379841
    10  C    0.070353
    11  H   -0.835998
    12  C    0.562586
    13  C    0.217788
    14  C   -0.258245
    15  N   -0.415839
    16  H   -0.223148
    17  C    0.573331
    18  N   -0.326556
    19  H   -0.342778
    20  C    0.664300
    21  C    0.366553
    22  C    0.516826
    23  C   -0.594922
    24  C    0.542629
    25  N   -0.247854
    26  H   -0.326780
    27  C    0.851581
    28  N   -0.333980
    29  H   -0.198441
    30  C    0.640617
    31  C    0.585930
    32  C    0.486043
    33  C   -0.551461
    34  C    0.532388
    35  N   -0.202847
    36  H   -0.312498
    37  C    0.802708
    38  N   -0.352651
    39  H   -0.204008
    40  C    0.635444
    41  C    0.589827
    42  C    0.483484
    43  H   -0.016399
    44  H   -0.033070
    45  H    0.076615
    46  H   -0.035844
    47  H   -0.032912
    48  H   -0.033365
    49  H   -0.416148
    50  H   -0.688963
    51  H   -0.154547
    52  H   -0.109638
    53  H   -0.126261
    54  H   -0.105948
    55  H   -0.215074
    56  H   -0.130726
    57  H   -0.153869
    58  H   -0.024959
    59  H   -0.844700
    60  H   -0.123792
    61  H   -0.112988
    62  H   -0.225089
    63  H   -0.130669
    64  H   -0.156172
    65  H   -0.105859
    66  H   -0.155048
    67  H   -0.016921
    68  H   -0.151085
    69  H   -0.087123
    70  H   -0.148219
    71  H   -0.102968
    72  H   -0.041183
    73  H   -0.194123
    74  H   -0.068250
    75  H   -0.148525
 Sum of Mulliken charges =   0.00000
 Mulliken charges with hydrogens summed into heavy atoms:
               1
     1  C    0.368722
     2  C   -0.128559
     3  C    0.523813
     4  C    0.097592
     6  C   -0.122637
     7  C    0.844203
     9  C   -1.215839
    10  C   -0.618610
    12  C   -0.282115
    13  C   -0.005360
    14  C   -0.601024
    15  N   -0.375069
    17  C    0.338025
    18  N   -0.326556
    20  C    0.447525
    21  C    0.115366
    22  C    0.278619
    23  C   -0.921702
    24  C    0.344188
    25  N   -0.247854
    27  C    0.505782
    28  N   -0.400257
    30  C    0.461788
    31  C    0.353721
    32  C    0.221858
    33  C   -0.863959
    34  C    0.328380
    35  N   -0.202847
    37  C    0.446950
    38  N   -0.402120
    40  C    0.463475
    41  C    0.353047
    42  C    0.221453
 Electronic spatial extent (au):  <R**2>=          24655.0489
 Charge=              0.0000 electrons
 Dipole moment (field-independent basis, Debye):
    X=             -0.7309    Y=             -0.0280    Z=             -0.0610  Tot=              0.7340
 Quadrupole moment (field-independent basis, Debye-Ang):
   XX=           -196.2697   YY=           -203.2143   ZZ=           -201.6646
   XY=             -2.7483   XZ=              3.6728   YZ=              1.3170
 Traceless Quadrupole moment (field-independent basis, Debye-Ang):
   XX=              4.1132   YY=             -2.8314   ZZ=             -1.2818
   XY=             -2.7483   XZ=              3.6728   YZ=              1.3170
 Octapole moment (field-independent basis, Debye-Ang**2):
  XXX=             43.8298  YYY=            -41.7375  ZZZ=             16.6832  XYY=            -50.7579
  XXY=             31.5726  XXZ=            -23.7405  XZZ=            -18.6020  YZZ=             13.9015
  YYZ=             15.0266  XYZ=             31.7057
 Hexadecapole moment (field-independent basis, Debye-Ang**3):
 XXXX=         -19684.6858 YYYY=         -12328.0216 ZZZZ=          -1936.5165 XXXY=            -39.3517
 XXXZ=            229.9534 YYYX=           -107.0792 YYYZ=             22.5103 ZZZX=             19.2395
 ZZZY=            -76.4030 XXYY=          -5182.0582 XXZZ=          -3607.0061 YYZZ=          -2350.5320
 XXYZ=              5.5317 YYXZ=            -12.8101 ZZXY=             64.0462
 N-N= 3.292424829583D+03 E-N=-9.788846433878D+03  KE= 1.373240547501D+03
 Leave Link  601 at Mon Nov  1 18:27:44 2021, MaxMem=  7864320000 cpu:              28.6 elap:               1.1
 (Enter /apps/gaussian/g16-c01-avx/g16/l9999.exe)
 Unable to Open any file for archive entry.
 1\1\GINC-CX3-12-20\SP\RMP2-FC\Aug-CC-pVDZ\C27H42N6\ATARZIA\01-Nov-2021
 \0\\#P MP2/aug-cc-pVDZ SP SCF=(YQC,MaxCycle=900) int=(Grid=Superfinegr
 id)\\_1_alde1_3_ami3_2_opt_gas_mp2\\0,1\C,0,-0.8344,0.0796,0.1552\C,0,
 -0.4031,-1.0133,1.0486\C,0,-2.1777,0.4023,-0.0312\C,0,-2.5415,1.4375,-
 0.8903\H,0,-2.9412,-0.1382,0.5125\C,0,-1.5547,2.1524,-1.5653\C,0,-0.21
 1,1.8507,-1.375\H,0,-1.8589,2.9484,-2.2278\C,0,0.1405,0.8176,-0.5059\C
 ,0,0.8164,2.6111,-2.0726\H,0,1.1883,0.5969,-0.3701\C,0,-3.9498,1.759,-
 1.0723\C,0,-3.0907,-3.0514,1.2479\C,0,-1.8811,-2.7347,0.3483\N,0,-3.59
 34,-1.8123,1.8326\H,0,-2.7504,-3.7645,2.0195\C,0,-4.1892,-3.7062,0.413
 2\N,0,-0.827,-2.1941,1.1581\H,0,-2.2069,-2.0507,-0.4497\C,0,-1.3686,-4
 .0332,-0.2849\C,0,-3.6846,-4.9868,-0.2428\C,0,-2.4645,-4.6966,-1.1103\
 C,0,-5.7181,2.9663,-2.0103\C,0,-6.0906,2.7486,-3.488\N,0,-4.3264,2.679
 2,-1.8487\H,0,-6.3497,2.3002,-1.3953\C,0,-5.9582,4.427,-1.6155\N,0,-5.
 9592,1.3301,-3.793\H,0,-5.4144,3.3784,-4.0944\C,0,-7.5363,3.1767,-3.73
 64\C,0,-7.4048,4.8323,-1.867\C,0,-7.7628,4.6293,-3.335\C,0,3.029,3.121
 ,-2.6295\C,0,3.8329,2.1616,-3.5254\N,0,2.0436,2.3605,-1.9254\H,0,2.570
 6,3.8913,-3.2754\C,0,3.953,3.7822,-1.6017\N,0,2.9465,1.6434,-4.5588\H,
 0,4.2387,1.3657,-2.8746\C,0,4.9887,2.9061,-4.1925\C,0,5.0948,4.5218,-2
 .287\C,0,5.8968,3.5631,-3.1599\H,0,2.1604,1.1652,-4.1306\H,0,3.4399,0.
 9734,-5.1391\H,0,-2.9057,-1.4427,2.4824\H,0,-4.4425,-1.9979,2.3571\H,0
 ,-5.0085,1.0255,-3.6107\H,0,-6.1567,1.1638,-4.7741\H,0,0.441,-0.7653,1
 .6904\H,0,0.4526,3.4116,-2.7352\H,0,-8.8059,4.9016,-3.5081\H,0,-7.1388
 ,5.2792,-3.953\H,0,-7.5462,5.8783,-1.5871\H,0,-8.0663,4.2249,-1.245\H,
 0,-5.7037,4.5544,-0.5611\H,0,-5.2848,5.0556,-2.201\H,0,-7.7734,3.0373,
 -4.7937\H,0,-8.1904,2.5213,-3.1587\H,0,-4.6583,1.1466,-0.4936\H,0,5.74
 24,4.9746,-1.5334\H,0,4.6884,5.3237,-2.9076\H,0,3.3657,4.4698,-0.9893\
 H,0,4.3491,3.0044,-0.9463\H,0,6.7021,4.0999,-3.6651\H,0,6.3491,2.7929,
 -2.5307\H,0,5.5604,2.2039,-4.8037\H,0,4.5687,3.6623,-4.8581\H,0,-2.086
 9,-5.6241,-1.5454\H,0,-2.7519,-4.0337,-1.9298\H,0,-4.4784,-5.4281,-0.8
 487\H,0,-3.4138,-5.7075,0.5325\H,0,-4.5168,-2.9972,-0.3497\H,0,-5.046,
 -3.9283,1.0543\H,0,-1.0351,-4.7015,0.5107\H,0,-0.506,-3.8034,-0.9134\\
 Version=ES64L-G16RevC.01\State=1-A\HF=-1373.7473899\MP2=-1378.6521742\
 RMSD=7.124e-09\PG=C01 [X(C27H42N6)]\\@
 The archive entry for this job was punched.


 ... THE UNIVERSE IS NOT ONLY QUEERER THAN WE SUPPOSE,
 BUT QUEERER THAN WE CAN SUPPOSE ... 

                                   -- J. B. S. HALDANE
 Job cpu time:       3 days 21 hours  1 minutes 12.5 seconds.
 Elapsed time:       0 days  2 hours 57 minutes  8.3 seconds.
 File lengths (MBytes):  RWF=1059352 Int=      0 D2E=      0 Chk=     96 Scr=     16
 Normal termination of Gaussian 16 at Mon Nov  1 18:27:45 2021.
