 Entering Gaussian System, Link 0=g16
 Initial command:
 /apps/gaussian/g16-c01-avx/g16/l1.exe "/rds/general/ephemeral/user/atarzia/ephemeral/xtb_spe_DFT/Gau-2219903.inp" -scrdir="/rds/general/ephemeral/user/atarzia/ephemeral/xtb_spe_DFT/"
 Entering Link 1 = /apps/gaussian/g16-c01-avx/g16/l1.exe PID=   2219904.
  
 Copyright (c) 1988-2019, Gaussian, Inc.  All Rights Reserved.
  
 This is part of the Gaussian(R) 16 program.  It is based on
 the Gaussian(R) 09 system (copyright 2009, Gaussian, Inc.),
 the Gaussian(R) 03 system (copyright 2003, Gaussian, Inc.),
 the Gaussian(R) 98 system (copyright 1998, Gaussian, Inc.),
 the Gaussian(R) 94 system (copyright 1995, Gaussian, Inc.),
 the Gaussian 92(TM) system (copyright 1992, Gaussian, Inc.),
 the Gaussian 90(TM) system (copyright 1990, Gaussian, Inc.),
 the Gaussian 88(TM) system (copyright 1988, Gaussian, Inc.),
 the Gaussian 86(TM) system (copyright 1986, Carnegie Mellon
 University), and the Gaussian 82(TM) system (copyright 1983,
 Carnegie Mellon University). Gaussian is a federally registered
 trademark of Gaussian, Inc.
  
 This software contains proprietary and confidential information,
 including trade secrets, belonging to Gaussian, Inc.
  
 This software is provided under written license and may be
 used, copied, transmitted, or stored only in accord with that
 written license.
  
 The following legend is applicable only to US Government
 contracts under FAR:
  
                    RESTRICTED RIGHTS LEGEND
  
 Use, reproduction and disclosure by the US Government is
 subject to restrictions as set forth in subparagraphs (a)
 and (c) of the Commercial Computer Software - Restricted
 Rights clause in FAR 52.227-19.
  
 Gaussian, Inc.
 340 Quinnipiac St., Bldg. 40, Wallingford CT 06492
  
  
 ---------------------------------------------------------------
 Warning -- This program may not be used in any manner that
 competes with the business of Gaussian, Inc. or will provide
 assistance to any competitor of Gaussian, Inc.  The licensee
 of this program is prohibited from giving any competitor of
 Gaussian, Inc. access to this program.  By using this program,
 the user acknowledges that Gaussian, Inc. is engaged in the
 business of creating and licensing software in the field of
 computational chemistry and represents and warrants to the
 licensee that it is not a competitor of Gaussian, Inc. and that
 it will not use this program in any manner prohibited above.
 ---------------------------------------------------------------
  

 Cite this work as:
 Gaussian 16, Revision C.01,
 M. J. Frisch, G. W. Trucks, H. B. Schlegel, G. E. Scuseria, 
 M. A. Robb, J. R. Cheeseman, G. Scalmani, V. Barone, 
 G. A. Petersson, H. Nakatsuji, X. Li, M. Caricato, A. V. Marenich, 
 J. Bloino, B. G. Janesko, R. Gomperts, B. Mennucci, H. P. Hratchian, 
 J. V. Ortiz, A. F. Izmaylov, J. L. Sonnenberg, D. Williams-Young, 
 F. Ding, F. Lipparini, F. Egidi, J. Goings, B. Peng, A. Petrone, 
 T. Henderson, D. Ranasinghe, V. G. Zakrzewski, J. Gao, N. Rega, 
 G. Zheng, W. Liang, M. Hada, M. Ehara, K. Toyota, R. Fukuda, 
 J. Hasegawa, M. Ishida, T. Nakajima, Y. Honda, O. Kitao, H. Nakai, 
 T. Vreven, K. Throssell, J. A. Montgomery, Jr., J. E. Peralta, 
 F. Ogliaro, M. J. Bearpark, J. J. Heyd, E. N. Brothers, K. N. Kudin, 
 V. N. Staroverov, T. A. Keith, R. Kobayashi, J. Normand, 
 K. Raghavachari, A. P. Rendell, J. C. Burant, S. S. Iyengar, 
 J. Tomasi, M. Cossi, J. M. Millam, M. Klene, C. Adamo, R. Cammi, 
 J. W. Ochterski, R. L. Martin, K. Morokuma, O. Farkas, 
 J. B. Foresman, and D. J. Fox, Gaussian, Inc., Wallingford CT, 2019.
 
 ******************************************
 Gaussian 16:  ES64L-G16RevC.01  3-Jul-2019
                 8-Nov-2021 
 ******************************************
 %chk=_1_alde1_3_ami3_1_opt_dcm_mp2.chk
 %mem=60000mb
 %nprocshared=32
 Will use up to   32 processors via shared memory.
 ----------------------------------------------------------------------
 #P MP2/aug-cc-pVDZ SP SCF=(YQC,MaxCycle=900) int=(Grid=Superfinegrid) 
 SCRF=(PCM,Solvent=Dichloromethane)
 ----------------------------------------------------------------------
 1/38=1,172=1/1;
 2/12=2,17=6,18=5,40=1/2;
 3/5=16,7=10,11=9,25=1,30=1,70=2201,72=9,75=-7/1,2,3;
 4//1;
 5/5=2,7=900,8=4,13=1,38=1,53=9/8,2,8;
 8/10=1/1;
 9/16=-3/6;
 6/7=2,8=2,9=2,10=2/1;
 99/5=1,9=1/99;
 Leave Link    1 at Mon Nov  8 14:39:37 2021, MaxMem=  7864320000 cpu:               5.3 elap:               0.2
 (Enter /apps/gaussian/g16-c01-avx/g16/l101.exe)
 -----------------------------
 _1_alde1_3_ami3_1_opt_dcm_mp2
 -----------------------------
 Symbolic Z-matrix:
 Charge =  0 Multiplicity = 1
 C                    -1.4505    0.7346   -1.771 
 C                    -1.3763    0.3993   -0.3011 
 C                    -2.6569    1.0252   -2.3846 
 C                    -2.6959    1.3696   -3.7309 
 H                    -3.5705    0.9683   -1.8143 
 C                    -1.5186    1.4255   -4.4572 
 C                    -0.3027    1.1355   -3.8489 
 H                    -1.5517    1.6814   -5.5044 
 C                    -0.2731    0.7932   -2.5078 
 C                     0.9654    1.2485   -4.6599 
 H                     0.6697    0.5571   -2.0401 
 C                    -4.0234    1.7214   -4.3575 
 C                    -1.5759    1.6816    1.6251 
 C                    -2.9772    1.2854    1.1279 
 N                    -0.748     1.52      0.4393 
 N                    -2.7083    0.1377    0.274 
 C                    -4.0581    3.2353   -6.1171 
 C                    -4.9843    3.7375   -4.9956 
 N                    -3.9334    1.8147   -5.826 
 N                    -4.5027    3.0198   -3.8249 
 C                     2.9334    1.8259   -3.5727 
 C                     2.6701    2.8256   -4.7125 
 N                     2.1258    0.6764   -3.9534 
 N                     1.2443    2.6737   -4.9607 
 H                     2.6548    0.0779   -4.5792 
 H                     0.8206    0.7276   -5.6166 
 H                     0.7226    3.2567   -4.3103 
 H                    -0.7372   -0.4854   -0.1724 
 H                    -0.8012    2.3622   -0.129 
 H                    -4.7007    1.3081   -6.2553 
 H                    -3.7157    3.5212   -3.4194 
 H                    -4.7597    0.9544   -4.0795 
 C                    -3.9241    1.1116    2.2974 
 H                    -2.6866   -0.7085    0.8336 
 C                    -4.5925    3.6526   -7.4717 
 C                     4.4223    1.6305   -3.3734 
 H                    -3.3543    2.0868    0.4755 
 C                    -3.9814    2.4478    3.0451 
 H                    -3.5553    0.3251    2.961 
 H                    -4.9199    0.8282    1.9526 
 C                    -2.5943    2.9315    3.4789 
 H                    -4.6187    2.3486    3.9259 
 H                    -4.4328    3.1969    2.3903 
 C                    -1.6201    3.0369    2.3009 
 H                    -2.6889    3.9046    3.9649 
 H                    -2.1846    2.2324    4.2118 
 H                    -0.6296    3.3286    2.6539 
 H                    -1.9677    3.7931    1.5922 
 H                    -1.2346    0.9283    2.351 
 H                    -3.0624    3.6794   -5.9707 
 C                    -4.6654    5.1831   -7.4854 
 H                    -5.5877    3.2275   -7.6261 
 H                    -3.9416    3.2979   -8.2724 
 C                    -5.5024    5.7357   -6.3278 
 H                    -5.0929    5.5218   -8.4312 
 H                    -3.6512    5.5831   -7.4164 
 C                    -4.9997    5.2521   -4.9634 
 H                    -6.5401    5.4173   -6.4526 
 H                    -5.4838    6.8269   -6.3599 
 H                    -6.0034    3.3711   -5.191 
 H                    -5.6516    5.6183   -4.1685 
 H                    -3.9903    5.6292   -4.7797 
 H                     2.4965    2.2302   -2.6476 
 C                     5.0238    2.9981   -3.033 
 H                     4.8722    1.2396   -4.2898 
 H                     4.6169    0.9207   -2.5679 
 C                     4.7067    4.0539   -4.0963 
 H                     6.1068    2.9072   -2.929 
 H                     4.6236    3.3275   -2.0712 
 C                     3.2013    4.1959   -4.3447 
 H                     5.1924    3.7742   -5.0342 
 H                     5.1191    5.0149   -3.7826 
 H                     3.016     4.9134   -5.1457 
 H                     2.7036    4.5558   -3.4405 
 H                     3.1858    2.4705   -5.6175 
 
 ITRead=  0  0  0  0  0  0  0  0  0  0  0  0  0  0  0  0  0  0  0  0
 ITRead=  0  0  0  0  0  0  0  0  0  0  0  0  0  0  0  0  0  0  0  0
 ITRead=  0  0  0  0  0  0  0  0  0  0  0  0  0  0  0  0  0  0  0  0
 ITRead=  0  0  0  0  0  0  0  0  0  0  0  0  0  0  0
 MicOpt= -1 -1 -1 -1 -1 -1 -1 -1 -1 -1 -1 -1 -1 -1 -1 -1 -1 -1 -1 -1
 MicOpt= -1 -1 -1 -1 -1 -1 -1 -1 -1 -1 -1 -1 -1 -1 -1 -1 -1 -1 -1 -1
 MicOpt= -1 -1 -1 -1 -1 -1 -1 -1 -1 -1 -1 -1 -1 -1 -1 -1 -1 -1 -1 -1
 MicOpt= -1 -1 -1 -1 -1 -1 -1 -1 -1 -1 -1 -1 -1 -1 -1
 NAtoms=     75 NQM=       75 NQMF=       0 NMMI=      0 NMMIF=      0
                NMic=       0 NMicF=      0.
                    Isotopes and Nuclear Properties:
 (Nuclear quadrupole moments (NQMom) in fm**2, nuclear magnetic moments (NMagM)
  in nuclear magnetons)

  Atom         1           2           3           4           5           6           7           8           9          10
 IAtWgt=          12          12          12          12           1          12          12           1          12          12
 AtmWgt=  12.0000000  12.0000000  12.0000000  12.0000000   1.0078250  12.0000000  12.0000000   1.0078250  12.0000000  12.0000000
 NucSpn=           0           0           0           0           1           0           0           1           0           0
 AtZEff=  -0.0000000  -0.0000000  -0.0000000  -0.0000000  -0.0000000  -0.0000000  -0.0000000  -0.0000000  -0.0000000  -0.0000000
 NQMom=    0.0000000   0.0000000   0.0000000   0.0000000   0.0000000   0.0000000   0.0000000   0.0000000   0.0000000   0.0000000
 NMagM=    0.0000000   0.0000000   0.0000000   0.0000000   2.7928460   0.0000000   0.0000000   2.7928460   0.0000000   0.0000000
 AtZNuc=   6.0000000   6.0000000   6.0000000   6.0000000   1.0000000   6.0000000   6.0000000   1.0000000   6.0000000   6.0000000

  Atom        11          12          13          14          15          16          17          18          19          20
 IAtWgt=           1          12          12          12          14          14          12          12          14          14
 AtmWgt=   1.0078250  12.0000000  12.0000000  12.0000000  14.0030740  14.0030740  12.0000000  12.0000000  14.0030740  14.0030740
 NucSpn=           1           0           0           0           2           2           0           0           2           2
 AtZEff=  -0.0000000  -0.0000000  -0.0000000  -0.0000000  -0.0000000  -0.0000000  -0.0000000  -0.0000000  -0.0000000  -0.0000000
 NQMom=    0.0000000   0.0000000   0.0000000   0.0000000   2.0440000   2.0440000   0.0000000   0.0000000   2.0440000   2.0440000
 NMagM=    2.7928460   0.0000000   0.0000000   0.0000000   0.4037610   0.4037610   0.0000000   0.0000000   0.4037610   0.4037610
 AtZNuc=   1.0000000   6.0000000   6.0000000   6.0000000   7.0000000   7.0000000   6.0000000   6.0000000   7.0000000   7.0000000

  Atom        21          22          23          24          25          26          27          28          29          30
 IAtWgt=          12          12          14          14           1           1           1           1           1           1
 AtmWgt=  12.0000000  12.0000000  14.0030740  14.0030740   1.0078250   1.0078250   1.0078250   1.0078250   1.0078250   1.0078250
 NucSpn=           0           0           2           2           1           1           1           1           1           1
 AtZEff=  -0.0000000  -0.0000000  -0.0000000  -0.0000000  -0.0000000  -0.0000000  -0.0000000  -0.0000000  -0.0000000  -0.0000000
 NQMom=    0.0000000   0.0000000   2.0440000   2.0440000   0.0000000   0.0000000   0.0000000   0.0000000   0.0000000   0.0000000
 NMagM=    0.0000000   0.0000000   0.4037610   0.4037610   2.7928460   2.7928460   2.7928460   2.7928460   2.7928460   2.7928460
 AtZNuc=   6.0000000   6.0000000   7.0000000   7.0000000   1.0000000   1.0000000   1.0000000   1.0000000   1.0000000   1.0000000

  Atom        31          32          33          34          35          36          37          38          39          40
 IAtWgt=           1           1          12           1          12          12           1          12           1           1
 AtmWgt=   1.0078250   1.0078250  12.0000000   1.0078250  12.0000000  12.0000000   1.0078250  12.0000000   1.0078250   1.0078250
 NucSpn=           1           1           0           1           0           0           1           0           1           1
 AtZEff=  -0.0000000  -0.0000000  -0.0000000  -0.0000000  -0.0000000  -0.0000000  -0.0000000  -0.0000000  -0.0000000  -0.0000000
 NQMom=    0.0000000   0.0000000   0.0000000   0.0000000   0.0000000   0.0000000   0.0000000   0.0000000   0.0000000   0.0000000
 NMagM=    2.7928460   2.7928460   0.0000000   2.7928460   0.0000000   0.0000000   2.7928460   0.0000000   2.7928460   2.7928460
 AtZNuc=   1.0000000   1.0000000   6.0000000   1.0000000   6.0000000   6.0000000   1.0000000   6.0000000   1.0000000   1.0000000

  Atom        41          42          43          44          45          46          47          48          49          50
 IAtWgt=          12           1           1          12           1           1           1           1           1           1
 AtmWgt=  12.0000000   1.0078250   1.0078250  12.0000000   1.0078250   1.0078250   1.0078250   1.0078250   1.0078250   1.0078250
 NucSpn=           0           1           1           0           1           1           1           1           1           1
 AtZEff=  -0.0000000  -0.0000000  -0.0000000  -0.0000000  -0.0000000  -0.0000000  -0.0000000  -0.0000000  -0.0000000  -0.0000000
 NQMom=    0.0000000   0.0000000   0.0000000   0.0000000   0.0000000   0.0000000   0.0000000   0.0000000   0.0000000   0.0000000
 NMagM=    0.0000000   2.7928460   2.7928460   0.0000000   2.7928460   2.7928460   2.7928460   2.7928460   2.7928460   2.7928460
 AtZNuc=   6.0000000   1.0000000   1.0000000   6.0000000   1.0000000   1.0000000   1.0000000   1.0000000   1.0000000   1.0000000

  Atom        51          52          53          54          55          56          57          58          59          60
 IAtWgt=          12           1           1          12           1           1          12           1           1           1
 AtmWgt=  12.0000000   1.0078250   1.0078250  12.0000000   1.0078250   1.0078250  12.0000000   1.0078250   1.0078250   1.0078250
 NucSpn=           0           1           1           0           1           1           0           1           1           1
 AtZEff=  -0.0000000  -0.0000000  -0.0000000  -0.0000000  -0.0000000  -0.0000000  -0.0000000  -0.0000000  -0.0000000  -0.0000000
 NQMom=    0.0000000   0.0000000   0.0000000   0.0000000   0.0000000   0.0000000   0.0000000   0.0000000   0.0000000   0.0000000
 NMagM=    0.0000000   2.7928460   2.7928460   0.0000000   2.7928460   2.7928460   0.0000000   2.7928460   2.7928460   2.7928460
 AtZNuc=   6.0000000   1.0000000   1.0000000   6.0000000   1.0000000   1.0000000   6.0000000   1.0000000   1.0000000   1.0000000

  Atom        61          62          63          64          65          66          67          68          69          70
 IAtWgt=           1           1           1          12           1           1          12           1           1          12
 AtmWgt=   1.0078250   1.0078250   1.0078250  12.0000000   1.0078250   1.0078250  12.0000000   1.0078250   1.0078250  12.0000000
 NucSpn=           1           1           1           0           1           1           0           1           1           0
 AtZEff=  -0.0000000  -0.0000000  -0.0000000  -0.0000000  -0.0000000  -0.0000000  -0.0000000  -0.0000000  -0.0000000  -0.0000000
 NQMom=    0.0000000   0.0000000   0.0000000   0.0000000   0.0000000   0.0000000   0.0000000   0.0000000   0.0000000   0.0000000
 NMagM=    2.7928460   2.7928460   2.7928460   0.0000000   2.7928460   2.7928460   0.0000000   2.7928460   2.7928460   0.0000000
 AtZNuc=   1.0000000   1.0000000   1.0000000   6.0000000   1.0000000   1.0000000   6.0000000   1.0000000   1.0000000   6.0000000

  Atom        71          72          73          74          75
 IAtWgt=           1           1           1           1           1
 AtmWgt=   1.0078250   1.0078250   1.0078250   1.0078250   1.0078250
 NucSpn=           1           1           1           1           1
 AtZEff=  -0.0000000  -0.0000000  -0.0000000  -0.0000000  -0.0000000
 NQMom=    0.0000000   0.0000000   0.0000000   0.0000000   0.0000000
 NMagM=    2.7928460   2.7928460   2.7928460   2.7928460   2.7928460
 AtZNuc=   1.0000000   1.0000000   1.0000000   1.0000000   1.0000000
 Leave Link  101 at Mon Nov  8 14:39:37 2021, MaxMem=  7864320000 cpu:               2.5 elap:               0.1
 (Enter /apps/gaussian/g16-c01-avx/g16/l202.exe)
 Stoichiometry    C27H42N6
 Framework group  C1[X(C27H42N6)]
 Deg. of freedom   219
 Full point group                 C1      NOp   1
 Largest Abelian subgroup         C1      NOp   1
 Largest concise Abelian subgroup C1      NOp   1
                         Standard orientation:                         
 ---------------------------------------------------------------------
 Center     Atomic      Atomic             Coordinates (Angstroms)
 Number     Number       Type             X           Y           Z
 ---------------------------------------------------------------------
      1          6           0        1.329728   -0.402172   -1.350807
      2          6           0        2.784498   -0.802552   -1.307453
      3          6           0        0.320392   -1.349581   -1.347463
      4          6           0       -1.013010   -0.956269   -1.348170
      5          1           0        0.575086   -2.397501   -1.359316
      6          6           0       -1.328735    0.391688   -1.347591
      7          6           0       -0.321473    1.349789   -1.350650
      8          1           0       -2.363578    0.695258   -1.359988
      9          6           0        1.003725    0.949234   -1.350178
     10          6           0       -0.701746    2.809918   -1.306139
     11          1           0        1.784097    1.693665   -1.364351
     12          6           0       -2.087752   -2.015242   -1.301752
     13          6           0        4.143180   -1.644057    0.377846
     14          6           0        3.362151   -2.799134   -0.273011
     15          7           0        3.357598   -0.472596    0.019803
     16          7           0        2.968918   -2.243332   -1.559525
     17          6           0       -4.107376   -1.508153   -0.275463
     18          6           0       -3.501088   -2.758823    0.384880
     19          7           0       -3.426525   -1.454979   -1.560768
     20          7           0       -2.092849   -2.668754    0.029461
     21          6           0        0.744947    4.305315   -0.276921
     22          6           0       -0.642531    4.405686    0.380880
     23          7           0        0.452898    3.689565   -1.563024
     24          7           0       -1.268334    3.141408    0.023730
     25          1           0        0.202680    4.405643   -2.237035
     26          1           0       -1.482463    2.994793   -2.057059
     27          1           0       -0.989282    2.424564    0.689572
     28          1           0        3.333433   -0.221502   -2.061613
     29          1           0        2.598769   -0.355949    0.687387
     30          1           0       -3.920929   -2.030343   -2.234721
     31          1           0       -1.612744   -2.066921    0.694666
     32          1           0       -1.857336   -2.785631   -2.050832
     33          6           0        4.185057   -4.070768   -0.254809
     34          1           0        3.711153   -2.386853   -2.236406
     35          6           0       -5.620308   -1.582083   -0.260083
     36          6           0        1.437542    5.652440   -0.259867
     37          1           0        2.437502   -2.960556    0.300608
     38          6           0        4.496495   -4.395955    1.209783
     39          1           0        5.113434   -3.921146   -0.812204
     40          1           0        3.638316   -4.894326   -0.717028
     41          6           0        5.192032   -3.235543    1.928021
     42          1           0        5.131229   -5.282624    1.262034
     43          1           0        3.560621   -4.625750    1.724574
     44          6           0        4.387897   -1.933899    1.844680
     45          1           0        5.349081   -3.503341    2.974773
     46          1           0        6.173170   -3.071602    1.476103
     47          1           0        4.938298   -1.118190    2.316344
     48          1           0        3.432872   -2.048186    2.364090
     49          1           0        5.111211   -1.541376   -0.135233
     50          1           0       -3.784530   -0.623605    0.293237
     51          6           0       -6.060861   -1.678719    1.204330
     52          1           0       -5.955345   -2.463959   -0.812367
     53          1           0       -6.057383   -0.699043   -0.728920
     54          6           0       -5.407462   -2.857837    1.931464
     55          1           0       -7.146506   -1.782744    1.254976
     56          1           0       -5.791349   -0.750604    1.713573
     57          6           0       -3.877773   -2.815671    1.851224
     58          1           0       -5.756822   -3.791756    1.484791
     59          1           0       -5.720224   -2.852749    2.977527
     60          1           0       -3.896505   -3.651209   -0.123340
     61          1           0       -3.449353   -3.698014    2.329626
     62          1           0       -3.498870   -1.928880    2.365881
     63          1           0        1.348474    3.583153    0.292629
     64          6           0        1.571476    6.081831    1.204950
     65          1           0        0.842418    6.383785   -0.813007
     66          1           0        2.421580    5.589637   -0.727029
     67          6           0        0.222455    6.105299    1.929840
     68          1           0        2.024250    7.073940    1.256742
     69          1           0        2.239691    5.384019    1.715117
     70          6           0       -0.505936    4.759648    1.847585
     71          1           0       -0.410752    6.875142    1.482421
     72          1           0        0.381480    6.373112    2.976257
     73          1           0       -1.485038    4.829620    2.324248
     74          1           0        0.071529    3.987723    2.362830
     75          1           0       -1.216454    5.194789   -0.128037
 ---------------------------------------------------------------------
 Rotational constants (GHZ):           0.0977689           0.0974421           0.0568513
 Leave Link  202 at Mon Nov  8 14:39:37 2021, MaxMem=  7864320000 cpu:               0.2 elap:               0.0
 (Enter /apps/gaussian/g16-c01-avx/g16/l301.exe)
 Standard basis: Aug-CC-pVDZ (5D, 7F)
 Ernie: Thresh=  0.10000D-02 Tol=  0.10000D-05 Strict=F.
 Ernie:  66 primitive shells out of 1119 were deleted.
 There are  1203 symmetry adapted cartesian basis functions of A   symmetry.
 There are  1137 symmetry adapted basis functions of A   symmetry.
  1137 basis functions,  1881 primitive gaussians,  1203 cartesian basis functions
   123 alpha electrons      123 beta electrons
       nuclear repulsion energy      3503.1326476083 Hartrees.
 IExCor=    0 DFT=F Ex=HF Corr=None ExCW=0 ScaHFX=  1.000000
 ScaDFX=  1.000000  1.000000  1.000000  1.000000 ScalE2=  1.000000  1.000000
 IRadAn=      7 IRanWt=     -1 IRanGd=            0 ICorTp=0 IEmpDi=  4
 NAtoms=   75 NActive=   75 NUniq=   75 SFac= 1.00D+00 NAtFMM=   60 NAOKFM=T Big=T
 Integral buffers will be    131072 words long.
 Raffenetti 1 integral format.
 Two-electron integral symmetry is turned on.
 ------------------------------------------------------------------------------
 Polarizable Continuum Model (PCM)
 =================================
 Model                : PCM.
 Atomic radii         : UFF (Universal Force Field).
 Polarization charges : Total charges.
 Charge compensation  : None.
 Solution method      : On-the-fly selection.
 Cavity type          : Scaled VdW (van der Waals Surface) (Alpha=1.100).
 Cavity algorithm     : GePol (No added spheres)
                        Default sphere list used, NSphG=   75.
                        Lebedev-Laikov grids with approx.  5.0 points / Ang**2.
                        Smoothing algorithm: York/Karplus (Gamma=1.0000).
                        Polarization charges: spherical gaussians, with
                                              point-specific exponents (IZeta= 3).
                        Self-potential: point-specific (ISelfS= 7).
                        Self-field    : sphere-specific E.n sum rule (ISelfD= 2).
 Solvent              : Dichloromethane, Eps=   8.930000 Eps(inf)=   2.028346
 ------------------------------------------------------------------------------
 GePol: Number of generator spheres                  =      75
 GePol: Total number of spheres                      =      75
 GePol: Number of exposed spheres                    =      75 (100.00%)
 GePol: Number of points                             =    4445
 GePol: Average weight of points                     =       0.13
 GePol: Minimum weight of points                     =   0.10D-10
 GePol: Maximum weight of points                     =    0.20577
 GePol: Number of points with low weight             =     382
 GePol: Fraction of low-weight points (<1% of avg)   =       8.59%
 GePol: Cavity surface area                          =    573.625 Ang**2
 GePol: Cavity volume                                =    657.662 Ang**3
 Leave Link  301 at Mon Nov  8 14:39:37 2021, MaxMem=  7864320000 cpu:               1.3 elap:               0.1
 (Enter /apps/gaussian/g16-c01-avx/g16/l302.exe)
 NPDir=0 NMtPBC=     1 NCelOv=     1 NCel=       1 NClECP=     1 NCelD=      1
         NCelK=      1 NCelE2=     1 NClLst=     1 CellRange=     0.0.
 One-electron integrals computed using PRISM.
 One-electron integral symmetry used in STVInt
 NBasis=  1137 RedAO= T EigKep=  1.14D-06  NBF=  1137
 NBsUse=  1132 1.00D-06 EigRej=  9.18D-07 NBFU=  1132
 Leave Link  302 at Mon Nov  8 14:39:39 2021, MaxMem=  7864320000 cpu:              62.0 elap:               2.0
 (Enter /apps/gaussian/g16-c01-avx/g16/l303.exe)
 DipDrv:  MaxL=1.
 Leave Link  303 at Mon Nov  8 14:39:40 2021, MaxMem=  7864320000 cpu:               6.8 elap:               0.3
 (Enter /apps/gaussian/g16-c01-avx/g16/l401.exe)
 ExpMin= 2.97D-02 ExpMax= 9.05D+03 ExpMxC= 3.09D+02 IAcc=3 IRadAn=         7 AccDes= 0.00D+00
 Harris functional with IExCor=  205 and IRadAn=       7 diagonalized for initial guess.
 HarFok:  IExCor=  205 AccDes= 0.00D+00 IRadAn=         7 IDoV= 1 UseB2=F ITyADJ=14
 ICtDFT=  3500011 ScaDFX=  1.000000  1.000000  1.000000  1.000000
 FoFCou: FMM=F IPFlag=           0 FMFlag=      100000 FMFlg1=        2001
         NFxFlg=           0 DoJE=T BraDBF=F KetDBF=T FulRan=T
         wScrn=  0.000000 ICntrl=       500 IOpCl=  0 I1Cent=   200000004 NGrid=           0
         NMat0=    1 NMatS0=      1 NMatT0=    0 NMatD0=    1 NMtDS0=    0 NMtDT0=    0
 Petite list used in FoFCou.
 Harris En= -1376.06916289592    
 JPrj=0 DoOrth=F DoCkMO=F.
 Leave Link  401 at Mon Nov  8 14:39:50 2021, MaxMem=  7864320000 cpu:             315.0 elap:              10.0
 (Enter /apps/gaussian/g16-c01-avx/g16/l508.exe)
 Integral symmetry usage will be decided dynamically.
 Tight linear equation convergence will be used.
 RHF wavefunction.
 Linear searches until partial convergence.
 Full line searches.
 Fock matrices will be formed incrementally for  20 cycles.
 Inv3:  Mode=1 IEnd=    59274075.
 Iteration    1 A*A^-1 deviation from unit magnitude is 1.07D-14 for   4432.
 Iteration    1 A*A^-1 deviation from orthogonality  is 5.73D-15 for   4440   3982.
 Iteration    1 A^-1*A deviation from unit magnitude is 1.07D-14 for   4432.
 Iteration    1 A^-1*A deviation from orthogonality  is 2.69D-15 for   4435   3618.
 FoFJK:  IHMeth= 1 ICntrl=       0 DoSepK=F KAlg= 0 I1Cent=           0 FoldK=F
 IRaf= 990000000 NMat=       1 IRICut=       1 DoRegI=T DoRafI=F ISym2E= 1 IDoP0=0 IntGTp=1.
 Iteration   1 EE= -1372.39358602538                                    Grad=1.842D+00 Max rot=    2.1504 deg.
 Gradient too large for Newton-Raphson -- use scaled steepest descent instead.
 Alpha Gap=     0.531 HL deriv= 7.78D-03
     ILin= 1 X=0.000D+00 Y=-1.372393586025D+03 DE= 0.00D+00 F= -4.30D+00
 RMSU=  6.36D-03    CP:  7.75D-01
     ILin= 2 X=3.000D-01 Y=-1.373354915551D+03 DE=-9.61D-01 F= -2.10D+00 OKLS=F
 RMSU=  1.41D-03    CP:  6.54D-01  1.47D+00
     ILin= 3 X=5.000D-01 Y=-1.373625729682D+03 DE=-1.23D+00 F= -6.09D-01
 RMSU=  3.37D-03    CP:  4.79D-01  1.95D+00  3.00D+00
     ILin= 4 X=9.000D-01 Y=-1.373272699273D+03 DE=-8.79D-01 F=  2.37D+00
     An  expanding polynomial of degree  4 produced  0.5820
 RMSU=  2.71D-06    CP:  6.10D-01  1.62D+00  1.64D+00  9.95D-06
 Iteration   2 EE= -1373.65052904685     Delta-E=       -1.256943021471 Grad=6.300D-01 Max rot=    0.7518 deg.
 Gradient too large for Newton-Raphson -- use scaled steepest descent instead.
 Alpha Gap=     0.530 HL deriv= 7.91D-04
     ILin= 1 X=0.000D+00 Y=-1.373650529047D+03 DE= 0.00D+00 F= -2.22D-01
 RMSU=  2.14D-03    CP:  5.32D-01  1.69D+00  2.87D+00 -6.59D-04 -3.00D+00
     ILin= 2 X=4.000D-01 Y=-1.373717700288D+03 DE=-6.72D-02 F= -1.14D-01 OKLS=F
 RMSU=  4.17D-04    CP:  4.68D-01  1.71D+00  3.00D+00  5.71D-01 -3.00D+00
                    CP:  1.86D+00
     ILin= 3 X=8.000D-01 Y=-1.373741908191D+03 DE=-9.14D-02 F= -6.94D-03
 RMSU=  1.76D-03    CP:  3.76D-01  1.62D+00  3.00D+00  2.41D+00 -3.00D+00
                    CP:  3.00D+00  3.00D+00
     ILin= 4 X=1.700D+00 Y=-1.373640165232D+03 DE= 1.04D-02 F=  2.33D-01
     An  expanding polynomial of degree  4 produced  0.8260
     Minimum is close to point  3 DX=  2.60D-02 DF= -9.05D-05 DXR=  3.15D-02 DFR=  9.90D-04 which will be used.
 Iteration   3 EE= -1373.74190819133     Delta-E=       -0.091379144481 Grad=1.780D-01 Max rot=    0.2871 deg.
 Gradient too large for Newton-Raphson -- use scaled steepest descent instead.
 Alpha Gap=     0.522 HL deriv= 1.10D-03
     ILin= 1 X=0.000D+00 Y=-1.373741908191D+03 DE= 0.00D+00 F= -3.04D-02
 RMSU=  8.25D-04    CP:  4.42D-01  1.70D+00  3.00D+00  9.17D-01 -3.00D+00
                    CP:  2.09D+00  1.65D+00 -3.10D-04
     ILin= 2 X=7.000D-01 Y=-1.373752606098D+03 DE=-1.07D-02 F= -1.49D-04 OKLS=T
     Reject lnstep IMin12=  1  2 Big=T Turn=F Min= 7.150D-01 FVal=-1.373752607681D+03 Lims=  0.00D+00  7.00D-01
 RMSU=  1.17D-04    CP:  4.18D-01  1.68D+00  3.00D+00  1.29D+00 -3.00D+00
                    CP:  2.30D+00  2.44D+00  5.65D-04  1.98D+00
     ILin= 3 X=1.400D+00 Y=-1.373742131715D+03 DE=-2.24D-04 F=  3.01D-02
     An  expanding polynomial of degree  3 produced  0.7037
     Minimum is close to point  2 DX=  3.70D-03 DF= -2.95D-07 DXR=  5.25D-03 DFR=  2.76D-05 which will be used.
 Iteration   4 EE= -1373.75260609758     Delta-E=       -0.010697906254 Grad=6.885D-02 Max rot=    0.0839 deg.
 Gradient too large for Newton-Raphson -- use scaled steepest descent instead.
 Alpha Gap=     0.526 HL deriv= 2.48D-04
     ILin= 1 X=0.000D+00 Y=-1.373752606098D+03 DE= 0.00D+00 F= -4.55D-03
 RMSU=  3.07D-04    CP:  4.29D-01  1.68D+00  3.00D+00  1.05D+00 -3.00D+00
                    CP:  2.29D+00  2.00D+00  6.58D-04  1.39D+00  6.02D-01
     ILin= 2 X=8.000D-01 Y=-1.373754427328D+03 DE=-1.82D-03 F= -8.39D-06 OKLS=T
     Reject lnstep IMin12=  1  2 Big=T Turn=F Min= 8.032D-01 FVal=-1.373754427345D+03 Lims=  0.00D+00  8.00D-01
 RMSU=  1.69D-05    CP:  4.18D-01  1.66D+00  3.00D+00  1.16D+00 -3.00D+00
                    CP:  2.45D+00  2.35D+00  1.63D-03  1.72D+00  1.24D+00
                    CP:  1.86D+00
     ILin= 3 X=1.500D+00 Y=-1.373753046601D+03 DE=-4.41D-04 F=  3.95D-03
     An  expanding polynomial of degree  3 produced  0.8018
     Minimum is close to point  2 DX=  1.84D-03 DF= -9.55D-09 DXR=  2.29D-03 DFR=  5.24D-06 which will be used.
 Iteration   5 EE= -1373.75442732811     Delta-E=       -0.001821230524 Grad=2.514D-02 Max rot=    0.0583 deg.
 Gradient too large for Newton-Raphson -- use scaled steepest descent instead.
 Alpha Gap=     0.526 HL deriv= 2.73D-04
     ILin= 1 X=0.000D+00 Y=-1.373754427328D+03 DE= 0.00D+00 F= -9.79D-04
 RMSU=  7.47D-05    CP:  4.25D-01  1.67D+00  3.00D+00  1.09D+00 -3.00D+00
                    CP:  2.32D+00  2.10D+00  6.89D-04  1.67D+00  9.10D-01
                    CP:  1.25D+00  3.21D-01
     ILin= 2 X=8.000D-01 Y=-1.373754772931D+03 DE=-3.46D-04 F=  1.15D-04 OKLS=T
     Accept linear search using points  1 and  2.
     An  expanding polynomial of degree  2 produced  0.6656
 RMSU=  1.81D-07    CP:  4.25D-01  1.67D+00  3.00D+00  1.08D+00 -3.00D+00
                    CP:  2.32D+00  2.08D+00  6.81D-04  1.63D+00  8.56D-01
                    CP:  1.21D+00  2.56D-01  8.32D-01
 Iteration   6 EE= -1373.75477607212     Delta-E=       -0.000348744015 Grad=1.075D-02 Max rot=    0.0211 deg.
 Gradient too large for Newton-Raphson -- use scaled steepest descent instead.
 Alpha Gap=     0.526 HL deriv= 1.48D-04
     ILin= 1 X=0.000D+00 Y=-1.373754776072D+03 DE= 0.00D+00 F= -1.69D-04
 RMSU=  1.83D-05    CP:  4.24D-01  1.67D+00  3.00D+00  1.09D+00 -3.00D+00
                    CP:  2.34D+00  2.13D+00  7.35D-04  1.73D+00  1.02D+00
                    CP:  1.45D+00  5.08D-01  1.17D+00 -3.00D+00
     ILin= 2 X=7.000D-01 Y=-1.373754851677D+03 DE=-7.56D-05 F= -4.75D-05 OKLS=T
     Reject lnstep IMin12=  1  2 Big=T Turn=F Min= 1.125D+00 FVal=-1.373754872475D+03 Lims=  0.00D+00  7.00D-01
 RMSU=  1.49D-06    CP:  4.22D-01  1.66D+00  3.00D+00  1.11D+00 -3.00D+00
                    CP:  2.37D+00  2.18D+00  8.04D-04  1.84D+00  1.21D+00
                    CP:  1.73D+00  8.72D-01  1.55D+00 -3.00D+00  2.14D+00
     ILin= 3 X=1.500D+00 Y=-1.373754834345D+03 DE=-5.83D-05 F=  9.08D-05
     An  expanding polynomial of degree  3 produced  0.9747
 RMSU=  3.10D-08    CP:  4.23D-01  1.67D+00  3.00D+00  1.10D+00 -3.00D+00
                    CP:  2.35D+00  2.15D+00  7.58D-04  1.77D+00  1.08D+00
                    CP:  1.55D+00  6.24D-01  1.30D+00 -3.00D+00  1.39D+00
                    CP:  2.86D-01
 Iteration   7 EE= -1373.75485819658     Delta-E=       -0.000082124458 Grad=5.194D-03 Max rot=    0.0128 deg.
 SCF Done:  E(RHF) =  -1373.75485820     a.u. after    7 cycles
            Convg  =    0.5194D-02                    17 Fock formations.
              S**2 =  0.0000                  -V/T =  2.0004
 Leave Link  508 at Mon Nov  8 15:01:17 2021, MaxMem=  7864320000 cpu:           40686.2 elap:            1287.2
 (Enter /apps/gaussian/g16-c01-avx/g16/l502.exe)
 Integral symmetry usage will be decided dynamically.
 Closed shell SCF:
 Using DIIS extrapolation, IDIIS=  1040.
 NGot=  7864320000 LenX=  7861374008 LenY=  7859925596
 Requested convergence on RMS density matrix=1.00D-08 within 128 cycles.
 Requested convergence on MAX density matrix=1.00D-06.
 Requested convergence on             energy=1.00D-06.
 No special actions if energy rises.
 Fock matrices will be formed incrementally for  20 cycles.

 Cycle   1  Pass 1  IDiag  1:
 FoFJK:  IHMeth= 1 ICntrl=       0 DoSepK=F KAlg= 0 I1Cent=           0 FoldK=F
 IRaf= 990000000 NMat=       1 IRICut=       1 DoRegI=T DoRafI=F ISym2E= 0 IDoP0=0 IntGTp=1.
 FoFCou: FMM=T IPFlag=           0 FMFlag=      100000 FMFlg1=        2001
         NFxFlg=           0 DoJE=F BraDBF=F KetDBF=F FulRan=T
         wScrn=  0.000000 ICntrl=         0 IOpCl=  0 I1Cent=           0 NGrid=           0
         NMat0=    1 NMatS0=      1 NMatT0=    0 NMatD0=    1 NMtDS0=    0 NMtDT0=    0
 Symmetry not used in FoFCou.
 FMM levels:  10  Number of levels for PrismC:   9
 E= -1373.75485819684    
 DIIS: error= 7.30D-05 at cycle   1 NSaved=   1.
 NSaved= 1 IEnMin= 1 EnMin= -1373.75485819684     IErMin= 1 ErrMin= 7.30D-05
 ErrMax= 7.30D-05  0.00D+00 EMaxC= 1.00D-01 BMatC= 1.35D-05 BMatP= 1.35D-05
 IDIUse=1 WtCom= 1.00D+00 WtEn= 0.00D+00
 Coeff-Com:  0.100D+01
 Coeff:      0.100D+01
 Gap=     0.526 Goal=   None    Shift=    0.000
 RMSDP=9.36D-05 MaxDP=1.15D-02              OVMax= 8.77D-04

 Cycle   2  Pass 1  IDiag  1:
 RMSU=  8.79D-05    CP:  9.99D-01
 E= -1373.75487542980     Delta-E=       -0.000017232957 Rises=F Damp=F
 DIIS: error= 4.77D-05 at cycle   2 NSaved=   2.
 NSaved= 2 IEnMin= 2 EnMin= -1373.75487542980     IErMin= 2 ErrMin= 4.77D-05
 ErrMax= 4.77D-05  0.00D+00 EMaxC= 1.00D-01 BMatC= 4.75D-06 BMatP= 1.35D-05
 IDIUse=1 WtCom= 1.00D+00 WtEn= 0.00D+00
 Coeff-Com:  0.347D+00 0.653D+00
 Coeff:      0.347D+00 0.653D+00
 Gap=     0.353 Goal=   None    Shift=    0.000
 RMSDP=1.72D-05 MaxDP=2.40D-03 DE=-1.72D-05 OVMax= 2.69D-04

 Cycle   3  Pass 1  IDiag  1:
 RMSU=  1.42D-05    CP:  9.99D-01  1.08D+00
 E= -1373.75488046784     Delta-E=       -0.000005038047 Rises=F Damp=F
 DIIS: error= 8.90D-06 at cycle   3 NSaved=   3.
 NSaved= 3 IEnMin= 3 EnMin= -1373.75488046784     IErMin= 3 ErrMin= 8.90D-06
 ErrMax= 8.90D-06  0.00D+00 EMaxC= 1.00D-01 BMatC= 1.97D-07 BMatP= 4.75D-06
 IDIUse=1 WtCom= 1.00D+00 WtEn= 0.00D+00
 Coeff-Com: -0.182D+00-0.194D+00 0.138D+01
 Coeff:     -0.182D+00-0.194D+00 0.138D+01
 Gap=     0.353 Goal=   None    Shift=    0.000
 RMSDP=1.44D-05 MaxDP=1.91D-03 DE=-5.04D-06 OVMax= 4.52D-04

 Cycle   4  Pass 1  IDiag  1:
 RMSU=  5.17D-06    CP:  9.99D-01  1.21D+00  1.29D+00
 E= -1373.75488131946     Delta-E=       -0.000000851619 Rises=F Damp=F
 DIIS: error= 2.66D-06 at cycle   4 NSaved=   4.
 NSaved= 4 IEnMin= 4 EnMin= -1373.75488131946     IErMin= 4 ErrMin= 2.66D-06
 ErrMax= 2.66D-06  0.00D+00 EMaxC= 1.00D-01 BMatC= 1.79D-08 BMatP= 1.97D-07
 IDIUse=1 WtCom= 1.00D+00 WtEn= 0.00D+00
 Coeff-Com:  0.156D-01 0.471D-02-0.206D+00 0.119D+01
 Coeff:      0.156D-01 0.471D-02-0.206D+00 0.119D+01
 Gap=     0.353 Goal=   None    Shift=    0.000
 RMSDP=1.76D-06 MaxDP=1.91D-04 DE=-8.52D-07 OVMax= 1.85D-04

 Cycle   5  Pass 1  IDiag  1:
 RMSU=  1.35D-06    CP:  9.99D-01  1.20D+00  1.29D+00  1.19D+00
 E= -1373.75488141846     Delta-E=       -0.000000098993 Rises=F Damp=F
 DIIS: error= 1.50D-06 at cycle   5 NSaved=   5.
 NSaved= 5 IEnMin= 5 EnMin= -1373.75488141846     IErMin= 5 ErrMin= 1.50D-06
 ErrMax= 1.50D-06  0.00D+00 EMaxC= 1.00D-01 BMatC= 6.00D-09 BMatP= 1.79D-08
 IDIUse=1 WtCom= 1.00D+00 WtEn= 0.00D+00
 Coeff-Com:  0.512D-01 0.522D-01-0.391D+00 0.150D+00 0.114D+01
 Coeff:      0.512D-01 0.522D-01-0.391D+00 0.150D+00 0.114D+01
 Gap=     0.353 Goal=   None    Shift=    0.000
 RMSDP=1.24D-06 MaxDP=9.86D-05 DE=-9.90D-08 OVMax= 1.39D-04

 Cycle   6  Pass 1  IDiag  1:
 RMSU=  7.30D-07    CP:  9.99D-01  1.20D+00  1.30D+00  1.30D+00  1.52D+00
 E= -1373.75488145485     Delta-E=       -0.000000036390 Rises=F Damp=F
 DIIS: error= 5.84D-07 at cycle   6 NSaved=   6.
 NSaved= 6 IEnMin= 6 EnMin= -1373.75488145485     IErMin= 6 ErrMin= 5.84D-07
 ErrMax= 5.84D-07  0.00D+00 EMaxC= 1.00D-01 BMatC= 8.76D-10 BMatP= 6.00D-09
 IDIUse=1 WtCom= 1.00D+00 WtEn= 0.00D+00
 Coeff-Com: -0.138D-01-0.123D-01 0.127D+00-0.306D+00-0.245D+00 0.145D+01
 Coeff:     -0.138D-01-0.123D-01 0.127D+00-0.306D+00-0.245D+00 0.145D+01
 Gap=     0.353 Goal=   None    Shift=    0.000
 RMSDP=7.25D-07 MaxDP=4.96D-05 DE=-3.64D-08 OVMax= 7.92D-05

 Cycle   7  Pass 1  IDiag  1:
 RMSU=  3.19D-07    CP:  9.99D-01  1.20D+00  1.30D+00  1.32D+00  1.91D+00
                    CP:  1.41D+00
 E= -1373.75488146179     Delta-E=       -0.000000006944 Rises=F Damp=F
 DIIS: error= 9.92D-08 at cycle   7 NSaved=   7.
 NSaved= 7 IEnMin= 7 EnMin= -1373.75488146179     IErMin= 7 ErrMin= 9.92D-08
 ErrMax= 9.92D-08  0.00D+00 EMaxC= 1.00D-01 BMatC= 4.50D-11 BMatP= 8.76D-10
 IDIUse=1 WtCom= 1.00D+00 WtEn= 0.00D+00
 Coeff-Com: -0.420D-02-0.440D-02 0.328D-01-0.107D-01-0.994D-01 0.120D-01
 Coeff-Com:  0.107D+01
 Coeff:     -0.420D-02-0.440D-02 0.328D-01-0.107D-01-0.994D-01 0.120D-01
 Coeff:      0.107D+01
 Gap=     0.353 Goal=   None    Shift=    0.000
 RMSDP=1.72D-07 MaxDP=1.44D-05 DE=-6.94D-09 OVMax= 1.12D-05

 Cycle   8  Pass 1  IDiag  1:
 RMSU=  8.74D-08    CP:  9.99D-01  1.20D+00  1.31D+00  1.33D+00  1.95D+00
                    CP:  1.43D+00  1.29D+00
 E= -1373.75488146192     Delta-E=       -0.000000000127 Rises=F Damp=F
 DIIS: error= 5.20D-08 at cycle   8 NSaved=   8.
 NSaved= 8 IEnMin= 8 EnMin= -1373.75488146192     IErMin= 8 ErrMin= 5.20D-08
 ErrMax= 5.20D-08  0.00D+00 EMaxC= 1.00D-01 BMatC= 6.47D-12 BMatP= 4.50D-11
 IDIUse=1 WtCom= 1.00D+00 WtEn= 0.00D+00
 Coeff-Com:  0.926D-03 0.690D-03-0.910D-02 0.290D-01 0.106D-01-0.137D+00
 Coeff-Com:  0.113D+00 0.992D+00
 Coeff:      0.926D-03 0.690D-03-0.910D-02 0.290D-01 0.106D-01-0.137D+00
 Coeff:      0.113D+00 0.992D+00
 Gap=     0.353 Goal=   None    Shift=    0.000
 RMSDP=6.40D-08 MaxDP=6.44D-06 DE=-1.27D-10 OVMax= 2.37D-06

 Cycle   9  Pass 1  IDiag  1:
 RMSU=  2.64D-08    CP:  9.99D-01  1.20D+00  1.31D+00  1.34D+00  1.96D+00
                    CP:  1.43D+00  1.41D+00  1.32D+00
 E= -1373.75488146192     Delta-E=       -0.000000000008 Rises=F Damp=F
 DIIS: error= 1.42D-08 at cycle   9 NSaved=   9.
 NSaved= 9 IEnMin= 9 EnMin= -1373.75488146192     IErMin= 9 ErrMin= 1.42D-08
 ErrMax= 1.42D-08  0.00D+00 EMaxC= 1.00D-01 BMatC= 9.37D-13 BMatP= 6.47D-12
 IDIUse=1 WtCom= 1.00D+00 WtEn= 0.00D+00
 Coeff-Com:  0.630D-03 0.628D-03-0.506D-02 0.302D-02 0.134D-01-0.328D-02
 Coeff-Com: -0.143D+00-0.167D-01 0.115D+01
 Coeff:      0.630D-03 0.628D-03-0.506D-02 0.302D-02 0.134D-01-0.328D-02
 Coeff:     -0.143D+00-0.167D-01 0.115D+01
 Gap=     0.353 Goal=   None    Shift=    0.000
 RMSDP=2.38D-08 MaxDP=3.00D-06 DE=-7.73D-12 OVMax= 1.08D-06

 Cycle  10  Pass 1  IDiag  1:
 RMSU=  1.01D-08    CP:  9.99D-01  1.20D+00  1.31D+00  1.34D+00  1.97D+00
                    CP:  1.42D+00  1.43D+00  1.50D+00  1.22D+00
 E= -1373.75488146208     Delta-E=       -0.000000000157 Rises=F Damp=F
 DIIS: error= 7.26D-09 at cycle  10 NSaved=  10.
 NSaved=10 IEnMin=10 EnMin= -1373.75488146208     IErMin=10 ErrMin= 7.26D-09
 ErrMax= 7.26D-09  0.00D+00 EMaxC= 1.00D-01 BMatC= 1.80D-13 BMatP= 9.37D-13
 IDIUse=1 WtCom= 1.00D+00 WtEn= 0.00D+00
 Coeff-Com: -0.348D-03-0.320D-03 0.309D-02-0.510D-02-0.692D-02 0.223D-01
 Coeff-Com:  0.307D-01-0.167D+00-0.304D+00 0.143D+01
 Coeff:     -0.348D-03-0.320D-03 0.309D-02-0.510D-02-0.692D-02 0.223D-01
 Coeff:      0.307D-01-0.167D+00-0.304D+00 0.143D+01
 Gap=     0.353 Goal=   None    Shift=    0.000
 RMSDP=1.09D-08 MaxDP=9.74D-07 DE=-1.57D-10 OVMax= 7.14D-07

 Cycle  11  Pass 1  IDiag  1:
 RMSU=  5.59D-09    CP:  9.99D-01  1.20D+00  1.31D+00  1.34D+00  1.97D+00
                    CP:  1.42D+00  1.44D+00  1.54D+00  1.37D+00  1.49D+00
 E= -1373.75488146183     Delta-E=        0.000000000247 Rises=F Damp=F
 DIIS: error= 3.20D-09 at cycle  11 NSaved=  11.
 NSaved=11 IEnMin=10 EnMin= -1373.75488146208     IErMin=11 ErrMin= 3.20D-09
 ErrMax= 3.20D-09  0.00D+00 EMaxC= 1.00D-01 BMatC= 2.71D-14 BMatP= 1.80D-13
 IDIUse=1 WtCom= 1.00D+00 WtEn= 0.00D+00
 Coeff-Com: -0.670D-04-0.753D-04 0.539D-03-0.752D-04-0.168D-02-0.176D-03
 Coeff-Com:  0.176D-01 0.597D-02-0.112D+00-0.110D+00 0.120D+01
 Coeff:     -0.670D-04-0.753D-04 0.539D-03-0.752D-04-0.168D-02-0.176D-03
 Coeff:      0.176D-01 0.597D-02-0.112D+00-0.110D+00 0.120D+01
 Gap=     0.353 Goal=   None    Shift=    0.000
 RMSDP=4.48D-09 MaxDP=5.03D-07 DE= 2.47D-10 OVMax= 2.91D-07

 Error on total polarization charges =  0.02131
 SCF Done:  E(RHF) =  -1373.75488146     A.U. after   11 cycles
            NFock= 11  Conv=0.45D-08     -V/T= 2.0004
 KE= 1.373195912846D+03 PE=-1.021180078183D+04 EE= 3.961717339914D+03
 Leave Link  502 at Mon Nov  8 15:14:28 2021, MaxMem=  7864320000 cpu:           25032.4 elap:             791.0
 (Enter /apps/gaussian/g16-c01-avx/g16/l508.exe)
 QCSCF skips out because SCF is already converged.
 Leave Link  508 at Mon Nov  8 15:14:28 2021, MaxMem=  7864320000 cpu:               0.1 elap:               0.0
 (Enter /apps/gaussian/g16-c01-avx/g16/l801.exe)
 ExpMin= 2.97D-02 ExpMax= 9.05D+03 ExpMxC= 3.09D+02 IAcc=3 IRadAn=         7 AccDes= 0.00D+00
 HarFok:  IExCor=  205 AccDes= 0.00D+00 IRadAn=         7 IDoV=-2 UseB2=F ITyADJ=14
 ICtDFT= 12500011 ScaDFX=  1.000000  1.000000  1.000000  1.000000
 GSVD:  LWork=       -1353 too small for GESVD, short by        5940 words or        5940 for optimal perf.
 Largest valence mixing into a core orbital is  1.24D-04
 Largest core mixing into a valence orbital is  4.08D-05
 Range of M.O.s used for correlation:    34  1132
 NBasis=  1137 NAE=   123 NBE=   123 NFC=    33 NFV=     0
 NROrb=   1099 NOA=    90 NOB=    90 NVA=  1009 NVB=  1009

 **** Warning!!: The largest alpha MO coefficient is  0.22552300D+03

 Leave Link  801 at Mon Nov  8 15:14:30 2021, MaxMem=  7864320000 cpu:              21.7 elap:               0.8
 (Enter /apps/gaussian/g16-c01-avx/g16/l906.exe)
 FulOut=F Deriv=F AODrv=F NAtomX=    75
   MMem=           2  MDisk=          90 MDiskD=          90
  W3Min=   109244430 MinDsk=   103979168 NBas6D=        1203
 NBas2D=      725745    NTT=      724206    LW2=     2000000
    MDV=  7856747888 MDiskM=       90684 NBas2p=      554235
 Disk-based method using OVN memory for 90 occupieds at a time.
 Estimated scratch disk usage=158847476918 words.
 IMap=   1   2   3   4   5   6   7   8   9  10  11  12  13  14  15  16  17  18  19  20
 IMap=  21  22  23  24  25  26  27  28  29  30  31  32  33  34  35  36  37  38  39  40
 IMap=  41  42  43  44  45  46  47  48  49  50  51  52  53  54  55  56  57  58  59  60
 IMap=  61  62  63  64  65  66  67  68  69  70  71  72  73  74  75  76  77  78  79  80
 IMap=  81  82  83  84  85  86  87  88  89  90
 Actual    scratch disk usage=150996802622 words.
 JobTyp=1 Pass  1:  I=   1 to  90 NPSUse= 32 ParTrn=T ParDer=T DoDerP=F.
 Spin components of T(2) and E(2):
     alpha-alpha T2 =       0.2281732280D+00 E2=     -0.6360755320D+00
     alpha-beta  T2 =       0.1222974653D+01 E2=     -0.3652915769D+01
     beta-beta   T2 =       0.2281732280D+00 E2=     -0.6360755320D+00
 The integrals were generated   1 times.
 ANorm=    0.1636863192D+01
 E2 =    -0.4925066833D+01 EUMP2 =    -0.13786799482943D+04
 Leave Link  906 at Mon Nov  8 19:04:30 2021, MaxMem=  7864320000 cpu:          430178.5 elap:           13799.5
 (Enter /apps/gaussian/g16-c01-avx/g16/l601.exe)
 Copying SCF densities to generalized density rwf, IOpCl= 0 IROHF=0.

 **********************************************************************

            Population analysis using the SCF Density.

 **********************************************************************

 Orbital symmetries:
       Occupied  (A) (A) (A) (A) (A) (A) (A) (A) (A) (A) (A) (A)
                 (A) (A) (A) (A) (A) (A) (A) (A) (A) (A) (A) (A)
                 (A) (A) (A) (A) (A) (A) (A) (A) (A) (A) (A) (A)
                 (A) (A) (A) (A) (A) (A) (A) (A) (A) (A) (A) (A)
                 (A) (A) (A) (A) (A) (A) (A) (A) (A) (A) (A) (A)
                 (A) (A) (A) (A) (A) (A) (A) (A) (A) (A) (A) (A)
                 (A) (A) (A) (A) (A) (A) (A) (A) (A) (A) (A) (A)
                 (A) (A) (A) (A) (A) (A) (A) (A) (A) (A) (A) (A)
                 (A) (A) (A) (A) (A) (A) (A) (A) (A) (A) (A) (A)
                 (A) (A) (A) (A) (A) (A) (A) (A) (A) (A) (A) (A)
                 (A) (A) (A)
       Virtual   (A) (A) (A) (A) (A) (A) (A) (A) (A) (A) (A) (A)
                 (A) (A) (A) (A) (A) (A) (A) (A) (A) (A) (A) (A)
                 (A) (A) (A) (A) (A) (A) (A) (A) (A) (A) (A) (A)
                 (A) (A) (A) (A) (A) (A) (A) (A) (A) (A) (A) (A)
                 (A) (A) (A) (A) (A) (A) (A) (A) (A) (A) (A) (A)
                 (A) (A) (A) (A) (A) (A) (A) (A) (A) (A) (A) (A)
                 (A) (A) (A) (A) (A) (A) (A) (A) (A) (A) (A) (A)
                 (A) (A) (A) (A) (A) (A) (A) (A) (A) (A) (A) (A)
                 (A) (A) (A) (A) (A) (A) (A) (A) (A) (A) (A) (A)
                 (A) (A) (A) (A) (A) (A) (A) (A) (A) (A) (A) (A)
                 (A) (A) (A) (A) (A) (A) (A) (A) (A) (A) (A) (A)
                 (A) (A) (A) (A) (A) (A) (A) (A) (A) (A) (A) (A)
                 (A) (A) (A) (A) (A) (A) (A) (A) (A) (A) (A) (A)
                 (A) (A) (A) (A) (A) (A) (A) (A) (A) (A) (A) (A)
                 (A) (A) (A) (A) (A) (A) (A) (A) (A) (A) (A) (A)
                 (A) (A) (A) (A) (A) (A) (A) (A) (A) (A) (A) (A)
                 (A) (A) (A) (A) (A) (A) (A) (A) (A) (A) (A) (A)
                 (A) (A) (A) (A) (A) (A) (A) (A) (A) (A) (A) (A)
                 (A) (A) (A) (A) (A) (A) (A) (A) (A) (A) (A) (A)
                 (A) (A) (A) (A) (A) (A) (A) (A) (A) (A) (A) (A)
                 (A) (A) (A) (A) (A) (A) (A) (A) (A) (A) (A) (A)
                 (A) (A) (A) (A) (A) (A) (A) (A) (A) (A) (A) (A)
                 (A) (A) (A) (A) (A) (A) (A) (A) (A) (A) (A) (A)
                 (A) (A) (A) (A) (A) (A) (A) (A) (A) (A) (A) (A)
                 (A) (A) (A) (A) (A) (A) (A) (A) (A) (A) (A) (A)
                 (A) (A) (A) (A) (A) (A) (A) (A) (A) (A) (A) (A)
                 (A) (A) (A) (A) (A) (A) (A) (A) (A) (A) (A) (A)
                 (A) (A) (A) (A) (A) (A) (A) (A) (A) (A) (A) (A)
                 (A) (A) (A) (A) (A) (A) (A) (A) (A) (A) (A) (A)
                 (A) (A) (A) (A) (A) (A) (A) (A) (A) (A) (A) (A)
                 (A) (A) (A) (A) (A) (A) (A) (A) (A) (A) (A) (A)
                 (A) (A) (A) (A) (A) (A) (A) (A) (A) (A) (A) (A)
                 (A) (A) (A) (A) (A) (A) (A) (A) (A) (A) (A) (A)
                 (A) (A) (A) (A) (A) (A) (A) (A) (A) (A) (A) (A)
                 (A) (A) (A) (A) (A) (A) (A) (A) (A) (A) (A) (A)
                 (A) (A) (A) (A) (A) (A) (A) (A) (A) (A) (A) (A)
                 (A) (A) (A) (A) (A) (A) (A) (A) (A) (A) (A) (A)
                 (A) (A) (A) (A) (A) (A) (A) (A) (A) (A) (A) (A)
                 (A) (A) (A) (A) (A) (A) (A) (A) (A) (A) (A) (A)
                 (A) (A) (A) (A) (A) (A) (A) (A) (A) (A) (A) (A)
                 (A) (A) (A) (A) (A) (A) (A) (A) (A) (A) (A) (A)
                 (A) (A) (A) (A) (A) (A) (A) (A) (A) (A) (A) (A)
                 (A) (A) (A) (A) (A) (A) (A) (A) (A) (A) (A) (A)
                 (A) (A) (A) (A) (A) (A) (A) (A) (A) (A) (A) (A)
                 (A) (A) (A) (A) (A) (A) (A) (A) (A) (A) (A) (A)
                 (A) (A) (A) (A) (A) (A) (A) (A) (A) (A) (A) (A)
                 (A) (A) (A) (A) (A) (A) (A) (A) (A) (A) (A) (A)
                 (A) (A) (A) (A) (A) (A) (A) (A) (A) (A) (A) (A)
                 (A) (A) (A) (A) (A) (A) (A) (A) (A) (A) (A) (A)
                 (A) (A) (A) (A) (A) (A) (A) (A) (A) (A) (A) (A)
                 (A) (A) (A) (A) (A) (A) (A) (A) (A) (A) (A) (A)
                 (A) (A) (A) (A) (A) (A) (A) (A) (A) (A) (A) (A)
                 (A) (A) (A) (A) (A) (A) (A) (A) (A) (A) (A) (A)
                 (A) (A) (A) (A) (A) (A) (A) (A) (A) (A) (A) (A)
                 (A) (A) (A) (A) (A) (A) (A) (A) (A) (A) (A) (A)
                 (A) (A) (A) (A) (A) (A) (A) (A) (A) (A) (A) (A)
                 (A) (A) (A) (A) (A) (A) (A) (A) (A) (A) (A) (A)
                 (A) (A) (A) (A) (A) (A) (A) (A) (A) (A) (A) (A)
                 (A) (A) (A) (A) (A) (A) (A) (A) (A) (A) (A) (A)
                 (A) (A) (A) (A) (A) (A) (A) (A) (A) (A) (A) (A)
                 (A) (A) (A) (A) (A) (A) (A) (A) (A) (A) (A) (A)
                 (A) (A) (A) (A) (A) (A) (A) (A) (A) (A) (A) (A)
                 (A) (A) (A) (A) (A) (A) (A) (A) (A) (A) (A) (A)
                 (A) (A) (A) (A) (A) (A) (A) (A) (A) (A) (A) (A)
                 (A) (A) (A) (A) (A) (A) (A) (A) (A) (A) (A) (A)
                 (A) (A) (A) (A) (A) (A) (A) (A) (A) (A) (A) (A)
                 (A) (A) (A) (A) (A) (A) (A) (A) (A) (A) (A) (A)
                 (A) (A) (A) (A) (A) (A) (A) (A) (A) (A) (A) (A)
                 (A) (A) (A) (A) (A) (A) (A) (A) (A) (A) (A) (A)
                 (A) (A) (A) (A) (A) (A) (A) (A) (A) (A) (A) (A)
                 (A) (A) (A) (A) (A) (A) (A) (A) (A) (A) (A) (A)
                 (A) (A) (A) (A) (A) (A) (A) (A) (A) (A) (A) (A)
                 (A) (A) (A) (A) (A) (A) (A) (A) (A) (A) (A) (A)
                 (A) (A) (A) (A) (A) (A) (A) (A) (A) (A) (A) (A)
                 (A) (A) (A) (A) (A) (A) (A) (A) (A) (A) (A) (A)
                 (A) (A) (A) (A) (A) (A) (A) (A) (A) (A) (A) (A)
                 (A) (A) (A) (A) (A) (A) (A) (A) (A) (A) (A) (A)
                 (A) (A) (A) (A) (A) (A) (A) (A) (A) (A) (A) (A)
                 (A) (A) (A) (A) (A) (A) (A) (A) (A) (A) (A) (A)
                 (A) (A) (A) (A) (A) (A) (A) (A) (A) (A) (A) (A)
                 (A) (A) (A) (A) (A) (A) (A) (A) (A) (A) (A) (A)
                 (A) (A) (A) (A) (A) (A) (A) (A) (A) (A) (A) (A)
                 (A) (A) (A) (A) (A) (A) (A) (A) (A) (A) (A) (A)
                 (A) (A) (A) (A) (A) (A) (A) (A) (A) (A) (A) (A)
                 (A)
 The electronic state is 1-A.
 Alpha  occ. eigenvalues --  -15.54986 -15.54984 -15.54979 -15.54740 -15.54737
 Alpha  occ. eigenvalues --  -15.54734 -11.28693 -11.28692 -11.28689 -11.24628
 Alpha  occ. eigenvalues --  -11.24626 -11.24624 -11.24567 -11.24566 -11.24563
 Alpha  occ. eigenvalues --  -11.23448 -11.23441 -11.23440 -11.22222 -11.22221
 Alpha  occ. eigenvalues --  -11.22219 -11.22190 -11.22188 -11.22186 -11.22183
 Alpha  occ. eigenvalues --  -11.22182 -11.22172 -11.22156 -11.22154 -11.22152
 Alpha  occ. eigenvalues --  -11.22120 -11.22118 -11.22116  -1.27691  -1.27503
 Alpha  occ. eigenvalues --   -1.27500  -1.15960  -1.14627  -1.14624  -1.14584
 Alpha  occ. eigenvalues --   -1.11153  -1.11151  -1.10362  -1.04032  -1.04029
 Alpha  occ. eigenvalues --   -0.99787  -0.99784  -0.99779  -0.98528  -0.96951
 Alpha  occ. eigenvalues --   -0.96951  -0.87381  -0.87380  -0.86173  -0.82557
 Alpha  occ. eigenvalues --   -0.82556  -0.82095  -0.81688  -0.81680  -0.81677
 Alpha  occ. eigenvalues --   -0.78166  -0.78163  -0.77795  -0.76256  -0.76253
 Alpha  occ. eigenvalues --   -0.69478  -0.68472  -0.66801  -0.66801  -0.66179
 Alpha  occ. eigenvalues --   -0.64997  -0.64992  -0.63301  -0.62910  -0.62908
 Alpha  occ. eigenvalues --   -0.62696  -0.61929  -0.61926  -0.60999  -0.60208
 Alpha  occ. eigenvalues --   -0.59445  -0.59442  -0.58302  -0.58300  -0.58039
 Alpha  occ. eigenvalues --   -0.55356  -0.55353  -0.55113  -0.54683  -0.54683
 Alpha  occ. eigenvalues --   -0.54443  -0.53460  -0.53312  -0.53308  -0.51156
 Alpha  occ. eigenvalues --   -0.50452  -0.50444  -0.49700  -0.49698  -0.49300
 Alpha  occ. eigenvalues --   -0.48747  -0.48745  -0.48735  -0.47156  -0.47104
 Alpha  occ. eigenvalues --   -0.47102  -0.46398  -0.46395  -0.46291  -0.44946
 Alpha  occ. eigenvalues --   -0.44944  -0.44859  -0.44701  -0.44700  -0.44451
 Alpha  occ. eigenvalues --   -0.38001  -0.37999  -0.37718  -0.37446  -0.36971
 Alpha  occ. eigenvalues --   -0.36968  -0.32077  -0.32074
 Alpha virt. eigenvalues --    0.03185   0.03577   0.03578   0.03745   0.04259
 Alpha virt. eigenvalues --    0.04260   0.04511   0.04555   0.04557   0.05314
 Alpha virt. eigenvalues --    0.05864   0.05868   0.05869   0.05981   0.05982
 Alpha virt. eigenvalues --    0.06151   0.06909   0.06910   0.07436   0.07773
 Alpha virt. eigenvalues --    0.07918   0.07923   0.08223   0.08250   0.08254
 Alpha virt. eigenvalues --    0.09257   0.09265   0.09279   0.09740   0.09744
 Alpha virt. eigenvalues --    0.09812   0.10230   0.10238   0.10580   0.11070
 Alpha virt. eigenvalues --    0.11074   0.11687   0.12024   0.12196   0.12203
 Alpha virt. eigenvalues --    0.12991   0.12996   0.13508   0.13867   0.13869
 Alpha virt. eigenvalues --    0.14087   0.14091   0.14265   0.14446   0.14676
 Alpha virt. eigenvalues --    0.14678   0.14836   0.14840   0.15127   0.15322
 Alpha virt. eigenvalues --    0.15648   0.15650   0.15893   0.15912   0.15915
 Alpha virt. eigenvalues --    0.16074   0.16079   0.16552   0.16972   0.17024
 Alpha virt. eigenvalues --    0.17027   0.17474   0.17478   0.17638   0.18044
 Alpha virt. eigenvalues --    0.18052   0.18138   0.18546   0.18552   0.18694
 Alpha virt. eigenvalues --    0.19151   0.19159   0.19310   0.19679   0.19681
 Alpha virt. eigenvalues --    0.19922   0.20355   0.20360   0.20528   0.20813
 Alpha virt. eigenvalues --    0.20822   0.21133   0.21447   0.21480   0.21484
 Alpha virt. eigenvalues --    0.21675   0.22086   0.22095   0.22293   0.22633
 Alpha virt. eigenvalues --    0.22679   0.22684   0.22921   0.22931   0.23318
 Alpha virt. eigenvalues --    0.23325   0.23365   0.23757   0.23773   0.23952
 Alpha virt. eigenvalues --    0.24836   0.24846   0.24939   0.25120   0.25442
 Alpha virt. eigenvalues --    0.25444   0.26416   0.26431   0.26589   0.26596
 Alpha virt. eigenvalues --    0.26898   0.27058   0.27336   0.27916   0.28280
 Alpha virt. eigenvalues --    0.28282   0.28900   0.28913   0.29208   0.29485
 Alpha virt. eigenvalues --    0.29495   0.29667   0.29915   0.29923   0.30197
 Alpha virt. eigenvalues --    0.30291   0.30505   0.30511   0.31061   0.31068
 Alpha virt. eigenvalues --    0.31568   0.31575   0.31650   0.32133   0.32219
 Alpha virt. eigenvalues --    0.32226   0.32578   0.33121   0.33130   0.33328
 Alpha virt. eigenvalues --    0.33334   0.33477   0.33871   0.33882   0.33928
 Alpha virt. eigenvalues --    0.34249   0.34289   0.34289   0.34821   0.34822
 Alpha virt. eigenvalues --    0.35060   0.35422   0.35883   0.35890   0.35985
 Alpha virt. eigenvalues --    0.36617   0.36797   0.36809   0.37111   0.37115
 Alpha virt. eigenvalues --    0.37488   0.37594   0.37603   0.38147   0.38225
 Alpha virt. eigenvalues --    0.38229   0.38679   0.38688   0.38697   0.39374
 Alpha virt. eigenvalues --    0.39497   0.39635   0.39637   0.39705   0.40247
 Alpha virt. eigenvalues --    0.40267   0.40516   0.40523   0.40733   0.40742
 Alpha virt. eigenvalues --    0.40792   0.41348   0.41508   0.41515   0.42061
 Alpha virt. eigenvalues --    0.42067   0.42361   0.42667   0.42670   0.42686
 Alpha virt. eigenvalues --    0.43221   0.43507   0.43516   0.43974   0.44192
 Alpha virt. eigenvalues --    0.44206   0.44698   0.44870   0.44878   0.45313
 Alpha virt. eigenvalues --    0.45321   0.45429   0.45715   0.46401   0.46405
 Alpha virt. eigenvalues --    0.46692   0.47033   0.47040   0.47320   0.47635
 Alpha virt. eigenvalues --    0.47647   0.47865   0.47993   0.48004   0.48243
 Alpha virt. eigenvalues --    0.48244   0.48421   0.49046   0.49054   0.49462
 Alpha virt. eigenvalues --    0.49639   0.49645   0.50101   0.50109   0.50152
 Alpha virt. eigenvalues --    0.50386   0.50791   0.50797   0.51005   0.51684
 Alpha virt. eigenvalues --    0.51688   0.51735   0.51950   0.52232   0.52239
 Alpha virt. eigenvalues --    0.52864   0.52867   0.52930   0.53198   0.53515
 Alpha virt. eigenvalues --    0.53518   0.53874   0.53878   0.53906   0.54112
 Alpha virt. eigenvalues --    0.54272   0.54282   0.54634   0.54638   0.54893
 Alpha virt. eigenvalues --    0.54968   0.54977   0.55984   0.56152   0.56155
 Alpha virt. eigenvalues --    0.56259   0.56366   0.56382   0.56891   0.57163
 Alpha virt. eigenvalues --    0.57178   0.57280   0.57788   0.57796   0.57930
 Alpha virt. eigenvalues --    0.58081   0.58607   0.58619   0.58971   0.59185
 Alpha virt. eigenvalues --    0.59213   0.59224   0.59550   0.59553   0.60316
 Alpha virt. eigenvalues --    0.60451   0.60455   0.60462   0.60853   0.61276
 Alpha virt. eigenvalues --    0.61283   0.61852   0.61885   0.61990   0.62198
 Alpha virt. eigenvalues --    0.62211   0.62492   0.62795   0.62811   0.62943
 Alpha virt. eigenvalues --    0.62945   0.63561   0.63727   0.64095   0.64128
 Alpha virt. eigenvalues --    0.64486   0.64521   0.64532   0.65201   0.65268
 Alpha virt. eigenvalues --    0.65285   0.66321   0.66495   0.66506   0.66725
 Alpha virt. eigenvalues --    0.66736   0.66749   0.67540   0.67823   0.67839
 Alpha virt. eigenvalues --    0.68205   0.68214   0.68399   0.68995   0.69514
 Alpha virt. eigenvalues --    0.69527   0.69974   0.69980   0.70030   0.70665
 Alpha virt. eigenvalues --    0.70678   0.70976   0.71292   0.71499   0.71513
 Alpha virt. eigenvalues --    0.71719   0.72108   0.72119   0.72616   0.72659
 Alpha virt. eigenvalues --    0.72662   0.72951   0.73221   0.73239   0.73542
 Alpha virt. eigenvalues --    0.73787   0.74160   0.74169   0.74748   0.74759
 Alpha virt. eigenvalues --    0.75195   0.75203   0.75595   0.75767   0.75777
 Alpha virt. eigenvalues --    0.75877   0.76504   0.76668   0.76673   0.76845
 Alpha virt. eigenvalues --    0.76984   0.76992   0.77495   0.77757   0.77766
 Alpha virt. eigenvalues --    0.78293   0.78309   0.78427   0.78912   0.78925
 Alpha virt. eigenvalues --    0.78999   0.79467   0.79498   0.79518   0.80292
 Alpha virt. eigenvalues --    0.80731   0.80744   0.80789   0.81117   0.81119
 Alpha virt. eigenvalues --    0.81606   0.81915   0.81991   0.81999   0.82340
 Alpha virt. eigenvalues --    0.82347   0.82801   0.82814   0.82843   0.83167
 Alpha virt. eigenvalues --    0.83177   0.83547   0.83995   0.84017   0.84463
 Alpha virt. eigenvalues --    0.84923   0.85305   0.85395   0.85403   0.85984
 Alpha virt. eigenvalues --    0.86012   0.86021   0.86306   0.86326   0.86978
 Alpha virt. eigenvalues --    0.86984   0.87423   0.87826   0.87838   0.88482
 Alpha virt. eigenvalues --    0.88493   0.88523   0.88558   0.89070   0.89075
 Alpha virt. eigenvalues --    0.89301   0.89753   0.89762   0.90269   0.90284
 Alpha virt. eigenvalues --    0.90533   0.90798   0.90820   0.90828   0.91066
 Alpha virt. eigenvalues --    0.91802   0.91813   0.92148   0.92361   0.92381
 Alpha virt. eigenvalues --    0.92709   0.93108   0.93120   0.93275   0.93497
 Alpha virt. eigenvalues --    0.94051   0.94070   0.94469   0.94486   0.94758
 Alpha virt. eigenvalues --    0.94932   0.94940   0.95655   0.95673   0.95686
 Alpha virt. eigenvalues --    0.96258   0.96281   0.96519   0.96864   0.97013
 Alpha virt. eigenvalues --    0.97028   0.97219   0.97802   0.97914   0.97930
 Alpha virt. eigenvalues --    0.98835   0.98841   0.99097   0.99108   0.99284
 Alpha virt. eigenvalues --    0.99705   0.99709   1.00283   1.00985   1.00997
 Alpha virt. eigenvalues --    1.01113   1.01472   1.01483   1.01661   1.02783
 Alpha virt. eigenvalues --    1.02885   1.02902   1.03447   1.03756   1.03772
 Alpha virt. eigenvalues --    1.04127   1.04577   1.05232   1.05263   1.05270
 Alpha virt. eigenvalues --    1.06103   1.06232   1.06248   1.06816   1.06828
 Alpha virt. eigenvalues --    1.08000   1.08008   1.08096   1.08597   1.08747
 Alpha virt. eigenvalues --    1.08761   1.09203   1.09499   1.09510   1.09710
 Alpha virt. eigenvalues --    1.10287   1.10774   1.10791   1.11121   1.11260
 Alpha virt. eigenvalues --    1.11282   1.11810   1.11819   1.12440   1.13619
 Alpha virt. eigenvalues --    1.13637   1.13806   1.14173   1.14527   1.14534
 Alpha virt. eigenvalues --    1.15086   1.15097   1.15723   1.15732   1.16638
 Alpha virt. eigenvalues --    1.16663   1.16729   1.18131   1.19063   1.19289
 Alpha virt. eigenvalues --    1.19329   1.19420   1.20068   1.20093   1.20971
 Alpha virt. eigenvalues --    1.21114   1.21119   1.21638   1.21930   1.21955
 Alpha virt. eigenvalues --    1.23241   1.23252   1.23502   1.23977   1.23986
 Alpha virt. eigenvalues --    1.24068   1.24838   1.26015   1.26028   1.27291
 Alpha virt. eigenvalues --    1.28980   1.28990   1.29131   1.29138   1.29434
 Alpha virt. eigenvalues --    1.30419   1.30437   1.31541   1.32102   1.32112
 Alpha virt. eigenvalues --    1.33571   1.33795   1.33811   1.34900   1.34911
 Alpha virt. eigenvalues --    1.35217   1.35786   1.36855   1.36868   1.37315
 Alpha virt. eigenvalues --    1.38554   1.38562   1.38577   1.39837   1.40088
 Alpha virt. eigenvalues --    1.40095   1.41626   1.41644   1.42527   1.42876
 Alpha virt. eigenvalues --    1.42879   1.43784   1.44222   1.44633   1.44655
 Alpha virt. eigenvalues --    1.46432   1.46449   1.46833   1.47684   1.48298
 Alpha virt. eigenvalues --    1.48311   1.49177   1.49191   1.50240   1.50278
 Alpha virt. eigenvalues --    1.50291   1.50864   1.51491   1.51507   1.52120
 Alpha virt. eigenvalues --    1.52620   1.53066   1.53077   1.53114   1.53509
 Alpha virt. eigenvalues --    1.53514   1.54572   1.54586   1.55553   1.56458
 Alpha virt. eigenvalues --    1.56771   1.56785   1.58519   1.58534   1.58741
 Alpha virt. eigenvalues --    1.60746   1.60902   1.60920   1.61804   1.62138
 Alpha virt. eigenvalues --    1.62154   1.62723   1.63092   1.63113   1.65941
 Alpha virt. eigenvalues --    1.65962   1.66576   1.67619   1.67630   1.67650
 Alpha virt. eigenvalues --    1.68148   1.68153   1.68596   1.70388   1.71181
 Alpha virt. eigenvalues --    1.71202   1.71615   1.72351   1.72357   1.73519
 Alpha virt. eigenvalues --    1.73572   1.73598   1.73947   1.75880   1.75907
 Alpha virt. eigenvalues --    1.75921   1.77506   1.77522   1.77868   1.78393
 Alpha virt. eigenvalues --    1.78426   1.78441   1.79388   1.79400   1.80137
 Alpha virt. eigenvalues --    1.80144   1.80458   1.81568   1.81577   1.81923
 Alpha virt. eigenvalues --    1.83383   1.83399   1.83667   1.85299   1.85305
 Alpha virt. eigenvalues --    1.85726   1.85961   1.85969   1.86141   1.87040
 Alpha virt. eigenvalues --    1.87049   1.87913   1.88049   1.88065   1.88317
 Alpha virt. eigenvalues --    1.88924   1.88936   1.89600   1.89726   1.89958
 Alpha virt. eigenvalues --    1.89965   1.90895   1.90910   1.91269   1.92294
 Alpha virt. eigenvalues --    1.92301   1.92708   1.93903   1.93912   1.93940
 Alpha virt. eigenvalues --    1.94531   1.94810   1.94832   1.95597   1.95607
 Alpha virt. eigenvalues --    1.95831   1.95846   1.95976   1.97659   1.97678
 Alpha virt. eigenvalues --    1.97905   1.98179   1.99155   1.99171   2.00213
 Alpha virt. eigenvalues --    2.00861   2.00879   2.02170   2.02181   2.02240
 Alpha virt. eigenvalues --    2.03127   2.03864   2.03893   2.04193   2.04205
 Alpha virt. eigenvalues --    2.04392   2.06588   2.06608   2.06968   2.07339
 Alpha virt. eigenvalues --    2.07791   2.07798   2.08509   2.09725   2.09733
 Alpha virt. eigenvalues --    2.09789   2.10696   2.10703   2.11052   2.11518
 Alpha virt. eigenvalues --    2.11519   2.11589   2.12241   2.13063   2.13076
 Alpha virt. eigenvalues --    2.13663   2.13668   2.13789   2.14311   2.14320
 Alpha virt. eigenvalues --    2.15591   2.15945   2.15962   2.17114   2.17130
 Alpha virt. eigenvalues --    2.17624   2.17812   2.18377   2.18401   2.19357
 Alpha virt. eigenvalues --    2.19488   2.19499   2.20709   2.20833   2.20835
 Alpha virt. eigenvalues --    2.21669   2.21940   2.21949   2.21990   2.22399
 Alpha virt. eigenvalues --    2.22409   2.22425   2.23525   2.24290   2.24301
 Alpha virt. eigenvalues --    2.24607   2.24623   2.24864   2.25967   2.26542
 Alpha virt. eigenvalues --    2.26555   2.26831   2.27037   2.27057   2.28510
 Alpha virt. eigenvalues --    2.28669   2.28692   2.29351   2.29356   2.29629
 Alpha virt. eigenvalues --    2.31304   2.31308   2.31635   2.32290   2.32301
 Alpha virt. eigenvalues --    2.32484   2.33282   2.33289   2.34498   2.35104
 Alpha virt. eigenvalues --    2.35123   2.35474   2.36300   2.36306   2.37100
 Alpha virt. eigenvalues --    2.37107   2.37239   2.38338   2.38371   2.38426
 Alpha virt. eigenvalues --    2.39877   2.39883   2.41669   2.42112   2.42128
 Alpha virt. eigenvalues --    2.42592   2.43654   2.43674   2.44845   2.44888
 Alpha virt. eigenvalues --    2.44899   2.45228   2.45435   2.45448   2.46975
 Alpha virt. eigenvalues --    2.47181   2.47201   2.48238   2.49059   2.49070
 Alpha virt. eigenvalues --    2.49898   2.49903   2.49972   2.51535   2.51597
 Alpha virt. eigenvalues --    2.51617   2.52534   2.52542   2.52947   2.53642
 Alpha virt. eigenvalues --    2.53651   2.55137   2.55207   2.55222   2.55566
 Alpha virt. eigenvalues --    2.56821   2.56842   2.58515   2.58772   2.58793
 Alpha virt. eigenvalues --    2.59483   2.59500   2.59803   2.60312   2.61599
 Alpha virt. eigenvalues --    2.61724   2.61741   2.62523   2.62542   2.62623
 Alpha virt. eigenvalues --    2.64346   2.64351   2.64972   2.66354   2.66373
 Alpha virt. eigenvalues --    2.67016   2.67422   2.67427   2.68259   2.68268
 Alpha virt. eigenvalues --    2.68336   2.69400   2.70192   2.70319   2.70335
 Alpha virt. eigenvalues --    2.70477   2.71388   2.71399   2.72146   2.72163
 Alpha virt. eigenvalues --    2.72224   2.73509   2.74166   2.74364   2.74391
 Alpha virt. eigenvalues --    2.76227   2.76239   2.76854   2.77712   2.78400
 Alpha virt. eigenvalues --    2.78728   2.78740   2.79621   2.79630   2.79827
 Alpha virt. eigenvalues --    2.80308   2.80327   2.81248   2.81376   2.81378
 Alpha virt. eigenvalues --    2.82495   2.82517   2.82647   2.82915   2.83855
 Alpha virt. eigenvalues --    2.83872   2.84819   2.84838   2.86498   2.87153
 Alpha virt. eigenvalues --    2.87402   2.87406   2.88313   2.88916   2.88927
 Alpha virt. eigenvalues --    2.89597   2.89603   2.89769   2.90213   2.90227
 Alpha virt. eigenvalues --    2.90694   2.92726   2.92751   2.94066   2.95295
 Alpha virt. eigenvalues --    2.95673   2.95692   2.96578   2.96587   2.97379
 Alpha virt. eigenvalues --    2.97772   2.98270   2.98275   2.99336   3.00745
 Alpha virt. eigenvalues --    3.00751   3.00925   3.01042   3.01064   3.01634
 Alpha virt. eigenvalues --    3.01639   3.02409   3.03718   3.04275   3.04283
 Alpha virt. eigenvalues --    3.04885   3.04894   3.06235   3.07052   3.07072
 Alpha virt. eigenvalues --    3.08234   3.08235   3.08263   3.09206   3.11087
 Alpha virt. eigenvalues --    3.11100   3.11471   3.12763   3.13196   3.13204
 Alpha virt. eigenvalues --    3.13542   3.13863   3.13870   3.15110   3.16010
 Alpha virt. eigenvalues --    3.16033   3.18340   3.18363   3.19426   3.20928
 Alpha virt. eigenvalues --    3.20939   3.21445   3.24767   3.24778   3.25103
 Alpha virt. eigenvalues --    3.25564   3.25568   3.26628   3.28193   3.28219
 Alpha virt. eigenvalues --    3.29326   3.29331   3.29357   3.29611   3.30697
 Alpha virt. eigenvalues --    3.30703   3.33281   3.33297   3.35389   3.39046
 Alpha virt. eigenvalues --    3.39056   3.39134   3.41843   3.43555   3.43572
 Alpha virt. eigenvalues --    3.45609   3.45615   3.45939   3.55399   3.58867
 Alpha virt. eigenvalues --    3.58881   3.65898   3.65929   3.66047   3.73719
 Alpha virt. eigenvalues --    3.73726   3.76526   3.78416   3.79174   3.79199
 Alpha virt. eigenvalues --    3.82453   3.89254   3.89283   3.90366   3.99157
 Alpha virt. eigenvalues --    3.99269   4.01281   4.08604   4.08668   4.09465
 Alpha virt. eigenvalues --    4.18176   4.18248   4.27407   4.30410   4.30462
 Alpha virt. eigenvalues --    4.47682   4.56553   4.56690   4.68814   4.71063
 Alpha virt. eigenvalues --    4.71127   5.04925   5.05154   5.34528
          Condensed to atoms (all electrons):
 Mulliken charges:
               1
     1  C   -0.171740
     2  C    1.148895
     3  C    0.710231
     4  C   -0.171662
     5  H   -0.977639
     6  C    0.711074
     7  C   -0.169466
     8  H   -0.978985
     9  C    0.700902
    10  C    1.150611
    11  H   -0.978953
    12  C    1.148987
    13  C    0.007791
    14  C    0.059112
    15  N   -0.550899
    16  N   -0.822447
    17  C    0.055103
    18  C    0.006892
    19  N   -0.823164
    20  N   -0.554495
    21  C    0.056797
    22  C    0.008134
    23  N   -0.822687
    24  N   -0.552583
    25  H    0.074455
    26  H   -0.284661
    27  H    0.145919
    28  H   -0.283175
    29  H    0.144388
    30  H    0.073875
    31  H    0.145826
    32  H   -0.285389
    33  C    0.776818
    34  H    0.074837
    35  C    0.778342
    36  C    0.777778
    37  H   -0.515797
    38  C    0.417822
    39  H   -0.029292
    40  H   -0.133702
    41  C    0.518734
    42  H   -0.155070
    43  H   -0.095662
    44  C    0.714952
    45  H   -0.146134
    46  H   -0.094873
    47  H   -0.131573
    48  H   -0.032525
    49  H   -0.426456
    50  H   -0.516606
    51  C    0.417557
    52  H   -0.029182
    53  H   -0.133856
    54  C    0.519976
    55  H   -0.154843
    56  H   -0.096503
    57  C    0.714160
    58  H   -0.094966
    59  H   -0.146315
    60  H   -0.424986
    61  H   -0.131280
    62  H   -0.032343
    63  H   -0.516417
    64  C    0.417290
    65  H   -0.028931
    66  H   -0.134134
    67  C    0.519263
    68  H   -0.154977
    69  H   -0.096001
    70  C    0.714689
    71  H   -0.095035
    72  H   -0.146385
    73  H   -0.131645
    74  H   -0.032110
    75  H   -0.425671
 Sum of Mulliken charges =   0.00000
 Mulliken charges with hydrogens summed into heavy atoms:
               1
     1  C   -0.171740
     2  C    0.865719
     3  C   -0.267408
     4  C   -0.171662
     6  C   -0.267911
     7  C   -0.169466
     9  C   -0.278051
    10  C    0.865951
    12  C    0.863599
    13  C   -0.418664
    14  C   -0.456685
    15  N   -0.406511
    16  N   -0.747609
    17  C   -0.461503
    18  C   -0.418093
    19  N   -0.749289
    20  N   -0.408669
    21  C   -0.459620
    22  C   -0.417537
    23  N   -0.748233
    24  N   -0.406664
    33  C    0.613824
    35  C    0.615304
    36  C    0.614713
    38  C    0.167090
    41  C    0.277727
    44  C    0.550854
    51  C    0.166211
    54  C    0.278695
    57  C    0.550537
    64  C    0.166312
    67  C    0.277844
    70  C    0.550933
 Electronic spatial extent (au):  <R**2>=          19858.4280
 Charge=              0.0000 electrons
 Dipole moment (field-independent basis, Debye):
    X=              0.0085    Y=              0.0034    Z=              2.6849  Tot=              2.6849
 Quadrupole moment (field-independent basis, Debye-Ang):
   XX=           -186.7959   YY=           -186.8896   ZZ=           -202.3677
   XY=             -0.0191   XZ=             -0.0011   YZ=              0.0220
 Traceless Quadrupole moment (field-independent basis, Debye-Ang):
   XX=              5.2218   YY=              5.1282   ZZ=            -10.3500
   XY=             -0.0191   XZ=             -0.0011   YZ=              0.0220
 Octapole moment (field-independent basis, Debye-Ang**2):
  XXX=            -11.8165  YYY=            102.3003  ZZZ=             11.2247  XYY=             11.8483
  XXY=           -102.6071  XXZ=            -10.3081  XZZ=              0.1529  YZZ=             -0.0389
  YYZ=            -10.6789  XYZ=              0.0484
 Hexadecapole moment (field-independent basis, Debye-Ang**3):
 XXXX=         -12083.1103 YYYY=         -12037.8709 ZZZZ=          -2324.4948 XXXY=             -0.2941
 XXXZ=            -79.6291 YYYX=              0.2218 YYYZ=            -49.0267 ZZZX=             -0.4946
 ZZZY=              0.0802 XXYY=          -4019.9810 XXZZ=          -2414.0281 YYZZ=          -2405.9685
 XXYZ=             49.1318 YYXZ=             80.0709 ZZXY=             -0.3929
 N-N= 3.503132647608D+03 E-N=-1.021180078130D+04  KE= 1.373195912846D+03
 Leave Link  601 at Mon Nov  8 19:04:32 2021, MaxMem=  7864320000 cpu:              41.2 elap:               1.5
 (Enter /apps/gaussian/g16-c01-avx/g16/l9999.exe)
 Unable to Open any file for archive entry.
 1\1\GINC-CX3-5-28\SP\RMP2-FC\Aug-CC-pVDZ\C27H42N6\ATARZIA\08-Nov-2021\
 0\\#P MP2/aug-cc-pVDZ SP SCF=(YQC,MaxCycle=900) int=(Grid=Superfinegri
 d) SCRF=(PCM,Solvent=Dichloromethane)\\_1_alde1_3_ami3_1_opt_dcm_mp2\\
 0,1\C,0,-1.4505,0.7346,-1.771\C,0,-1.3763,0.3993,-0.3011\C,0,-2.6569,1
 .0252,-2.3846\C,0,-2.6959,1.3696,-3.7309\H,0,-3.5705,0.9683,-1.8143\C,
 0,-1.5186,1.4255,-4.4572\C,0,-0.3027,1.1355,-3.8489\H,0,-1.5517,1.6814
 ,-5.5044\C,0,-0.2731,0.7932,-2.5078\C,0,0.9654,1.2485,-4.6599\H,0,0.66
 97,0.5571,-2.0401\C,0,-4.0234,1.7214,-4.3575\C,0,-1.5759,1.6816,1.6251
 \C,0,-2.9772,1.2854,1.1279\N,0,-0.748,1.52,0.4393\N,0,-2.7083,0.1377,0
 .274\C,0,-4.0581,3.2353,-6.1171\C,0,-4.9843,3.7375,-4.9956\N,0,-3.9334
 ,1.8147,-5.826\N,0,-4.5027,3.0198,-3.8249\C,0,2.9334,1.8259,-3.5727\C,
 0,2.6701,2.8256,-4.7125\N,0,2.1258,0.6764,-3.9534\N,0,1.2443,2.6737,-4
 .9607\H,0,2.6548,0.0779,-4.5792\H,0,0.8206,0.7276,-5.6166\H,0,0.7226,3
 .2567,-4.3103\H,0,-0.7372,-0.4854,-0.1724\H,0,-0.8012,2.3622,-0.129\H,
 0,-4.7007,1.3081,-6.2553\H,0,-3.7157,3.5212,-3.4194\H,0,-4.7597,0.9544
 ,-4.0795\C,0,-3.9241,1.1116,2.2974\H,0,-2.6866,-0.7085,0.8336\C,0,-4.5
 925,3.6526,-7.4717\C,0,4.4223,1.6305,-3.3734\H,0,-3.3543,2.0868,0.4755
 \C,0,-3.9814,2.4478,3.0451\H,0,-3.5553,0.3251,2.961\H,0,-4.9199,0.8282
 ,1.9526\C,0,-2.5943,2.9315,3.4789\H,0,-4.6187,2.3486,3.9259\H,0,-4.432
 8,3.1969,2.3903\C,0,-1.6201,3.0369,2.3009\H,0,-2.6889,3.9046,3.9649\H,
 0,-2.1846,2.2324,4.2118\H,0,-0.6296,3.3286,2.6539\H,0,-1.9677,3.7931,1
 .5922\H,0,-1.2346,0.9283,2.351\H,0,-3.0624,3.6794,-5.9707\C,0,-4.6654,
 5.1831,-7.4854\H,0,-5.5877,3.2275,-7.6261\H,0,-3.9416,3.2979,-8.2724\C
 ,0,-5.5024,5.7357,-6.3278\H,0,-5.0929,5.5218,-8.4312\H,0,-3.6512,5.583
 1,-7.4164\C,0,-4.9997,5.2521,-4.9634\H,0,-6.5401,5.4173,-6.4526\H,0,-5
 .4838,6.8269,-6.3599\H,0,-6.0034,3.3711,-5.191\H,0,-5.6516,5.6183,-4.1
 685\H,0,-3.9903,5.6292,-4.7797\H,0,2.4965,2.2302,-2.6476\C,0,5.0238,2.
 9981,-3.033\H,0,4.8722,1.2396,-4.2898\H,0,4.6169,0.9207,-2.5679\C,0,4.
 7067,4.0539,-4.0963\H,0,6.1068,2.9072,-2.929\H,0,4.6236,3.3275,-2.0712
 \C,0,3.2013,4.1959,-4.3447\H,0,5.1924,3.7742,-5.0342\H,0,5.1191,5.0149
 ,-3.7826\H,0,3.016,4.9134,-5.1457\H,0,2.7036,4.5558,-3.4405\H,0,3.1858
 ,2.4705,-5.6175\\Version=ES64L-G16RevC.01\State=1-A\HF=-1373.7548815\M
 P2=-1378.6799483\RMSD=4.485e-09\PG=C01 [X(C27H42N6)]\\@
 The archive entry for this job was punched.


 WHEN YOU REACH FOR THE STARS, YOU MAY NOT QUITE GET ONE,
 BUT YOU WON'T COME UP WITH A HANDFUL OF MUD, EITHER.

                                         -- LEO BURNETT (AD AGENCY HEAD)
 Job cpu time:       5 days 17 hours 52 minutes 54.3 seconds.
 Elapsed time:       0 days  4 hours 24 minutes 53.5 seconds.
 File lengths (MBytes):  RWF=1152896 Int=      0 D2E=      0 Chk=     96 Scr=     16
 Normal termination of Gaussian 16 at Mon Nov  8 19:04:33 2021.
