 Entering Gaussian System, Link 0=g16
 Initial command:
 /apps/gaussian/g16-c01-avx/g16/l1.exe "/rds/general/ephemeral/user/atarzia/ephemeral/Gau-289162.inp" -scrdir="/rds/general/ephemeral/user/atarzia/ephemeral/"
 Entering Link 1 = /apps/gaussian/g16-c01-avx/g16/l1.exe PID=    289163.
  
 Copyright (c) 1988-2019, Gaussian, Inc.  All Rights Reserved.
  
 This is part of the Gaussian(R) 16 program.  It is based on
 the Gaussian(R) 09 system (copyright 2009, Gaussian, Inc.),
 the Gaussian(R) 03 system (copyright 2003, Gaussian, Inc.),
 the Gaussian(R) 98 system (copyright 1998, Gaussian, Inc.),
 the Gaussian(R) 94 system (copyright 1995, Gaussian, Inc.),
 the Gaussian 92(TM) system (copyright 1992, Gaussian, Inc.),
 the Gaussian 90(TM) system (copyright 1990, Gaussian, Inc.),
 the Gaussian 88(TM) system (copyright 1988, Gaussian, Inc.),
 the Gaussian 86(TM) system (copyright 1986, Carnegie Mellon
 University), and the Gaussian 82(TM) system (copyright 1983,
 Carnegie Mellon University). Gaussian is a federally registered
 trademark of Gaussian, Inc.
  
 This software contains proprietary and confidential information,
 including trade secrets, belonging to Gaussian, Inc.
  
 This software is provided under written license and may be
 used, copied, transmitted, or stored only in accord with that
 written license.
  
 The following legend is applicable only to US Government
 contracts under FAR:
  
                    RESTRICTED RIGHTS LEGEND
  
 Use, reproduction and disclosure by the US Government is
 subject to restrictions as set forth in subparagraphs (a)
 and (c) of the Commercial Computer Software - Restricted
 Rights clause in FAR 52.227-19.
  
 Gaussian, Inc.
 340 Quinnipiac St., Bldg. 40, Wallingford CT 06492
  
  
 ---------------------------------------------------------------
 Warning -- This program may not be used in any manner that
 competes with the business of Gaussian, Inc. or will provide
 assistance to any competitor of Gaussian, Inc.  The licensee
 of this program is prohibited from giving any competitor of
 Gaussian, Inc. access to this program.  By using this program,
 the user acknowledges that Gaussian, Inc. is engaged in the
 business of creating and licensing software in the field of
 computational chemistry and represents and warrants to the
 licensee that it is not a competitor of Gaussian, Inc. and that
 it will not use this program in any manner prohibited above.
 ---------------------------------------------------------------
  

 Cite this work as:
 Gaussian 16, Revision C.01,
 M. J. Frisch, G. W. Trucks, H. B. Schlegel, G. E. Scuseria, 
 M. A. Robb, J. R. Cheeseman, G. Scalmani, V. Barone, 
 G. A. Petersson, H. Nakatsuji, X. Li, M. Caricato, A. V. Marenich, 
 J. Bloino, B. G. Janesko, R. Gomperts, B. Mennucci, H. P. Hratchian, 
 J. V. Ortiz, A. F. Izmaylov, J. L. Sonnenberg, D. Williams-Young, 
 F. Ding, F. Lipparini, F. Egidi, J. Goings, B. Peng, A. Petrone, 
 T. Henderson, D. Ranasinghe, V. G. Zakrzewski, J. Gao, N. Rega, 
 G. Zheng, W. Liang, M. Hada, M. Ehara, K. Toyota, R. Fukuda, 
 J. Hasegawa, M. Ishida, T. Nakajima, Y. Honda, O. Kitao, H. Nakai, 
 T. Vreven, K. Throssell, J. A. Montgomery, Jr., J. E. Peralta, 
 F. Ogliaro, M. J. Bearpark, J. J. Heyd, E. N. Brothers, K. N. Kudin, 
 V. N. Staroverov, T. A. Keith, R. Kobayashi, J. Normand, 
 K. Raghavachari, A. P. Rendell, J. C. Burant, S. S. Iyengar, 
 J. Tomasi, M. Cossi, J. M. Millam, M. Klene, C. Adamo, R. Cammi, 
 J. W. Ochterski, R. L. Martin, K. Morokuma, O. Farkas, 
 J. B. Foresman, and D. J. Fox, Gaussian, Inc., Wallingford CT, 2019.
 
 ******************************************
 Gaussian 16:  ES64L-G16RevC.01  3-Jul-2019
                18-Oct-2021 
 ******************************************
 %chk=_1_alde1_3_ami4_2_opt_cfm.chk
 %mem=60000mb
 %nprocshared=32
 Will use up to   32 processors via shared memory.
 ----------------------------------------------------------------------
 #P PBE1PBE/Def2TZVP SP SCF=(YQC,MaxCycle=900) int=(Grid=Superfinegrid)
  EmpiricalDispersion=GD3 SCRF=(PCM,Solvent=Chloroform)
 ----------------------------------------------------------------------
 1/38=1,172=1/1;
 2/12=2,17=6,18=5,40=1/2;
 3/5=44,7=101,11=2,25=1,30=1,70=2201,72=7,74=-13,75=-7,124=31/1,2,3;
 4//1;
 5/5=2,7=900,8=4,13=1,38=1,53=7/8,2,8;
 6/7=2,8=2,9=2,10=2,28=1/1;
 99/5=1,9=1/99;
 Leave Link    1 at Mon Oct 18 20:46:55 2021, MaxMem=  7864320000 cpu:               4.6 elap:               0.1
 (Enter /apps/gaussian/g16-c01-avx/g16/l101.exe)
 -------------------------
 _1_alde1_3_ami4_2_opt_cfm
 -------------------------
 Symbolic Z-matrix:
 Charge =  0 Multiplicity = 1
 C                    -0.872    -0.345    -1.1043 
 C                    -0.9763   -1.6702   -0.4649 
 C                    -1.9469    0.5299   -1.1924 
 C                    -1.8029    1.7806   -1.7969 
 H                    -2.924     0.2578   -0.8281 
 C                    -0.5718    2.1486   -2.3227 
 C                     0.5137    1.2753   -2.2575 
 H                    -0.4284    3.1084   -2.7946 
 C                     0.353     0.0323   -1.6541 
 C                     1.8029    1.654    -2.8188 
 H                     1.1917   -0.6484   -1.5975 
 C                    -2.9389    2.6896   -1.8681 
 C                    -3.7274   -1.4104    1.4381 
 C                    -2.2088   -1.1167    1.4918 
 N                    -4.0997   -2.7471    1.8404 
 N                    -1.5185   -2.0151    0.6181 
 H                    -1.8536   -1.3407    2.5044 
 C                    -5.1426    3.316    -1.3961 
 C                    -6.3839    2.5511   -1.8665 
 N                    -4.0378    2.4162   -1.3143 
 N                    -6.813     1.645    -0.817 
 C                     3.2595    3.1182   -3.9053 
 C                     3.7866    4.3718   -3.1965 
 N                     1.9813    2.771    -3.3759 
 H                     4.0027    2.3103   -3.8133 
 N                     5.0715    4.7461   -3.7608 
 H                     4.9631    5.0123   -4.7343 
 H                     5.4557    5.5417   -3.2633 
 H                    -3.8164   -2.9162    2.8003 
 H                    -3.6127   -3.4219    1.2592 
 H                    -7.5458    1.0294   -1.1527 
 H                    -6.0246    1.072    -0.534 
 H                    -0.4636   -2.4705   -0.9959 
 H                    -2.7701    3.6266   -2.4218 
 H                     2.6045    0.9037   -2.7295 
 H                    -2.0305   -0.0539    1.2782 
 H                     3.1215    3.3508   -4.9669 
 H                    -4.9446    4.1735   -2.0608 
 H                    -5.3425    3.6826   -0.3846 
 H                    -6.1419    2.0453   -2.8178 
 H                    -7.1936    3.2625   -2.0561 
 H                    -4.0831   -1.2657    0.4139 
 H                    -4.2426   -0.6965    2.0863 
 H                     3.0184    5.1587   -3.2671 
 H                     3.9381    4.1432   -2.1376 
 
 ITRead=  0  0  0  0  0  0  0  0  0  0  0  0  0  0  0  0  0  0  0  0
 ITRead=  0  0  0  0  0  0  0  0  0  0  0  0  0  0  0  0  0  0  0  0
 ITRead=  0  0  0  0  0
 MicOpt= -1 -1 -1 -1 -1 -1 -1 -1 -1 -1 -1 -1 -1 -1 -1 -1 -1 -1 -1 -1
 MicOpt= -1 -1 -1 -1 -1 -1 -1 -1 -1 -1 -1 -1 -1 -1 -1 -1 -1 -1 -1 -1
 MicOpt= -1 -1 -1 -1 -1
 NAtoms=     45 NQM=       45 NQMF=       0 NMMI=      0 NMMIF=      0
                NMic=       0 NMicF=      0.
                    Isotopes and Nuclear Properties:
 (Nuclear quadrupole moments (NQMom) in fm**2, nuclear magnetic moments (NMagM)
  in nuclear magnetons)

  Atom         1           2           3           4           5           6           7           8           9          10
 IAtWgt=          12          12          12          12           1          12          12           1          12          12
 AtmWgt=  12.0000000  12.0000000  12.0000000  12.0000000   1.0078250  12.0000000  12.0000000   1.0078250  12.0000000  12.0000000
 NucSpn=           0           0           0           0           1           0           0           1           0           0
 AtZEff=  -0.0000000  -0.0000000  -0.0000000  -0.0000000  -0.0000000  -0.0000000  -0.0000000  -0.0000000  -0.0000000  -0.0000000
 NQMom=    0.0000000   0.0000000   0.0000000   0.0000000   0.0000000   0.0000000   0.0000000   0.0000000   0.0000000   0.0000000
 NMagM=    0.0000000   0.0000000   0.0000000   0.0000000   2.7928460   0.0000000   0.0000000   2.7928460   0.0000000   0.0000000
 AtZNuc=   6.0000000   6.0000000   6.0000000   6.0000000   1.0000000   6.0000000   6.0000000   1.0000000   6.0000000   6.0000000

  Atom        11          12          13          14          15          16          17          18          19          20
 IAtWgt=           1          12          12          12          14          14           1          12          12          14
 AtmWgt=   1.0078250  12.0000000  12.0000000  12.0000000  14.0030740  14.0030740   1.0078250  12.0000000  12.0000000  14.0030740
 NucSpn=           1           0           0           0           2           2           1           0           0           2
 AtZEff=  -0.0000000  -0.0000000  -0.0000000  -0.0000000  -0.0000000  -0.0000000  -0.0000000  -0.0000000  -0.0000000  -0.0000000
 NQMom=    0.0000000   0.0000000   0.0000000   0.0000000   2.0440000   2.0440000   0.0000000   0.0000000   0.0000000   2.0440000
 NMagM=    2.7928460   0.0000000   0.0000000   0.0000000   0.4037610   0.4037610   2.7928460   0.0000000   0.0000000   0.4037610
 AtZNuc=   1.0000000   6.0000000   6.0000000   6.0000000   7.0000000   7.0000000   1.0000000   6.0000000   6.0000000   7.0000000

  Atom        21          22          23          24          25          26          27          28          29          30
 IAtWgt=          14          12          12          14           1          14           1           1           1           1
 AtmWgt=  14.0030740  12.0000000  12.0000000  14.0030740   1.0078250  14.0030740   1.0078250   1.0078250   1.0078250   1.0078250
 NucSpn=           2           0           0           2           1           2           1           1           1           1
 AtZEff=  -0.0000000  -0.0000000  -0.0000000  -0.0000000  -0.0000000  -0.0000000  -0.0000000  -0.0000000  -0.0000000  -0.0000000
 NQMom=    2.0440000   0.0000000   0.0000000   2.0440000   0.0000000   2.0440000   0.0000000   0.0000000   0.0000000   0.0000000
 NMagM=    0.4037610   0.0000000   0.0000000   0.4037610   2.7928460   0.4037610   2.7928460   2.7928460   2.7928460   2.7928460
 AtZNuc=   7.0000000   6.0000000   6.0000000   7.0000000   1.0000000   7.0000000   1.0000000   1.0000000   1.0000000   1.0000000

  Atom        31          32          33          34          35          36          37          38          39          40
 IAtWgt=           1           1           1           1           1           1           1           1           1           1
 AtmWgt=   1.0078250   1.0078250   1.0078250   1.0078250   1.0078250   1.0078250   1.0078250   1.0078250   1.0078250   1.0078250
 NucSpn=           1           1           1           1           1           1           1           1           1           1
 AtZEff=  -0.0000000  -0.0000000  -0.0000000  -0.0000000  -0.0000000  -0.0000000  -0.0000000  -0.0000000  -0.0000000  -0.0000000
 NQMom=    0.0000000   0.0000000   0.0000000   0.0000000   0.0000000   0.0000000   0.0000000   0.0000000   0.0000000   0.0000000
 NMagM=    2.7928460   2.7928460   2.7928460   2.7928460   2.7928460   2.7928460   2.7928460   2.7928460   2.7928460   2.7928460
 AtZNuc=   1.0000000   1.0000000   1.0000000   1.0000000   1.0000000   1.0000000   1.0000000   1.0000000   1.0000000   1.0000000

  Atom        41          42          43          44          45
 IAtWgt=           1           1           1           1           1
 AtmWgt=   1.0078250   1.0078250   1.0078250   1.0078250   1.0078250
 NucSpn=           1           1           1           1           1
 AtZEff=  -0.0000000  -0.0000000  -0.0000000  -0.0000000  -0.0000000
 NQMom=    0.0000000   0.0000000   0.0000000   0.0000000   0.0000000
 NMagM=    2.7928460   2.7928460   2.7928460   2.7928460   2.7928460
 AtZNuc=   1.0000000   1.0000000   1.0000000   1.0000000   1.0000000
 Leave Link  101 at Mon Oct 18 20:46:55 2021, MaxMem=  7864320000 cpu:               2.0 elap:               0.1
 (Enter /apps/gaussian/g16-c01-avx/g16/l202.exe)
                          Input orientation:                          
 ---------------------------------------------------------------------
 Center     Atomic      Atomic             Coordinates (Angstroms)
 Number     Number       Type             X           Y           Z
 ---------------------------------------------------------------------
      1          6           0       -0.872000   -0.345000   -1.104300
      2          6           0       -0.976300   -1.670200   -0.464900
      3          6           0       -1.946900    0.529900   -1.192400
      4          6           0       -1.802900    1.780600   -1.796900
      5          1           0       -2.924000    0.257800   -0.828100
      6          6           0       -0.571800    2.148600   -2.322700
      7          6           0        0.513700    1.275300   -2.257500
      8          1           0       -0.428400    3.108400   -2.794600
      9          6           0        0.353000    0.032300   -1.654100
     10          6           0        1.802900    1.654000   -2.818800
     11          1           0        1.191700   -0.648400   -1.597500
     12          6           0       -2.938900    2.689600   -1.868100
     13          6           0       -3.727400   -1.410400    1.438100
     14          6           0       -2.208800   -1.116700    1.491800
     15          7           0       -4.099700   -2.747100    1.840400
     16          7           0       -1.518500   -2.015100    0.618100
     17          1           0       -1.853600   -1.340700    2.504400
     18          6           0       -5.142600    3.316000   -1.396100
     19          6           0       -6.383900    2.551100   -1.866500
     20          7           0       -4.037800    2.416200   -1.314300
     21          7           0       -6.813000    1.645000   -0.817000
     22          6           0        3.259500    3.118200   -3.905300
     23          6           0        3.786600    4.371800   -3.196500
     24          7           0        1.981300    2.771000   -3.375900
     25          1           0        4.002700    2.310300   -3.813300
     26          7           0        5.071500    4.746100   -3.760800
     27          1           0        4.963100    5.012300   -4.734300
     28          1           0        5.455700    5.541700   -3.263300
     29          1           0       -3.816400   -2.916200    2.800300
     30          1           0       -3.612700   -3.421900    1.259200
     31          1           0       -7.545800    1.029400   -1.152700
     32          1           0       -6.024600    1.072000   -0.534000
     33          1           0       -0.463600   -2.470500   -0.995900
     34          1           0       -2.770100    3.626600   -2.421800
     35          1           0        2.604500    0.903700   -2.729500
     36          1           0       -2.030500   -0.053900    1.278200
     37          1           0        3.121500    3.350800   -4.966900
     38          1           0       -4.944600    4.173500   -2.060800
     39          1           0       -5.342500    3.682600   -0.384600
     40          1           0       -6.141900    2.045300   -2.817800
     41          1           0       -7.193600    3.262500   -2.056100
     42          1           0       -4.083100   -1.265700    0.413900
     43          1           0       -4.242600   -0.696500    2.086300
     44          1           0        3.018400    5.158700   -3.267100
     45          1           0        3.938100    4.143200   -2.137600
 ---------------------------------------------------------------------
                    Distance matrix (angstroms):
                    1          2          3          4          5
     1  C    0.000000
     2  C    1.475082   0.000000
     3  C    1.388748   2.512322   0.000000
     4  C    2.421662   3.790186   1.396570   0.000000
     5  H    2.156469   2.764531   1.077719   2.124702   0.000000
     6  C    2.791534   4.265944   2.405965   1.388343   3.367759
     7  C    2.423924   3.756259   2.782914   2.415391   3.859569
     8  H    3.870383   5.344410   3.394341   2.155854   4.268614
     9  C    1.394726   2.465713   2.397981   2.779361   3.387013
    10  C    3.753745   4.931035   4.239077   3.749947   5.315623
    11  H    2.143398   2.650864   3.376878   3.861014   4.283942
    12  C    3.750235   4.982833   2.470817   1.456656   2.644896
    13  C    3.968902   3.355213   3.722160   4.934714   2.926432
    14  C    3.020313   2.377834   3.159875   4.401664   2.789749
    15  N    4.985919   4.028616   4.956930   6.245423   4.187193
    16  N    2.484725   1.259296   3.152533   4.507821   3.038585
    17  H    3.870100   3.113674   4.144174   5.314722   3.847923
    18  C    5.632592   6.564098   4.244567   3.697525   3.820654
    19  C    6.272909   7.001856   4.922055   4.645866   4.278832
    20  N    4.206021   5.176189   2.818661   2.373114   2.477021
    21  N    6.272011   6.721725   5.006326   5.106828   4.129015
    22  C    6.075249   7.259968   6.416052   5.644681   7.475742
    23  C    6.951838   8.164106   7.186768   6.317888   8.219882
    24  N    4.796972   6.078287   5.022047   4.218329   6.072020
    25  H    6.176730   7.200459   6.740674   6.168585   7.816863
    26  N    8.264471   9.413169   8.580848   7.740056   9.626712
    27  H    8.713550   9.907576   8.965772   8.053009  10.003500
    28  H    8.908103  10.060476   9.176342   8.305629  10.201430
    29  H    5.525076   4.503356   5.595738   6.873744   4.902646
    30  H    4.750251   3.604383   4.939834   6.299296   4.286178
    31  H    6.814024   7.135772   5.621277   5.827538   4.696996
    32  H    5.374236   5.745413   4.165933   4.463158   3.219183
    33  H    2.167093   1.088716   3.352789   4.528485   3.677682
    34  H    4.594801   5.924801   3.432001   2.175705   3.729930
    35  H    4.035663   4.957369   4.818469   4.589539   5.881906
    36  H    2.665177   2.600416   2.540015   3.587957   2.309112
    37  H    6.672830   7.891160   6.920477   6.063344   7.952634
    38  H    6.157744   7.241763   4.797514   3.958016   4.575487
    39  H    6.060107   6.908156   4.703420   4.259221   4.216051
    40  H    6.035020   6.784136   4.747251   4.465336   4.184369
    41  H    7.340477   8.094335   5.978373   5.596683   5.363366
    42  H    3.669303   3.253939   3.219896   4.400783   2.281913
    43  H    4.654506   4.257397   4.186188   5.212236   3.338131
    44  H    7.078392   8.393082   7.098195   6.067782   8.079583
    45  H    6.659483   7.793900   6.970119   6.217478   7.993719
                    6          7          8          9         10
     6  C    0.000000
     7  C    1.394709   0.000000
     8  H    1.079106   2.129855   0.000000
     9  C    2.404372   1.391030   3.372494   0.000000
    10  C    2.475872   1.456196   2.663562   2.467518   0.000000
    11  H    3.385123   2.143806   4.262783   1.081653   2.676973
    12  C    2.470325   3.751310   2.708580   4.235994   4.945803
    13  C    6.063655   6.233568   7.015604   5.319093   7.622071
    14  C    5.281322   5.214491   6.276505   4.216599   6.507825
    15  N    7.331123   7.365864   8.321571   6.305801   8.713123
    16  N    5.184684   4.819299   6.251807   3.585701   6.025469
    17  H    6.092546   5.926488   7.064353   4.903808   7.118615
    18  C    4.807663   6.074553   4.921644   6.407095   7.281915
    19  C    5.843854   7.025484   6.053093   7.195505   8.290679
    20  N    3.619618   4.786171   3.962095   5.007751   6.079329
    21  N    6.439978   7.476112   6.842190   7.392773   8.845395
    22  C    4.257183   3.694718   3.851540   4.799836   2.333677
    23  C    4.970090   4.602381   4.418589   5.744551   3.385877
    24  N    2.831065   2.375245   2.501680   3.621662   1.260903
    25  H    4.813947   3.957886   4.616206   4.813703   2.501775
    26  N    6.376674   5.922829   5.819322   6.994450   4.596976
    27  H    6.682194   6.316397   6.037843   7.452587   4.993414
    28  H    6.980588   6.605843   6.384611   7.679880   5.353012
    29  H    7.900934   7.867641   8.892539   6.776373   9.167199
    30  H    7.287493   7.173426   8.319728   6.012120   8.468977
    31  H    7.159482   8.138586   7.594436   7.977258   9.516523
    32  H    5.838796   6.764699   6.369827   6.558154   8.174888
    33  H    4.807098   4.071580   5.861799   2.713682   5.046928
    34  H    2.650816   4.042147   2.427153   4.823081   4.996107
    35  H    3.435716   2.175389   3.750123   2.642929   1.101584
    36  H    4.466015   4.554218   5.399497   3.779800   5.864920
    37  H    4.698675   4.295250   4.168865   5.445335   3.038449
    38  H    4.825991   6.183146   4.697761   6.736431   7.242320
    39  H    5.372985   6.602873   5.503289   6.882953   7.816475
    40  H    5.593014   6.723381   5.811609   6.898557   7.954430
    41  H    6.720125   7.961909   6.807133   8.218696   9.170932
    42  H    5.610317   5.892676   6.540952   5.063636   7.322567
    43  H    6.403799   6.736392   7.269702   5.970032   8.132215
    44  H    4.779344   4.730075   4.038244   5.998842   3.736487
    45  H    4.934763   4.468304   4.535282   5.475967   3.349512
                   11         12         13         14         15
    11  H    0.000000
    12  C    5.317643   0.000000
    13  C    5.830356   5.325663   0.000000
    14  C    4.618060   5.129317   1.547672   0.000000
    15  N    6.650008   6.682674   1.444721   2.520958   0.000000
    16  N    3.757916   5.507534   2.432550   1.430730   2.948294
    17  H    5.155455   6.044828   2.157077   1.096222   2.732000
    18  C    7.475318   2.339114   5.689845   6.049461   6.951529
    19  C    8.227933   3.447783   5.802659   6.493258   6.857813
    20  N    6.067919   1.260565   4.723867   4.868349   6.051085
    21  N    8.363258   4.147849   4.893043   5.844331   5.806403
    22  C    4.877398   6.538658   9.893276   8.772991  11.025998
    23  C    5.873050   7.058810  10.553367   9.383422  11.757671
    24  N    3.934269   5.146694   8.558502   7.507706   9.728195
    25  H    4.643856   7.218967  10.058591   8.858394  11.099122
    26  N    6.988086   8.483986  11.931123  10.722173  13.100855
    27  H    7.490427   8.720759  12.444854  11.303323  13.622383
    28  H    7.698956   8.974986  12.440425  11.211147  13.640294
    29  H    7.040215   7.347718   2.032472   2.744950   1.015018
    30  H    6.239815   6.898148   2.022695   2.709056   1.015046
    31  H    8.908241   4.948898   5.219679   6.331090   5.924205
    32  H    7.494384   3.730683   3.915178   4.842995   4.891681
    33  H    2.534164   5.789169   4.207203   3.326732   4.619776
    34  H    5.886506   1.101384   6.417680   6.174967   7.781917
    35  H    2.384626   5.887337   7.925712   6.713363   8.897113
    36  H    4.359547   4.272141   2.178332   1.098617   3.442526
    37  H    5.574099   6.838728  10.516676   9.491336  11.647723
    38  H    7.817899   2.502384   6.701031   6.934824   7.989238
    39  H    7.932494   2.994013   5.645302   6.031105   6.916373
    40  H    7.907392   3.402391   5.990355   6.636277   6.988312
    41  H    9.263839   4.297212   6.786750   7.524176   7.801937
    42  H    5.678935   4.707559   1.093822   2.167272   2.056629
    43  H    6.565387   5.366804   1.093274   2.160171   2.070229
    44  H    6.312433   6.598718  10.526053   9.452587  11.800660
    45  H    5.549221   7.034111  10.118695   8.866988  11.309595
                   16         17         18         19         20
    16  N    0.000000
    17  H    2.031067   0.000000
    18  C    6.753646   6.907697   0.000000
    19  C    7.120080   7.400979   1.532049   0.000000
    20  N    5.451372   5.785110   1.427205   2.413982   0.000000
    21  N    6.594511   6.673961   2.432660   1.451411   2.922977
    22  C    8.345130   9.333265   8.771003   9.872865   7.775389
    23  C    9.137163   9.846054   9.169884  10.417433   8.281804
    24  N    7.148943   8.135752   7.413945   8.503130   6.372256
    25  H    8.296387   9.356248   9.512665  10.570216   8.420562
    26  N   10.407530  11.147147  10.581344  11.816623   9.715613
    27  H   10.956444  11.799440  10.777114  11.959774   9.972579
    28  H   10.991358  11.578414  10.989274  12.291089  10.183020
    29  H    3.294590   2.534234   7.629475   7.632984   6.738950
    30  H    2.603031   2.996056   7.402061   7.288778   6.394296
    31  H    6.980907   7.168884   3.326132   2.043304   3.775631
    32  H    5.582334   5.696511   2.560601   2.022966   2.522522
    33  H    1.981212   3.932003   7.452301   7.811809   6.062683
    34  H    6.529646   7.055600   2.603323   3.811116   2.073328
    35  H    6.060111   7.232268   8.222816   9.178782   6.957772
    36  H    2.131709   1.786257   5.309734   5.968857   4.105083
    37  H    9.028550  10.128283   9.002620  10.030186   8.091387
    38  H    7.563956   7.797547   1.102876   2.177503   2.113682
    39  H    6.934852   6.764044   1.094298   2.135611   2.042144
    40  H    7.047559   7.627603   2.152791   1.104251   2.612531
    41  H    8.198242   8.396619   2.155241   1.094373   3.350457
    42  H    2.679640   3.057202   5.038910   5.006183   4.067569
    43  H    3.363783   2.509407   5.388624   5.545872   4.614642
    44  H    9.334969   9.964376   8.573104   9.857206   7.818228
    45  H    8.677155   9.228495   9.148398  10.447582   8.202154
                   21         22         23         24         25
    21  N    0.000000
    22  C   10.637818   0.000000
    23  C   11.200401   1.533540   0.000000
    24  N    9.227977   1.426397   2.419474   0.000000
    25  H   11.242767   1.101596   2.162620   2.118873   0.000000
    26  N   12.630286   2.440140   1.452413   3.687615   2.660491
    27  H   12.859257   2.679013   2.039417   3.969862   3.011879
    28  H   13.103040   3.332988   2.039368   4.445325   3.585478
    29  H    6.547443  11.465052  12.119495  10.203089  11.497579
    30  H    6.342397  10.801486  11.633773   9.546151  10.797346
    31  H    1.014226  11.344355  11.990498   9.936872  11.920040
    32  H    1.014885  10.086977  10.688182   8.663569  10.622332
    33  H    7.568634   7.318446   8.350084   6.254219   7.123316
    34  H    4.779871   6.230194   6.644230   4.921195   7.038447
    35  H    9.638282   2.591436   3.693666   2.071961   2.260113
    36  H    5.490759   8.056984   8.570205   6.762784   8.240893
    37  H   10.900721   1.095510   2.149213   2.041447   1.786042
    38  H    3.381016   8.474851   8.806985   7.187808   9.305748
    39  H    2.549736   9.311728   9.577173   7.963475  10.048480
    40  H    2.147980   9.524710  10.204466   8.174625  10.196772
    41  H    2.072808  10.616387  11.094857   9.282361  11.373283
    42  H    4.176080   9.580597  10.331920   8.211850   9.799855
    43  H    4.529760  10.331152  10.865712   8.977534  10.575022
    44  H   10.724062   2.151527   1.101965   2.605480   3.062771
    45  H   11.116256   2.153111   1.093837   2.691725   2.484284
                   26         27         28         29         30
    26  N    0.000000
    27  H    1.015044   0.000000
    28  H    1.013950   1.639134   0.000000
    29  H   13.444465  14.025367  13.938262   0.000000
    30  H   12.935685  13.438829  13.529043   1.634691   0.000000
    31  H   13.409411  13.607495  13.923164   6.715831   6.410976
    32  H   12.125786  12.405565  12.618422   5.647959   5.406289
    33  H    9.505857   9.970808  10.216387   5.084393   3.988417
    34  H    8.033486   8.189640   8.487610   8.436427   7.996317
    35  H    4.681208   5.144202   5.470405   9.295068   8.560030
    36  H    9.943336  10.522689  10.391302   3.701214   3.721175
    37  H    2.684034   2.491220   3.626401  12.154799  11.401019
    38  H   10.175467  10.296296  10.558609   8.669889   8.395621
    39  H   10.999143  11.264696  11.328914   7.484433   7.494545
    40  H   11.572550  11.653201  12.121370   7.847769   7.273861
    41  H   12.471558  12.570597  12.909565   8.553738   8.276186
    42  H   11.720775  12.155286  12.282150   2.913792   2.363262
    43  H   12.270409  12.800621  12.711821   2.370340   2.916963
    44  H    2.151557   2.440485   2.467212  12.195567  11.750982
    45  H    2.069508   2.923835   2.350768  11.590956  11.215327
                   31         32         33         34         35
    31  H    0.000000
    32  H    1.642758   0.000000
    33  H    7.901357   6.609643   0.000000
    34  H    5.582416   4.547696   6.672913   0.000000
    35  H   10.272813   8.905611   4.878917   6.032843   0.000000
    36  H    6.123834   4.528195   3.669695   5.270967   6.201764
    37  H   11.564096  10.416078   7.906283   6.423749   3.355823
    38  H    4.180461   3.621715   8.084313   2.271095   8.253948
    39  H    3.533267   2.702372   7.876420   3.281853   8.739316
    40  H    2.403237   2.485320   7.480298   3.745178   8.821029
    41  H    2.434525   2.912325   8.904168   4.453499  10.100503
    42  H    4.439821   3.183202   4.066923   5.805150   7.701380
    43  H    4.937710   3.628924   5.189207   6.417197   8.522637
    44  H   11.537943  10.293046   8.688347   6.047197   4.308753
    45  H   11.939252  10.547947   8.026174   6.734062   3.552914
                   36         37         38         39         40
    36  H    0.000000
    37  H    8.782731   0.000000
    38  H    6.124689   8.613026   0.000000
    39  H    5.262669   9.630517   1.791355   0.000000
    40  H    6.171504   9.598622   2.556523   3.039779   0.000000
    41  H    6.983815  10.718295   2.426509   2.529223   1.779841
    42  H    2.535476  10.107984   6.037484   5.168110   5.064115
    43  H    2.441177  10.970790   6.434916   5.147003   5.930852
    44  H    8.562847   2.483637   8.113886   8.966177   9.685361
    45  H    8.056521   3.049536   8.883084   9.455935  10.318443
                   41         42         43         44         45
    41  H    0.000000
    42  H    6.023347   0.000000
    43  H    6.445274   1.773796   0.000000
    44  H   10.456913  10.259336  10.754738   0.000000
    45  H   11.166782  10.005299  10.401340   1.775629   0.000000
 Stoichiometry    C15H24N6
 Framework group  C1[X(C15H24N6)]
 Deg. of freedom   129
 Full point group                 C1      NOp   1
 Largest Abelian subgroup         C1      NOp   1
 Largest concise Abelian subgroup C1      NOp   1
                         Standard orientation:                         
 ---------------------------------------------------------------------
 Center     Atomic      Atomic             Coordinates (Angstroms)
 Number     Number       Type             X           Y           Z
 ---------------------------------------------------------------------
      1          6           0       -0.362819   -1.562710   -0.526628
      2          6           0       -1.197398   -2.767940   -0.690230
      3          6           0       -0.903432   -0.302319   -0.308054
      4          6           0       -0.076975    0.811984   -0.147728
      5          1           0       -1.969269   -0.143988   -0.288084
      6          6           0        1.301014    0.657176   -0.216111
      7          6           0        1.859924   -0.598769   -0.451559
      8          1           0        1.966024    1.498330   -0.094902
      9          6           0        1.022733   -1.698111   -0.611316
     10          6           0        3.304506   -0.761935   -0.535623
     11          1           0        1.449932   -2.675435   -0.791076
     12          6           0       -0.662619    2.123707    0.093623
     13          6           0       -4.145143   -1.868807    0.636351
     14          6           0       -2.774669   -2.449516    1.060460
     15          7           0       -5.119240   -2.854130    0.227090
     16          7           0       -2.199208   -3.163501   -0.037747
     17          1           0       -2.947504   -3.189809    1.850267
     18          6           0       -2.462851    3.564592    0.486649
     19          6           0       -3.618815    3.798877   -0.491121
     20          7           0       -1.904068    2.272034    0.254334
     21          7           0       -4.725149    2.927197   -0.140704
     22          6           0        5.502339    0.020284   -0.474664
     23          6           0        6.150440    0.439590    0.850437
     24          7           0        4.091162    0.214037   -0.399505
     25          1           0        5.787323   -1.018634   -0.704765
     26          7           0        7.590879    0.276414    0.760925
     27          1           0        7.972727    0.906549    0.062758
     28          1           0        8.025831    0.498722    1.649458
     29          1           0       -5.311706   -3.495106    0.990220
     30          1           0       -4.742246   -3.402641   -0.539283
     31          1           0       -5.447545    2.961754   -0.851762
     32          1           0       -4.386119    1.972447   -0.081501
     33          1           0       -0.865500   -3.445059   -1.475504
     34          1           0        0.046442    2.965322    0.137919
     35          1           0        3.661562   -1.785865   -0.729439
     36          1           0       -2.140012   -1.645585    1.457783
     37          1           0        5.880207    0.673442   -1.268856
     38          1           0       -1.716853    4.372320    0.400634
     39          1           0       -2.879262    3.564743    1.498622
     40          1           0       -3.242695    3.647330   -1.518222
     41          1           0       -3.959075    4.835282   -0.403141
     42          1           0       -3.998341   -1.184657   -0.204384
     43          1           0       -4.556710   -1.301186    1.475198
     44          1           0        5.828246    1.467204    1.083950
     45          1           0        5.786496   -0.216458    1.646443
 ---------------------------------------------------------------------
 Rotational constants (GHZ):           0.3657374           0.1263789           0.0974064
 Leave Link  202 at Mon Oct 18 20:46:55 2021, MaxMem=  7864320000 cpu:               0.2 elap:               0.0
 (Enter /apps/gaussian/g16-c01-avx/g16/l301.exe)
 Standard basis: def2TZVP (5D, 7F)
 Ernie: Thresh=  0.10000D-02 Tol=  0.10000D-05 Strict=F.
 There are   900 symmetry adapted cartesian basis functions of A   symmetry.
 There are   795 symmetry adapted basis functions of A   symmetry.
   795 basis functions,  1263 primitive gaussians,   900 cartesian basis functions
    78 alpha electrons       78 beta electrons
       nuclear repulsion energy      1563.4281750939 Hartrees.
 IExCor= 1009 DFT=T Ex+Corr=PBE1PBE ExCW=0 ScaHFX=  0.250000
 ScaDFX=  0.750000  0.750000  1.000000  1.000000 ScalE2=  1.000000  1.000000
 IRadAn=      7 IRanWt=     -1 IRanGd=            0 ICorTp=0 IEmpDi=131
 NAtoms=   45 NActive=   45 NUniq=   45 SFac= 1.00D+00 NAtFMM=   60 NAOKFM=F Big=F
 Integral buffers will be    131072 words long.
 Raffenetti 2 integral format.
 Two-electron integral symmetry is turned on.
 R6Disp:  Grimme-D3 Dispersion energy=       -0.0241316341 Hartrees.
 Nuclear repulsion after empirical dispersion term =     1563.4040434598 Hartrees.
 ------------------------------------------------------------------------------
 Polarizable Continuum Model (PCM)
 =================================
 Model                : PCM.
 Atomic radii         : UFF (Universal Force Field).
 Polarization charges : Total charges.
 Charge compensation  : None.
 Solution method      : On-the-fly selection.
 Cavity type          : Scaled VdW (van der Waals Surface) (Alpha=1.100).
 Cavity algorithm     : GePol (No added spheres)
                        Default sphere list used, NSphG=   45.
                        Lebedev-Laikov grids with approx.  5.0 points / Ang**2.
                        Smoothing algorithm: York/Karplus (Gamma=1.0000).
                        Polarization charges: spherical gaussians, with
                                              point-specific exponents (IZeta= 3).
                        Self-potential: point-specific (ISelfS= 7).
                        Self-field    : sphere-specific E.n sum rule (ISelfD= 2).
 Solvent              : Chloroform, Eps=   4.711300 Eps(inf)=   2.090627
 ------------------------------------------------------------------------------
 GePol: Number of generator spheres                  =      45
 GePol: Total number of spheres                      =      45
 GePol: Number of exposed spheres                    =      45 (100.00%)
 GePol: Number of points                             =    3268
 GePol: Average weight of points                     =       0.13
 GePol: Minimum weight of points                     =   0.20D-11
 GePol: Maximum weight of points                     =    0.20577
 GePol: Number of points with low weight             =     212
 GePol: Fraction of low-weight points (<1% of avg)   =       6.49%
 GePol: Cavity surface area                          =    426.834 Ang**2
 GePol: Cavity volume                                =    445.800 Ang**3
 Leave Link  301 at Mon Oct 18 20:46:55 2021, MaxMem=  7864320000 cpu:               1.3 elap:               0.1
 (Enter /apps/gaussian/g16-c01-avx/g16/l302.exe)
 NPDir=0 NMtPBC=     1 NCelOv=     1 NCel=       1 NClECP=     1 NCelD=      1
         NCelK=      1 NCelE2=     1 NClLst=     1 CellRange=     0.0.
 One-electron integrals computed using PRISM.
 One-electron integral symmetry used in STVInt
   1 Symmetry operations used in ECPInt.
 ECPInt:  NShTT=   53628 NPrTT=  159864 LenC2=   42244 LenP2D=   88231.
 LDataN:  DoStor=T MaxTD1= 6 Len=  172
 NBasis=   795 RedAO= T EigKep=  5.23D-06  NBF=   795
 NBsUse=   795 1.00D-06 EigRej= -1.00D+00 NBFU=   795
 Precomputing XC quadrature grid using
 IXCGrd= 4 IRadAn=           7 IRanWt=          -1 IRanGd=           0 AccXCQ= 0.00D+00.
 Generated NRdTot=       0 NPtTot=           0 NUsed=           0 NTot=          32
 NSgBfM=   862   862   862   862   862 MxSgAt=    45 MxSgA2=    45.
 Leave Link  302 at Mon Oct 18 20:46:56 2021, MaxMem=  7864320000 cpu:              38.9 elap:               1.2
 (Enter /apps/gaussian/g16-c01-avx/g16/l303.exe)
 DipDrv:  MaxL=1.
 Leave Link  303 at Mon Oct 18 20:46:56 2021, MaxMem=  7864320000 cpu:               3.1 elap:               0.1
 (Enter /apps/gaussian/g16-c01-avx/g16/l401.exe)
 ExpMin= 9.52D-02 ExpMax= 1.97D+04 ExpMxC= 6.73D+02 IAcc=3 IRadAn=         7 AccDes= 0.00D+00
 Harris functional with IExCor= 1009 and IRadAn=       7 diagonalized for initial guess.
 HarFok:  IExCor= 1009 AccDes= 0.00D+00 IRadAn=         7 IDoV= 1 UseB2=F ITyADJ=14
 ICtDFT=  3500011 ScaDFX=  1.000000  1.000000  1.000000  1.000000
 FoFCou: FMM=F IPFlag=           0 FMFlag=      100000 FMFlg1=           0
         NFxFlg=           0 DoJE=T BraDBF=F KetDBF=T FulRan=T
         wScrn=  0.000000 ICntrl=       500 IOpCl=  0 I1Cent=   200000004 NGrid=           0
         NMat0=    1 NMatS0=      1 NMatT0=    0 NMatD0=    1 NMtDS0=    0 NMtDT0=    0
 Petite list used in FoFCou.
 Harris En= -914.028828939627    
 JPrj=0 DoOrth=F DoCkMO=F.
 Leave Link  401 at Mon Oct 18 20:47:02 2021, MaxMem=  7864320000 cpu:             175.0 elap:               5.5
 (Enter /apps/gaussian/g16-c01-avx/g16/l508.exe)
 Integral symmetry usage will be decided dynamically.
 Tight linear equation convergence will be used.
 RPBE1PBE wavefunction.
 Linear searches until partial convergence.
 Full line searches.
 Fock matrices will be formed incrementally for  20 cycles.
 Inv3:  Mode=1 IEnd=    32039472.
 Iteration    1 A*A^-1 deviation from unit magnitude is 7.77D-15 for   3264.
 Iteration    1 A*A^-1 deviation from orthogonality  is 2.36D-15 for   3263   3045.
 Iteration    1 A^-1*A deviation from unit magnitude is 7.55D-15 for   3264.
 Iteration    1 A^-1*A deviation from orthogonality  is 2.62D-15 for   3266   3253.
 FoFJK:  IHMeth= 1 ICntrl=       0 DoSepK=F KAlg= 0 I1Cent=           0 FoldK=F
 IRaf= 700000000 NMat=       1 IRICut=       1 DoRegI=T DoRafI=F ISym2E= 1 IDoP0=0 IntGTp=1.
 Iteration   1 EE= -913.305148992143                                    Grad=1.052D+00 Max rot=    2.0214 deg.
 Gradient too large for Newton-Raphson -- use scaled steepest descent instead.
 Alpha Gap=     0.184 HL deriv= 5.17D-03
     ILin= 1 X=0.000D+00 Y=-9.133051489921D+02 DE= 0.00D+00 F= -2.04D+00
 RMSU=  7.65D-04    CP:  9.98D-01
     ILin= 2 X=3.000D-01 Y=-9.137101274485D+02 DE=-4.05D-01 F= -6.48D-01 OKLS=F
 RMSU=  1.28D-04    CP:  9.97D-01  1.74D+00
     ILin= 3 X=5.000D-01 Y=-9.137450540166D+02 DE=-4.40D-01 F=  3.00D-01
     Accept linear search using points  2 and  3.
     An  expanding polynomial of degree  3 produced  0.3924
 RMSU=  6.81D-08    CP:  9.97D-01  1.33D+00  3.63D-01
 Iteration   2 EE= -913.749845449174     Delta-E=       -0.444696457031 Grad=3.296D-01 Max rot=    1.7510 deg.
 Gradient too large for Newton-Raphson -- use scaled steepest descent instead.
 Alpha Gap=     0.206 HL deriv= 3.29D-03
     ILin= 1 X=0.000D+00 Y=-9.137498454492D+02 DE= 0.00D+00 F= -9.70D-02
 RMSU=  1.27D-04    CP:  9.96D-01  1.55D+00  7.86D-01 -3.00D+00
     ILin= 2 X=3.000D-01 Y=-9.137717722254D+02 DE=-2.19D-02 F= -4.92D-02 OKLS=F
 RMSU=  1.63D-05    CP:  9.95D-01  1.86D+00  1.53D+00 -3.00D+00  2.36D+00
     ILin= 3 X=7.000D-01 Y=-9.137787018534D+02 DE=-2.89D-02 F=  1.45D-02
     Accept linear search using points  2 and  3.
     An  expanding polynomial of degree  3 produced  0.5123
 RMSU=  4.90D-08    CP:  9.96D-01  1.71D+00  1.16D+00 -3.00D+00  1.72D+00
                    CP:  3.88D-01
 Iteration   3 EE= -913.778621285615     Delta-E=       -0.028775836441 Grad=1.391D-01 Max rot=    0.7716 deg.
 Gradient too large for Newton-Raphson -- use scaled steepest descent instead.
 Alpha Gap=     0.192 HL deriv= 1.58D-03
     ILin= 1 X=0.000D+00 Y=-9.137786212856D+02 DE= 0.00D+00 F= -1.31D-02
 RMSU=  6.14D-05    CP:  9.96D-01  1.87D+00  1.58D+00 -3.00D+00  2.20D+00
                    CP:  7.43D-01 -3.00D+00
     ILin= 2 X=4.000D-01 Y=-9.137820045821D+02 DE=-3.38D-03 F= -3.84D-03 OKLS=F
 RMSU=  3.55D-06    CP:  9.97D-01  2.07D+00  2.18D+00 -3.00D+00  2.80D+00
                    CP:  1.45D+00 -3.00D+00  2.26D+00
     ILin= 3 X=9.000D-01 Y=-9.137810345776D+02 DE=-2.41D-03 F=  7.71D-03
     An  expanding polynomial of degree  3 produced  0.5660
 RMSU=  3.00D-08    CP:  9.97D-01  1.94D+00  1.77D+00 -3.00D+00  2.40D+00
                    CP:  9.45D-01 -3.00D+00  1.42D+00  2.09D-01
 Iteration   4 EE= -913.782322913715     Delta-E=       -0.003701628100 Grad=6.316D-02 Max rot=    0.3381 deg.
 Gradient too large for Newton-Raphson -- use scaled steepest descent instead.
 Alpha Gap=     0.201 HL deriv= 1.72D-03
     ILin= 1 X=0.000D+00 Y=-9.137823229137D+02 DE= 0.00D+00 F= -3.99D-03
 RMSU=  3.90D-05    CP:  9.96D-01  1.96D+00  1.84D+00 -3.00D+00  2.75D+00
                    CP:  1.32D+00 -3.00D+00  1.52D+00  4.48D-01  3.00D+00
     ILin= 2 X=5.000D-01 Y=-9.137830581317D+02 DE=-7.35D-04 F=  1.04D-03 OKLS=T
     Accept linear search using points  1 and  2.
     An  expanding polynomial of degree  2 produced  0.2925
 RMSU=  1.23D-07    CP:  9.96D-01  1.95D+00  1.81D+00 -3.00D+00  2.61D+00
                    CP:  1.16D+00 -3.00D+00  1.48D+00  3.44D-01  3.00D+00
                    CP:  5.84D-01
 Iteration   5 EE= -913.783058453095     Delta-E=       -0.000735539379 Grad=3.816D-02 Max rot=    0.2222 deg.
 Gradient too large for Newton-Raphson -- use scaled steepest descent instead.
 Alpha Gap=     0.198 HL deriv= 7.02D-05
     ILin= 1 X=0.000D+00 Y=-9.137830584531D+02 DE= 0.00D+00 F= -6.33D-04
 RMSU=  9.22D-06    CP:  9.96D-01  2.01D+00  1.99D+00 -3.00D+00  2.87D+00
                    CP:  1.49D+00 -3.00D+00  1.86D+00  6.11D-01  3.00D+00
                    CP:  1.05D+00  3.00D+00
     ILin= 2 X=6.000D-01 Y=-9.137833169068D+02 DE=-2.58D-04 F= -2.29D-04 OKLS=F
 RMSU=  1.23D-05    CP:  9.96D-01  2.06D+00  2.15D+00 -3.00D+00  3.00D+00
                    CP:  1.79D+00 -3.00D+00  2.18D+00  9.26D-01  3.00D+00
                    CP:  1.43D+00  3.00D+00  1.84D+00
     ILin= 3 X=1.100D+00 Y=-9.137833470446D+02 DE=-2.89D-04 F=  1.08D-04
     Accept linear search using points  2 and  3.
     An  expanding polynomial of degree  3 produced  0.8735
 RMSU=  1.12D-07    CP:  9.96D-01  2.03D+00  2.08D+00 -3.00D+00  3.00D+00
                    CP:  1.65D+00 -3.00D+00  2.04D+00  7.73D-01  3.00D+00
                    CP:  1.26D+00  3.00D+00  1.46D+00  1.86D-04
 Iteration   6 EE= -913.783354257386     Delta-E=       -0.000295804291 Grad=5.804D-03 Max rot=    0.0253 deg.
 SCF Done:  E(RPBE1PBE) =  -913.783354257     a.u. after    6 cycles
            Convg  =    0.5804D-02                    15 Fock formations.
              S**2 =  0.0000                  -V/T =  2.0047
 Leave Link  508 at Mon Oct 18 20:51:56 2021, MaxMem=  7864320000 cpu:            9281.4 elap:             294.1
 (Enter /apps/gaussian/g16-c01-avx/g16/l502.exe)
 Integral symmetry usage will be decided dynamically.
 Closed shell SCF:
 Using DIIS extrapolation, IDIIS=  1040.
 NGot=  7864320000 LenX=  7862662082 LenY=  7861851182
 Requested convergence on RMS density matrix=1.00D-08 within 128 cycles.
 Requested convergence on MAX density matrix=1.00D-06.
 Requested convergence on             energy=1.00D-06.
 No special actions if energy rises.
 Fock matrices will be formed incrementally for  20 cycles.

 Cycle   1  Pass 1  IDiag  1:
 FoFJK:  IHMeth= 1 ICntrl=       0 DoSepK=F KAlg= 0 I1Cent=           0 FoldK=F
 IRaf= 700000000 NMat=       1 IRICut=       1 DoRegI=T DoRafI=F ISym2E= 0 IDoP0=0 IntGTp=1.
 FoFCou: FMM=F IPFlag=           0 FMFlag=      100000 FMFlg1=           0
         NFxFlg=           0 DoJE=F BraDBF=F KetDBF=F FulRan=T
         wScrn=  0.000000 ICntrl=         0 IOpCl=  0 I1Cent=           0 NGrid=           0
         NMat0=    1 NMatS0=      1 NMatT0=    0 NMatD0=    1 NMtDS0=    0 NMtDT0=    0
 Symmetry not used in FoFCou.
 E= -913.783354257382    
 DIIS: error= 5.12D-05 at cycle   1 NSaved=   1.
 NSaved= 1 IEnMin= 1 EnMin= -913.783354257382     IErMin= 1 ErrMin= 5.12D-05
 ErrMax= 5.12D-05  0.00D+00 EMaxC= 1.00D-01 BMatC= 1.68D-05 BMatP= 1.68D-05
 IDIUse=1 WtCom= 1.00D+00 WtEn= 0.00D+00
 Coeff-Com:  0.100D+01
 Coeff:      0.100D+01
 Gap=     0.198 Goal=   None    Shift=    0.000
 RMSDP=3.63D-05 MaxDP=4.43D-03              OVMax= 1.49D-03

 Cycle   2  Pass 1  IDiag  1:
 RMSU=  3.50D-05    CP:  1.00D+00
 E= -913.783349981473     Delta-E=        0.000004275909 Rises=F Damp=F
 DIIS: error= 7.65D-05 at cycle   2 NSaved=   2.
 NSaved= 2 IEnMin= 1 EnMin= -913.783354257382     IErMin= 1 ErrMin= 5.12D-05
 ErrMax= 7.65D-05  0.00D+00 EMaxC= 1.00D-01 BMatC= 1.98D-05 BMatP= 1.68D-05
 IDIUse=1 WtCom= 1.00D+00 WtEn= 0.00D+00
 Coeff-Com:  0.526D+00 0.474D+00
 Coeff:      0.526D+00 0.474D+00
 Gap=     0.185 Goal=   None    Shift=    0.000
 RMSDP=1.07D-05 MaxDP=2.03D-03 DE= 4.28D-06 OVMax= 1.31D-03

 Cycle   3  Pass 1  IDiag  1:
 RMSU=  7.82D-06    CP:  1.00D+00  8.11D-01
 E= -913.783364418487     Delta-E=       -0.000014437014 Rises=F Damp=F
 DIIS: error= 3.19D-05 at cycle   3 NSaved=   3.
 NSaved= 3 IEnMin= 3 EnMin= -913.783364418487     IErMin= 3 ErrMin= 3.19D-05
 ErrMax= 3.19D-05  0.00D+00 EMaxC= 1.00D-01 BMatC= 3.10D-06 BMatP= 1.68D-05
 IDIUse=1 WtCom= 1.00D+00 WtEn= 0.00D+00
 Coeff-Com:  0.246D-01 0.281D+00 0.695D+00
 Coeff:      0.246D-01 0.281D+00 0.695D+00
 Gap=     0.185 Goal=   None    Shift=    0.000
 RMSDP=4.76D-06 MaxDP=8.57D-04 DE=-1.44D-05 OVMax= 4.54D-04

 Cycle   4  Pass 1  IDiag  1:
 RMSU=  1.42D-06    CP:  1.00D+00  9.16D-01  7.14D-01
 E= -913.783366883720     Delta-E=       -0.000002465232 Rises=F Damp=F
 DIIS: error= 9.50D-06 at cycle   4 NSaved=   4.
 NSaved= 4 IEnMin= 4 EnMin= -913.783366883720     IErMin= 4 ErrMin= 9.50D-06
 ErrMax= 9.50D-06  0.00D+00 EMaxC= 1.00D-01 BMatC= 3.13D-07 BMatP= 3.10D-06
 IDIUse=1 WtCom= 1.00D+00 WtEn= 0.00D+00
 Coeff-Com: -0.866D-02 0.147D+00 0.416D+00 0.445D+00
 Coeff:     -0.866D-02 0.147D+00 0.416D+00 0.445D+00
 Gap=     0.185 Goal=   None    Shift=    0.000
 RMSDP=1.11D-06 MaxDP=2.26D-04 DE=-2.47D-06 OVMax= 1.10D-04

 Cycle   5  Pass 1  IDiag  1:
 RMSU=  4.15D-07    CP:  1.00D+00  9.05D-01  7.96D-01  5.30D-01
 E= -913.783367153665     Delta-E=       -0.000000269945 Rises=F Damp=F
 DIIS: error= 6.77D-07 at cycle   5 NSaved=   5.
 NSaved= 5 IEnMin= 5 EnMin= -913.783367153665     IErMin= 5 ErrMin= 6.77D-07
 ErrMax= 6.77D-07  0.00D+00 EMaxC= 1.00D-01 BMatC= 1.50D-09 BMatP= 3.13D-07
 IDIUse=1 WtCom= 1.00D+00 WtEn= 0.00D+00
 Coeff-Com: -0.357D-02 0.161D-01 0.478D-01 0.909D-01 0.849D+00
 Coeff:     -0.357D-02 0.161D-01 0.478D-01 0.909D-01 0.849D+00
 Gap=     0.185 Goal=   None    Shift=    0.000
 RMSDP=1.41D-07 MaxDP=1.80D-05 DE=-2.70D-07 OVMax= 1.28D-05

 Cycle   6  Pass 1  IDiag  1:
 RMSU=  9.35D-08    CP:  1.00D+00  9.07D-01  7.98D-01  5.79D-01  1.02D+00
 E= -913.783367154811     Delta-E=       -0.000000001146 Rises=F Damp=F
 DIIS: error= 4.66D-07 at cycle   6 NSaved=   6.
 NSaved= 6 IEnMin= 6 EnMin= -913.783367154811     IErMin= 6 ErrMin= 4.66D-07
 ErrMax= 4.66D-07  0.00D+00 EMaxC= 1.00D-01 BMatC= 4.52D-10 BMatP= 1.50D-09
 IDIUse=1 WtCom= 1.00D+00 WtEn= 0.00D+00
 Coeff-Com: -0.141D-02 0.294D-02 0.944D-02 0.293D-01 0.437D+00 0.523D+00
 Coeff:     -0.141D-02 0.294D-02 0.944D-02 0.293D-01 0.437D+00 0.523D+00
 Gap=     0.185 Goal=   None    Shift=    0.000
 RMSDP=8.88D-08 MaxDP=2.11D-05 DE=-1.15D-09 OVMax= 6.99D-06

 Cycle   7  Pass 1  IDiag  1:
 RMSU=  4.76D-08    CP:  1.00D+00  9.06D-01  8.02D-01  5.63D-01  1.10D+00
                    CP:  5.41D-01
 E= -913.783367155161     Delta-E=       -0.000000000350 Rises=F Damp=F
 DIIS: error= 2.03D-07 at cycle   7 NSaved=   7.
 NSaved= 7 IEnMin= 7 EnMin= -913.783367155161     IErMin= 7 ErrMin= 2.03D-07
 ErrMax= 2.03D-07  0.00D+00 EMaxC= 1.00D-01 BMatC= 8.27D-11 BMatP= 4.52D-10
 IDIUse=1 WtCom= 1.00D+00 WtEn= 0.00D+00
 Coeff-Com: -0.146D-03-0.150D-02-0.381D-02-0.295D-03 0.105D+00 0.316D+00
 Coeff-Com:  0.585D+00
 Coeff:     -0.146D-03-0.150D-02-0.381D-02-0.295D-03 0.105D+00 0.316D+00
 Coeff:      0.585D+00
 Gap=     0.185 Goal=   None    Shift=    0.000
 RMSDP=2.84D-08 MaxDP=5.28D-06 DE=-3.50D-10 OVMax= 2.55D-06

 Cycle   8  Pass 1  IDiag  1:
 RMSU=  8.37D-09    CP:  1.00D+00  9.07D-01  8.02D-01  5.69D-01  1.10D+00
                    CP:  7.18D-01  6.85D-01
 E= -913.783367155209     Delta-E=       -0.000000000048 Rises=F Damp=F
 DIIS: error= 4.64D-08 at cycle   8 NSaved=   8.
 NSaved= 8 IEnMin= 8 EnMin= -913.783367155209     IErMin= 8 ErrMin= 4.64D-08
 ErrMax= 4.64D-08  0.00D+00 EMaxC= 1.00D-01 BMatC= 6.44D-12 BMatP= 8.27D-11
 IDIUse=1 WtCom= 1.00D+00 WtEn= 0.00D+00
 Coeff-Com:  0.186D-04-0.109D-02-0.286D-02-0.266D-02 0.197D-01 0.128D+00
 Coeff-Com:  0.315D+00 0.544D+00
 Coeff:      0.186D-04-0.109D-02-0.286D-02-0.266D-02 0.197D-01 0.128D+00
 Coeff:      0.315D+00 0.544D+00
 Gap=     0.185 Goal=   None    Shift=    0.000
 RMSDP=4.98D-09 MaxDP=8.76D-07 DE=-4.77D-11 OVMax= 5.71D-07

 Error on total polarization charges =  0.01695
 SCF Done:  E(RPBE1PBE) =  -913.783367155     A.U. after    8 cycles
            NFock=  8  Conv=0.50D-08     -V/T= 2.0047
 KE= 9.095434509038D+02 PE=-5.252743927922D+03 EE= 1.866013066403D+03
 Leave Link  502 at Mon Oct 18 20:54:39 2021, MaxMem=  7864320000 cpu:            5151.9 elap:             162.9
 (Enter /apps/gaussian/g16-c01-avx/g16/l508.exe)
 QCSCF skips out because SCF is already converged.
 Leave Link  508 at Mon Oct 18 20:54:39 2021, MaxMem=  7864320000 cpu:               0.1 elap:               0.0
 (Enter /apps/gaussian/g16-c01-avx/g16/l601.exe)
 Copying SCF densities to generalized density rwf, IOpCl= 0 IROHF=0.

 **********************************************************************

            Population analysis using the SCF Density.

 **********************************************************************

 Orbital symmetries:
       Occupied  (A) (A) (A) (A) (A) (A) (A) (A) (A) (A) (A) (A)
                 (A) (A) (A) (A) (A) (A) (A) (A) (A) (A) (A) (A)
                 (A) (A) (A) (A) (A) (A) (A) (A) (A) (A) (A) (A)
                 (A) (A) (A) (A) (A) (A) (A) (A) (A) (A) (A) (A)
                 (A) (A) (A) (A) (A) (A) (A) (A) (A) (A) (A) (A)
                 (A) (A) (A) (A) (A) (A) (A) (A) (A) (A) (A) (A)
                 (A) (A) (A) (A) (A) (A)
       Virtual   (A) (A) (A) (A) (A) (A) (A) (A) (A) (A) (A) (A)
                 (A) (A) (A) (A) (A) (A) (A) (A) (A) (A) (A) (A)
                 (A) (A) (A) (A) (A) (A) (A) (A) (A) (A) (A) (A)
                 (A) (A) (A) (A) (A) (A) (A) (A) (A) (A) (A) (A)
                 (A) (A) (A) (A) (A) (A) (A) (A) (A) (A) (A) (A)
                 (A) (A) (A) (A) (A) (A) (A) (A) (A) (A) (A) (A)
                 (A) (A) (A) (A) (A) (A) (A) (A) (A) (A) (A) (A)
                 (A) (A) (A) (A) (A) (A) (A) (A) (A) (A) (A) (A)
                 (A) (A) (A) (A) (A) (A) (A) (A) (A) (A) (A) (A)
                 (A) (A) (A) (A) (A) (A) (A) (A) (A) (A) (A) (A)
                 (A) (A) (A) (A) (A) (A) (A) (A) (A) (A) (A) (A)
                 (A) (A) (A) (A) (A) (A) (A) (A) (A) (A) (A) (A)
                 (A) (A) (A) (A) (A) (A) (A) (A) (A) (A) (A) (A)
                 (A) (A) (A) (A) (A) (A) (A) (A) (A) (A) (A) (A)
                 (A) (A) (A) (A) (A) (A) (A) (A) (A) (A) (A) (A)
                 (A) (A) (A) (A) (A) (A) (A) (A) (A) (A) (A) (A)
                 (A) (A) (A) (A) (A) (A) (A) (A) (A) (A) (A) (A)
                 (A) (A) (A) (A) (A) (A) (A) (A) (A) (A) (A) (A)
                 (A) (A) (A) (A) (A) (A) (A) (A) (A) (A) (A) (A)
                 (A) (A) (A) (A) (A) (A) (A) (A) (A) (A) (A) (A)
                 (A) (A) (A) (A) (A) (A) (A) (A) (A) (A) (A) (A)
                 (A) (A) (A) (A) (A) (A) (A) (A) (A) (A) (A) (A)
                 (A) (A) (A) (A) (A) (A) (A) (A) (A) (A) (A) (A)
                 (A) (A) (A) (A) (A) (A) (A) (A) (A) (A) (A) (A)
                 (A) (A) (A) (A) (A) (A) (A) (A) (A) (A) (A) (A)
                 (A) (A) (A) (A) (A) (A) (A) (A) (A) (A) (A) (A)
                 (A) (A) (A) (A) (A) (A) (A) (A) (A) (A) (A) (A)
                 (A) (A) (A) (A) (A) (A) (A) (A) (A) (A) (A) (A)
                 (A) (A) (A) (A) (A) (A) (A) (A) (A) (A) (A) (A)
                 (A) (A) (A) (A) (A) (A) (A) (A) (A) (A) (A) (A)
                 (A) (A) (A) (A) (A) (A) (A) (A) (A) (A) (A) (A)
                 (A) (A) (A) (A) (A) (A) (A) (A) (A) (A) (A) (A)
                 (A) (A) (A) (A) (A) (A) (A) (A) (A) (A) (A) (A)
                 (A) (A) (A) (A) (A) (A) (A) (A) (A) (A) (A) (A)
                 (A) (A) (A) (A) (A) (A) (A) (A) (A) (A) (A) (A)
                 (A) (A) (A) (A) (A) (A) (A) (A) (A) (A) (A) (A)
                 (A) (A) (A) (A) (A) (A) (A) (A) (A) (A) (A) (A)
                 (A) (A) (A) (A) (A) (A) (A) (A) (A) (A) (A) (A)
                 (A) (A) (A) (A) (A) (A) (A) (A) (A) (A) (A) (A)
                 (A) (A) (A) (A) (A) (A) (A) (A) (A) (A) (A) (A)
                 (A) (A) (A) (A) (A) (A) (A) (A) (A) (A) (A) (A)
                 (A) (A) (A) (A) (A) (A) (A) (A) (A) (A) (A) (A)
                 (A) (A) (A) (A) (A) (A) (A) (A) (A) (A) (A) (A)
                 (A) (A) (A) (A) (A) (A) (A) (A) (A) (A) (A) (A)
                 (A) (A) (A) (A) (A) (A) (A) (A) (A) (A) (A) (A)
                 (A) (A) (A) (A) (A) (A) (A) (A) (A) (A) (A) (A)
                 (A) (A) (A) (A) (A) (A) (A) (A) (A) (A) (A) (A)
                 (A) (A) (A) (A) (A) (A) (A) (A) (A) (A) (A) (A)
                 (A) (A) (A) (A) (A) (A) (A) (A) (A) (A) (A) (A)
                 (A) (A) (A) (A) (A) (A) (A) (A) (A) (A) (A) (A)
                 (A) (A) (A) (A) (A) (A) (A) (A) (A) (A) (A) (A)
                 (A) (A) (A) (A) (A) (A) (A) (A) (A) (A) (A) (A)
                 (A) (A) (A) (A) (A) (A) (A) (A) (A) (A) (A) (A)
                 (A) (A) (A) (A) (A) (A) (A) (A) (A) (A) (A) (A)
                 (A) (A) (A) (A) (A) (A) (A) (A) (A) (A) (A) (A)
                 (A) (A) (A) (A) (A) (A) (A) (A) (A) (A) (A) (A)
                 (A) (A) (A) (A) (A) (A) (A) (A) (A) (A) (A) (A)
                 (A) (A) (A) (A) (A) (A) (A) (A) (A) (A) (A) (A)
                 (A) (A) (A) (A) (A) (A) (A) (A) (A) (A) (A) (A)
                 (A) (A) (A) (A) (A) (A) (A) (A) (A)
 The electronic state is 1-A.
 Alpha  occ. eigenvalues --  -14.38363 -14.38289 -14.38075 -14.36307 -14.35708
 Alpha  occ. eigenvalues --  -14.35643 -10.27048 -10.27039 -10.26880 -10.25078
 Alpha  occ. eigenvalues --  -10.24829 -10.24765 -10.24673 -10.24551 -10.24551
 Alpha  occ. eigenvalues --  -10.24446 -10.24392 -10.24240 -10.24219 -10.24176
 Alpha  occ. eigenvalues --  -10.24116  -0.96924  -0.96628  -0.96255  -0.91303
 Alpha  occ. eigenvalues --   -0.90863  -0.90565  -0.89757  -0.81682  -0.81114
 Alpha  occ. eigenvalues --   -0.75944  -0.75151  -0.74841  -0.68205  -0.67439
 Alpha  occ. eigenvalues --   -0.66180  -0.63720  -0.62304  -0.60624  -0.57278
 Alpha  occ. eigenvalues --   -0.55921  -0.53930  -0.52939  -0.51651  -0.51238
 Alpha  occ. eigenvalues --   -0.50852  -0.50219  -0.49740  -0.48670  -0.48201
 Alpha  occ. eigenvalues --   -0.47536  -0.46235  -0.45780  -0.45249  -0.44993
 Alpha  occ. eigenvalues --   -0.43340  -0.42503  -0.41902  -0.40758  -0.40460
 Alpha  occ. eigenvalues --   -0.40015  -0.39355  -0.39062  -0.38386  -0.37093
 Alpha  occ. eigenvalues --   -0.36507  -0.36166  -0.35026  -0.34223  -0.31339
 Alpha  occ. eigenvalues --   -0.27912  -0.27524  -0.27003  -0.26529  -0.26109
 Alpha  occ. eigenvalues --   -0.25499  -0.25171  -0.25031
 Alpha virt. eigenvalues --   -0.06522  -0.05639  -0.01979   0.03726   0.04461
 Alpha virt. eigenvalues --    0.04632   0.05659   0.05825   0.06516   0.06852
 Alpha virt. eigenvalues --    0.07554   0.07972   0.08088   0.08893   0.09268
 Alpha virt. eigenvalues --    0.09526   0.10506   0.10745   0.11151   0.11832
 Alpha virt. eigenvalues --    0.12144   0.12606   0.12953   0.13513   0.13979
 Alpha virt. eigenvalues --    0.14222   0.14584   0.14777   0.15451   0.15486
 Alpha virt. eigenvalues --    0.16285   0.16974   0.17272   0.17516   0.18237
 Alpha virt. eigenvalues --    0.18890   0.19177   0.20226   0.20381   0.21051
 Alpha virt. eigenvalues --    0.21111   0.21636   0.22120   0.23302   0.23859
 Alpha virt. eigenvalues --    0.23945   0.24751   0.25034   0.25906   0.26167
 Alpha virt. eigenvalues --    0.26563   0.27162   0.27480   0.28262   0.28461
 Alpha virt. eigenvalues --    0.29115   0.29635   0.30095   0.30335   0.30685
 Alpha virt. eigenvalues --    0.30997   0.31497   0.31779   0.32218   0.33182
 Alpha virt. eigenvalues --    0.33511   0.33958   0.34620   0.34832   0.35090
 Alpha virt. eigenvalues --    0.35477   0.36169   0.36757   0.37442   0.38009
 Alpha virt. eigenvalues --    0.38516   0.38768   0.38866   0.39411   0.39953
 Alpha virt. eigenvalues --    0.40640   0.40903   0.41017   0.41203   0.41685
 Alpha virt. eigenvalues --    0.41808   0.42100   0.42295   0.42550   0.43061
 Alpha virt. eigenvalues --    0.43144   0.43736   0.43932   0.44495   0.44752
 Alpha virt. eigenvalues --    0.45317   0.45748   0.46143   0.46638   0.47275
 Alpha virt. eigenvalues --    0.47370   0.47871   0.48289   0.48902   0.49177
 Alpha virt. eigenvalues --    0.49671   0.50192   0.50421   0.50973   0.51361
 Alpha virt. eigenvalues --    0.51820   0.52583   0.52756   0.53178   0.53673
 Alpha virt. eigenvalues --    0.54004   0.54458   0.54537   0.54795   0.55246
 Alpha virt. eigenvalues --    0.55774   0.56573   0.57195   0.57498   0.57867
 Alpha virt. eigenvalues --    0.59247   0.59598   0.59857   0.60970   0.61197
 Alpha virt. eigenvalues --    0.61917   0.62120   0.62610   0.63179   0.63565
 Alpha virt. eigenvalues --    0.64376   0.64613   0.65004   0.65860   0.66695
 Alpha virt. eigenvalues --    0.67234   0.67889   0.68639   0.68768   0.69201
 Alpha virt. eigenvalues --    0.69951   0.71078   0.71427   0.71711   0.72353
 Alpha virt. eigenvalues --    0.73260   0.73493   0.74690   0.74880   0.75419
 Alpha virt. eigenvalues --    0.76590   0.76813   0.77648   0.77909   0.78530
 Alpha virt. eigenvalues --    0.79091   0.79770   0.81658   0.82210   0.83000
 Alpha virt. eigenvalues --    0.83866   0.84367   0.84886   0.85716   0.86366
 Alpha virt. eigenvalues --    0.86889   0.87725   0.88426   0.89375   0.89974
 Alpha virt. eigenvalues --    0.90903   0.90991   0.92838   0.93925   0.94810
 Alpha virt. eigenvalues --    0.95085   0.96071   0.96702   0.97237   0.97878
 Alpha virt. eigenvalues --    0.99277   0.99606   1.00802   1.01976   1.02751
 Alpha virt. eigenvalues --    1.03495   1.05170   1.06103   1.06754   1.07239
 Alpha virt. eigenvalues --    1.08461   1.08881   1.09657   1.10512   1.12099
 Alpha virt. eigenvalues --    1.12501   1.13628   1.15117   1.15259   1.16651
 Alpha virt. eigenvalues --    1.16984   1.18309   1.19243   1.19562   1.20609
 Alpha virt. eigenvalues --    1.21236   1.21715   1.22597   1.23445   1.23925
 Alpha virt. eigenvalues --    1.24690   1.25307   1.25785   1.26430   1.26834
 Alpha virt. eigenvalues --    1.28585   1.28747   1.29405   1.30308   1.30696
 Alpha virt. eigenvalues --    1.31863   1.34218   1.34421   1.34725   1.35758
 Alpha virt. eigenvalues --    1.35947   1.36319   1.37386   1.38782   1.39137
 Alpha virt. eigenvalues --    1.39546   1.40488   1.41273   1.42243   1.43565
 Alpha virt. eigenvalues --    1.43635   1.44117   1.44229   1.44954   1.45323
 Alpha virt. eigenvalues --    1.46448   1.47306   1.47466   1.48439   1.49595
 Alpha virt. eigenvalues --    1.50430   1.50773   1.51125   1.52500   1.52776
 Alpha virt. eigenvalues --    1.53998   1.54941   1.55260   1.55912   1.56377
 Alpha virt. eigenvalues --    1.57072   1.57760   1.58573   1.59225   1.59232
 Alpha virt. eigenvalues --    1.59833   1.60012   1.61577   1.61912   1.61998
 Alpha virt. eigenvalues --    1.64493   1.65046   1.65829   1.66142   1.67605
 Alpha virt. eigenvalues --    1.68136   1.68994   1.69219   1.70151   1.70663
 Alpha virt. eigenvalues --    1.71170   1.71396   1.72089   1.73437   1.74613
 Alpha virt. eigenvalues --    1.75055   1.75633   1.76380   1.76963   1.77669
 Alpha virt. eigenvalues --    1.78207   1.79104   1.80329   1.80614   1.81334
 Alpha virt. eigenvalues --    1.81975   1.83229   1.84304   1.85303   1.85565
 Alpha virt. eigenvalues --    1.85728   1.87350   1.87637   1.88262   1.89524
 Alpha virt. eigenvalues --    1.90039   1.90747   1.91939   1.92526   1.93748
 Alpha virt. eigenvalues --    1.94282   1.94923   1.95586   1.96917   1.97770
 Alpha virt. eigenvalues --    1.97915   1.98620   1.98988   1.99827   2.00821
 Alpha virt. eigenvalues --    2.01220   2.02192   2.02893   2.03141   2.03588
 Alpha virt. eigenvalues --    2.04091   2.04482   2.05141   2.06268   2.06873
 Alpha virt. eigenvalues --    2.07102   2.08782   2.08936   2.09807   2.11287
 Alpha virt. eigenvalues --    2.11936   2.13353   2.14496   2.14745   2.15849
 Alpha virt. eigenvalues --    2.16229   2.17969   2.18712   2.19395   2.21399
 Alpha virt. eigenvalues --    2.23085   2.24395   2.25123   2.25954   2.26296
 Alpha virt. eigenvalues --    2.26656   2.29041   2.31022   2.31209   2.31849
 Alpha virt. eigenvalues --    2.33071   2.34027   2.35481   2.37067   2.37802
 Alpha virt. eigenvalues --    2.38269   2.38594   2.38873   2.39944   2.40649
 Alpha virt. eigenvalues --    2.42058   2.42815   2.43251   2.44618   2.44975
 Alpha virt. eigenvalues --    2.45871   2.46869   2.47358   2.48463   2.49744
 Alpha virt. eigenvalues --    2.50802   2.51091   2.51506   2.52863   2.53089
 Alpha virt. eigenvalues --    2.53727   2.54078   2.55506   2.56015   2.56864
 Alpha virt. eigenvalues --    2.57222   2.58418   2.58858   2.59664   2.60015
 Alpha virt. eigenvalues --    2.61090   2.62215   2.62606   2.63436   2.63575
 Alpha virt. eigenvalues --    2.63793   2.65099   2.65915   2.66403   2.67153
 Alpha virt. eigenvalues --    2.67562   2.67809   2.68589   2.69472   2.69818
 Alpha virt. eigenvalues --    2.70403   2.71045   2.71082   2.71480   2.73162
 Alpha virt. eigenvalues --    2.74003   2.74391   2.74788   2.75574   2.76498
 Alpha virt. eigenvalues --    2.76913   2.77624   2.78445   2.78943   2.79734
 Alpha virt. eigenvalues --    2.80818   2.81521   2.81616   2.82205   2.83129
 Alpha virt. eigenvalues --    2.83647   2.84373   2.84839   2.85925   2.86799
 Alpha virt. eigenvalues --    2.87315   2.87828   2.89442   2.89829   2.90342
 Alpha virt. eigenvalues --    2.91777   2.93412   2.93792   2.95211   2.96002
 Alpha virt. eigenvalues --    2.96478   2.97671   2.98245   2.98376   2.99263
 Alpha virt. eigenvalues --    2.99437   3.01489   3.01888   3.03621   3.04485
 Alpha virt. eigenvalues --    3.05753   3.05936   3.06423   3.06468   3.08380
 Alpha virt. eigenvalues --    3.09093   3.09587   3.10590   3.10977   3.11813
 Alpha virt. eigenvalues --    3.12308   3.13694   3.14314   3.14758   3.15265
 Alpha virt. eigenvalues --    3.15822   3.16119   3.16672   3.17493   3.18080
 Alpha virt. eigenvalues --    3.18341   3.19240   3.19974   3.20332   3.21294
 Alpha virt. eigenvalues --    3.22236   3.22402   3.23758   3.24302   3.25244
 Alpha virt. eigenvalues --    3.25630   3.26061   3.26377   3.27034   3.27589
 Alpha virt. eigenvalues --    3.28322   3.29359   3.30582   3.30670   3.31328
 Alpha virt. eigenvalues --    3.31679   3.31796   3.32757   3.33139   3.34061
 Alpha virt. eigenvalues --    3.34332   3.34739   3.35546   3.35705   3.36877
 Alpha virt. eigenvalues --    3.37513   3.37966   3.39056   3.39914   3.40318
 Alpha virt. eigenvalues --    3.41077   3.41188   3.41969   3.42766   3.43341
 Alpha virt. eigenvalues --    3.43997   3.44886   3.45478   3.46639   3.47314
 Alpha virt. eigenvalues --    3.47837   3.48958   3.50330   3.51610   3.52268
 Alpha virt. eigenvalues --    3.54403   3.55113   3.56294   3.57613   3.58489
 Alpha virt. eigenvalues --    3.60427   3.60978   3.61832   3.62425   3.63118
 Alpha virt. eigenvalues --    3.65161   3.67175   3.67970   3.70213   3.72146
 Alpha virt. eigenvalues --    3.72987   3.75024   3.75192   3.75861   3.76550
 Alpha virt. eigenvalues --    3.77238   3.77808   3.78253   3.79179   3.79708
 Alpha virt. eigenvalues --    3.80523   3.81613   3.82705   3.83285   3.84381
 Alpha virt. eigenvalues --    3.85340   3.85911   3.86295   3.87780   3.88876
 Alpha virt. eigenvalues --    3.89279   3.90268   3.91093   3.91687   3.92848
 Alpha virt. eigenvalues --    3.95112   3.96088   3.97865   3.98843   4.00102
 Alpha virt. eigenvalues --    4.00759   4.01999   4.02963   4.04385   4.05696
 Alpha virt. eigenvalues --    4.07067   4.07910   4.09216   4.10436   4.12527
 Alpha virt. eigenvalues --    4.13156   4.14260   4.14768   4.15744   4.17093
 Alpha virt. eigenvalues --    4.18295   4.20591   4.21189   4.22004   4.23624
 Alpha virt. eigenvalues --    4.24175   4.24854   4.25780   4.26951   4.29489
 Alpha virt. eigenvalues --    4.30671   4.32721   4.33331   4.33752   4.35303
 Alpha virt. eigenvalues --    4.35895   4.36901   4.37724   4.38876   4.40192
 Alpha virt. eigenvalues --    4.42275   4.43596   4.45949   4.47225   4.48470
 Alpha virt. eigenvalues --    4.50541   4.52547   4.54691   4.55547   4.56516
 Alpha virt. eigenvalues --    4.58058   4.59880   4.61118   4.62219   4.64469
 Alpha virt. eigenvalues --    4.65181   4.67231   4.68853   4.70537   4.71724
 Alpha virt. eigenvalues --    4.73387   4.76361   4.77077   4.77329   4.81039
 Alpha virt. eigenvalues --    4.81893   4.82726   4.83077   4.83661   4.84867
 Alpha virt. eigenvalues --    4.86166   4.86382   4.87152   4.88860   4.89367
 Alpha virt. eigenvalues --    4.90782   4.92390   4.93770   4.95031   4.96371
 Alpha virt. eigenvalues --    4.97808   5.02598   5.03719   5.04196   5.04692
 Alpha virt. eigenvalues --    5.06904   5.08517   5.09863   5.10405   5.11467
 Alpha virt. eigenvalues --    5.12082   5.13678   5.13890   5.14494   5.15679
 Alpha virt. eigenvalues --    5.18172   5.21992   5.22289   5.23208   5.24619
 Alpha virt. eigenvalues --    5.26763   5.28221   5.29277   5.29777   5.31422
 Alpha virt. eigenvalues --    5.32980   5.33573   5.35106   5.35639   5.36591
 Alpha virt. eigenvalues --    5.37447   5.41645   5.43813   5.44463   5.48032
 Alpha virt. eigenvalues --    5.52481   5.52954   5.54324   5.55583   5.56654
 Alpha virt. eigenvalues --    5.59279   5.62059   5.64898   5.68491   5.70299
 Alpha virt. eigenvalues --    5.73571   5.77566   5.79407   5.82628   5.82972
 Alpha virt. eigenvalues --    5.84167   5.90825   5.93597   5.98819   6.03118
 Alpha virt. eigenvalues --    6.10338  22.36501  22.49892  22.50870  22.54652
 Alpha virt. eigenvalues --   22.64167  22.65177  22.65768  22.85265  22.88237
 Alpha virt. eigenvalues --   22.97841  23.09543  23.11692  23.13733  23.16612
 Alpha virt. eigenvalues --   23.49525  32.00062  32.03975  32.06810  32.62025
 Alpha virt. eigenvalues --   32.67658  32.73104
          Condensed to atoms (all electrons):
               1          2          3          4          5          6
     1  C    5.300112   0.261517   0.162366   0.160969  -0.100313  -0.202784
     2  C    0.261517   4.997252  -0.109075   0.028877  -0.008791   0.000684
     3  C    0.162366  -0.109075   5.831124  -0.063964   0.461907   0.160125
     4  C    0.160969   0.028877  -0.063964   5.521119  -0.071730   0.091804
     5  H   -0.100313  -0.008791   0.461907  -0.071730   0.529612   0.020153
     6  C   -0.202784   0.000684   0.160125   0.091804   0.020153   5.949538
     7  C    0.161299   0.009626  -0.250505   0.261147  -0.006274  -0.213752
     8  H   -0.008162   0.000023   0.029613  -0.100730   0.000245   0.493855
     9  C    0.286260  -0.061796   0.100596  -0.175138   0.016432   0.072817
    10  C   -0.002774  -0.002682   0.014384  -0.007173   0.000295  -0.040429
    11  H   -0.077988  -0.004211   0.017288  -0.007036  -0.000013   0.025369
    12  C    0.024179  -0.001971  -0.085046   0.277676  -0.024503  -0.100444
    13  C   -0.003609  -0.000956  -0.009826   0.002273  -0.000965   0.000023
    14  C   -0.018423  -0.091854   0.019055  -0.003579  -0.002131  -0.000186
    15  N   -0.000227   0.003215  -0.000210  -0.000108  -0.000290  -0.000002
    16  N   -0.120031   0.703363   0.001298   0.004929   0.001834   0.000283
    17  H   -0.003551   0.000347   0.002224   0.000182   0.001219   0.000037
    18  C    0.000004   0.000036  -0.009101   0.037417  -0.004154  -0.000278
    19  C   -0.000029   0.000002  -0.000269  -0.001166   0.000071  -0.000011
    20  N   -0.000403  -0.000249   0.024591  -0.157165   0.025202   0.000685
    21  N   -0.000000  -0.000010  -0.000134   0.000133   0.001017  -0.000002
    22  C    0.000043  -0.000003  -0.000068  -0.000111   0.000000  -0.007696
    23  C    0.000021   0.000000  -0.000015   0.000004  -0.000000  -0.000967
    24  N   -0.001433   0.000002   0.002137  -0.008494   0.000007   0.047685
    25  H   -0.000085  -0.000001   0.000052  -0.000159   0.000000   0.003107
    26  N   -0.000000  -0.000000   0.000000  -0.000001   0.000000   0.000036
    27  H    0.000000  -0.000000  -0.000000   0.000000  -0.000000   0.000002
    28  H   -0.000000  -0.000000  -0.000000  -0.000000   0.000000   0.000000
    29  H   -0.000030   0.000315  -0.000045   0.000004   0.000088   0.000000
    30  H    0.000398   0.002915  -0.000051  -0.000033  -0.000065  -0.000001
    31  H   -0.000000  -0.000001   0.000030  -0.000084   0.000010  -0.000002
    32  H    0.000057  -0.000020   0.000152  -0.001681   0.001972   0.000009
    33  H   -0.121005   0.438701   0.004546  -0.000117   0.000044   0.000322
    34  H   -0.001653  -0.000038   0.033110  -0.123265   0.002270   0.000588
    35  H   -0.003362  -0.000139   0.002659  -0.005119   0.000008   0.051283
    36  H    0.026111  -0.002911  -0.000941  -0.009123  -0.007486  -0.001564
    37  H    0.000004  -0.000000  -0.000006   0.000054  -0.000000  -0.000072
    38  H   -0.000021   0.000000   0.001407  -0.003349   0.000333   0.000140
    39  H    0.000058   0.000001   0.000129  -0.001712  -0.000481   0.000023
    40  H    0.000055   0.000005  -0.000297  -0.000235  -0.000720  -0.000054
    41  H   -0.000001  -0.000000   0.000046  -0.000076   0.000066   0.000000
    42  H   -0.004373   0.004145  -0.005060   0.000719   0.012649   0.000116
    43  H   -0.000196   0.000865   0.001174  -0.000138  -0.001204  -0.000012
    44  H   -0.000008   0.000000   0.000014  -0.000034   0.000000   0.000401
    45  H    0.000004  -0.000000  -0.000002   0.000017  -0.000000   0.000066
               7          8          9         10         11         12
     1  C    0.161299  -0.008162   0.286260  -0.002774  -0.077988   0.024179
     2  C    0.009626   0.000023  -0.061796  -0.002682  -0.004211  -0.001971
     3  C   -0.250505   0.029613   0.100596   0.014384   0.017288  -0.085046
     4  C    0.261147  -0.100730  -0.175138  -0.007173  -0.007036   0.277676
     5  H   -0.006274   0.000245   0.016432   0.000295  -0.000013  -0.024503
     6  C   -0.213752   0.493855   0.072817  -0.040429   0.025369  -0.100444
     7  C    5.683418  -0.123613   0.277771   0.261209  -0.079198   0.029132
     8  H   -0.123613   0.527010   0.018404  -0.007664   0.000186  -0.008630
     9  C    0.277771   0.018404   5.379078  -0.060858   0.450955   0.002102
    10  C    0.261209  -0.007664  -0.060858   4.972005  -0.002579  -0.003917
    11  H   -0.079198   0.000186   0.450955  -0.002579   0.525361   0.000079
    12  C    0.029132  -0.008630   0.002102  -0.003917   0.000079   5.012867
    13  C   -0.000045   0.000000  -0.000221  -0.000001   0.000014   0.000282
    14  C    0.000145  -0.000002   0.002815   0.000018   0.000149  -0.000190
    15  N    0.000004   0.000000  -0.000044  -0.000000  -0.000001   0.000008
    16  N   -0.002756  -0.000004   0.008470  -0.000043   0.000719  -0.000138
    17  H   -0.000040  -0.000000   0.000026  -0.000000   0.000002  -0.000045
    18  C    0.000133  -0.000084  -0.000107  -0.000005  -0.000000  -0.076317
    19  C   -0.000000  -0.000000  -0.000004   0.000000   0.000000   0.000172
    20  N   -0.000936  -0.000284   0.000773   0.000005   0.000002   0.684429
    21  N   -0.000002   0.000000   0.000005   0.000000   0.000000  -0.000531
    22  C    0.020204  -0.003435  -0.001376  -0.082071  -0.000136   0.000002
    23  C    0.003588  -0.000620   0.000119   0.000742  -0.000004   0.000005
    24  N   -0.193848   0.046300   0.003617   0.681403  -0.000388  -0.000877
    25  H   -0.002429   0.000826   0.000384   0.000102   0.000242  -0.000004
    26  N   -0.000134   0.000021   0.000002   0.000790   0.000000  -0.000000
    27  H   -0.000006  -0.000001  -0.000001   0.000021  -0.000000   0.000000
    28  H   -0.000012  -0.000000   0.000000  -0.000077   0.000000  -0.000000
    29  H   -0.000000   0.000000  -0.000000  -0.000000   0.000000  -0.000001
    30  H    0.000004   0.000000  -0.000033   0.000000  -0.000002   0.000001
    31  H   -0.000000  -0.000000   0.000000  -0.000000   0.000000  -0.000026
    32  H   -0.000003   0.000001   0.000012   0.000000   0.000000   0.001041
    33  H   -0.000382  -0.000000   0.006349  -0.000117   0.003276  -0.000010
    34  H    0.001889   0.006324   0.000667  -0.000050  -0.000001   0.431978
    35  H   -0.138251   0.003735   0.002671   0.414356   0.010949  -0.000091
    36  H    0.001872   0.000005  -0.002629   0.000038  -0.000170   0.001479
    37  H   -0.000239  -0.000300  -0.000059  -0.001535  -0.000006   0.000000
    38  H    0.000001   0.000109   0.000009   0.000000   0.000000   0.003056
    39  H    0.000004  -0.000004  -0.000010  -0.000000  -0.000000  -0.001013
    40  H    0.000011  -0.000003  -0.000013  -0.000000  -0.000000   0.003975
    41  H   -0.000000   0.000000   0.000000   0.000000   0.000000   0.000294
    42  H   -0.000043  -0.000000   0.000209  -0.000000   0.000002  -0.000307
    43  H    0.000009   0.000000  -0.000038   0.000000  -0.000000   0.000016
    44  H   -0.000780   0.001355   0.000087   0.002959   0.000005  -0.000006
    45  H   -0.001119  -0.000070  -0.000145   0.003642  -0.000004  -0.000000
              13         14         15         16         17         18
     1  C   -0.003609  -0.018423  -0.000227  -0.120031  -0.003551   0.000004
     2  C   -0.000956  -0.091854   0.003215   0.703363   0.000347   0.000036
     3  C   -0.009826   0.019055  -0.000210   0.001298   0.002224  -0.009101
     4  C    0.002273  -0.003579  -0.000108   0.004929   0.000182   0.037417
     5  H   -0.000965  -0.002131  -0.000290   0.001834   0.001219  -0.004154
     6  C    0.000023  -0.000186  -0.000002   0.000283   0.000037  -0.000278
     7  C   -0.000045   0.000145   0.000004  -0.002756  -0.000040   0.000133
     8  H    0.000000  -0.000002   0.000000  -0.000004  -0.000000  -0.000084
     9  C   -0.000221   0.002815  -0.000044   0.008470   0.000026  -0.000107
    10  C   -0.000001   0.000018  -0.000000  -0.000043  -0.000000  -0.000005
    11  H    0.000014   0.000149  -0.000001   0.000719   0.000002  -0.000000
    12  C    0.000282  -0.000190   0.000008  -0.000138  -0.000045  -0.076317
    13  C    4.864637   0.402895   0.311950  -0.050495  -0.035259   0.000003
    14  C    0.402895   4.959367  -0.068163   0.263705   0.401870   0.000010
    15  N    0.311950  -0.068163   6.596653  -0.012586  -0.002134  -0.000001
    16  N   -0.050495   0.263705  -0.012586   6.523306  -0.043691  -0.000001
    17  H   -0.035259   0.401870  -0.002134  -0.043691   0.573283   0.000000
    18  C    0.000003   0.000010  -0.000001  -0.000001   0.000000   4.828572
    19  C    0.000045  -0.000026  -0.000001   0.000000   0.000000   0.380523
    20  N    0.001157  -0.001719   0.000011   0.000058   0.000003   0.280731
    21  N   -0.000284   0.000055  -0.000003   0.000000  -0.000000  -0.049968
    22  C    0.000000   0.000000  -0.000000  -0.000000   0.000000  -0.000000
    23  C    0.000000   0.000000  -0.000000   0.000000  -0.000000   0.000000
    24  N    0.000000  -0.000000   0.000000  -0.000000   0.000000  -0.000000
    25  H   -0.000000   0.000000   0.000000  -0.000000   0.000000   0.000000
    26  N   -0.000000  -0.000000  -0.000000  -0.000000   0.000000  -0.000000
    27  H   -0.000000  -0.000000  -0.000000  -0.000000   0.000000   0.000000
    28  H    0.000000   0.000000  -0.000000  -0.000000  -0.000000  -0.000000
    29  H   -0.057224   0.002847   0.372651  -0.001031   0.004624  -0.000000
    30  H   -0.060755  -0.006573   0.383469   0.013673  -0.000383   0.000000
    31  H   -0.000061   0.000007  -0.000000   0.000000   0.000000   0.008241
    32  H   -0.000021  -0.000014   0.000039   0.000008   0.000002  -0.019775
    33  H   -0.001006   0.011458   0.000598  -0.035858   0.000144   0.000000
    34  H    0.000014  -0.000034   0.000000  -0.000002  -0.000000  -0.027877
    35  H   -0.000000   0.000001   0.000000  -0.000005  -0.000000   0.000000
    36  H   -0.048199   0.383431   0.012476  -0.048730  -0.022112  -0.000038
    37  H    0.000000  -0.000000  -0.000000  -0.000000   0.000000   0.000000
    38  H    0.000010  -0.000008   0.000000   0.000000  -0.000000   0.372805
    39  H    0.000020  -0.000006   0.000000  -0.000000   0.000000   0.403071
    40  H    0.000039  -0.000008   0.000000  -0.000000  -0.000000  -0.035409
    41  H   -0.000003   0.000001   0.000000   0.000000   0.000000  -0.025057
    42  H    0.392646  -0.047875  -0.036350  -0.004707   0.006908  -0.000095
    43  H    0.395206  -0.051478  -0.024312   0.006697  -0.000930   0.000038
    44  H   -0.000000   0.000000   0.000000  -0.000000  -0.000000   0.000000
    45  H    0.000000  -0.000000  -0.000000  -0.000000   0.000000  -0.000000
              19         20         21         22         23         24
[...]
    22  C    0.000000  -0.000000   0.000000   4.920396   0.350266   0.294696
    23  C    0.000000   0.000000  -0.000000   0.350266   4.875631  -0.074366
    24  N    0.000000  -0.000001  -0.000000   0.294696  -0.074366   6.501806
    25  H    0.000000   0.000000  -0.000000   0.358272  -0.047209  -0.042542
    26  N   -0.000000  -0.000000  -0.000000  -0.067364   0.300627   0.007804
    27  H   -0.000000  -0.000000   0.000000  -0.006141  -0.038385  -0.000150
    28  H    0.000000  -0.000000   0.000000   0.010756  -0.035104  -0.000673
    29  H    0.000000   0.000000  -0.000000   0.000000  -0.000000   0.000000
    30  H   -0.000000   0.000001   0.000000  -0.000000  -0.000000   0.000000
    31  H   -0.031243  -0.000506   0.359736  -0.000000   0.000000  -0.000000
    32  H   -0.038377   0.016731   0.377794   0.000000  -0.000000  -0.000000
    33  H    0.000000   0.000000  -0.000000  -0.000000  -0.000000  -0.000001
    34  H   -0.000218  -0.060868  -0.000057   0.000004   0.000000  -0.000093
    35  H    0.000000   0.000000   0.000000  -0.019205  -0.002873  -0.063811
    36  H    0.000004   0.001159  -0.000009   0.000000  -0.000000   0.000000
    37  H   -0.000000   0.000000   0.000000   0.411767  -0.041617  -0.034010
    38  H   -0.040166  -0.046799   0.005607   0.000000  -0.000000   0.000000
    39  H   -0.045367  -0.038050   0.010176  -0.000000  -0.000000   0.000000
    40  H    0.412284  -0.005375  -0.061925  -0.000000   0.000000  -0.000000
    41  H    0.396632   0.007654  -0.032636   0.000000  -0.000000   0.000000
    42  H    0.000025  -0.000356   0.000424   0.000000   0.000000   0.000000
    43  H   -0.000013   0.000105   0.000106   0.000000  -0.000000   0.000000
    44  H    0.000000   0.000000  -0.000000  -0.082634   0.435695   0.019820
    45  H   -0.000000  -0.000000   0.000000  -0.010636   0.382228  -0.000079
              25         26         27         28         29         30
     1  C   -0.000085  -0.000000   0.000000  -0.000000  -0.000030   0.000398
     2  C   -0.000001  -0.000000  -0.000000  -0.000000   0.000315   0.002915
     3  C    0.000052   0.000000  -0.000000  -0.000000  -0.000045  -0.000051
     4  C   -0.000159  -0.000001   0.000000  -0.000000   0.000004  -0.000033
     5  H    0.000000   0.000000  -0.000000   0.000000   0.000088  -0.000065
     6  C    0.003107   0.000036   0.000002   0.000000   0.000000  -0.000001
     7  C   -0.002429  -0.000134  -0.000006  -0.000012  -0.000000   0.000004
     8  H    0.000826   0.000021  -0.000001  -0.000000   0.000000   0.000000
     9  C    0.000384   0.000002  -0.000001   0.000000  -0.000000  -0.000033
    10  C    0.000102   0.000790   0.000021  -0.000077  -0.000000   0.000000
    11  H    0.000242   0.000000  -0.000000   0.000000   0.000000  -0.000002
    12  C   -0.000004  -0.000000   0.000000  -0.000000  -0.000001   0.000001
    13  C   -0.000000  -0.000000  -0.000000   0.000000  -0.057224  -0.060755
    14  C    0.000000  -0.000000  -0.000000   0.000000   0.002847  -0.006573
    15  N    0.000000  -0.000000  -0.000000  -0.000000   0.372651   0.383469
    16  N   -0.000000  -0.000000  -0.000000  -0.000000  -0.001031   0.013673
    17  H    0.000000   0.000000   0.000000  -0.000000   0.004624  -0.000383
    18  C    0.000000  -0.000000   0.000000  -0.000000  -0.000000   0.000000
    19  C    0.000000  -0.000000  -0.000000   0.000000   0.000000  -0.000000
    20  N    0.000000  -0.000000  -0.000000  -0.000000   0.000000   0.000001
    21  N   -0.000000  -0.000000   0.000000   0.000000  -0.000000   0.000000
    22  C    0.358272  -0.067364  -0.006141   0.010756   0.000000  -0.000000
    23  C   -0.047209   0.300627  -0.038385  -0.035104  -0.000000  -0.000000
    24  N   -0.042542   0.007804  -0.000150  -0.000673   0.000000   0.000000
    25  H    0.643130   0.020929  -0.001661  -0.000563  -0.000000  -0.000000
    26  N    0.020929   6.645153   0.364023   0.363376   0.000000   0.000000
    27  H   -0.001661   0.364023   0.472308  -0.030870   0.000000   0.000000
    28  H   -0.000563   0.363376  -0.030870   0.468744  -0.000000  -0.000000
    29  H   -0.000000   0.000000   0.000000  -0.000000   0.480133  -0.031533
    30  H   -0.000000   0.000000   0.000000  -0.000000  -0.031533   0.462033
    31  H   -0.000000  -0.000000  -0.000000   0.000000   0.000000   0.000000
    32  H   -0.000000   0.000000   0.000000  -0.000000  -0.000000  -0.000003
    33  H    0.000000   0.000000  -0.000000  -0.000000   0.000015  -0.000130
    34  H   -0.000000  -0.000000  -0.000000  -0.000000   0.000000   0.000000
    35  H    0.024997   0.000168   0.000025   0.000017  -0.000000   0.000000
    36  H   -0.000000  -0.000000   0.000000   0.000000   0.000676   0.000909
    37  H   -0.039046  -0.001563   0.006346  -0.000435   0.000000   0.000000
    38  H    0.000000   0.000000  -0.000000   0.000000   0.000000   0.000000
    39  H   -0.000000   0.000000   0.000000  -0.000000   0.000000   0.000000
    40  H    0.000000   0.000000  -0.000000  -0.000000   0.000000  -0.000000
    41  H    0.000000   0.000000   0.000000  -0.000000  -0.000000  -0.000000
    42  H   -0.000000  -0.000000  -0.000000  -0.000000   0.009451  -0.005316
    43  H    0.000000   0.000000  -0.000000  -0.000000  -0.006678   0.008944
    44  H    0.014861  -0.053677  -0.008343  -0.005218   0.000000   0.000000
    45  H   -0.010858  -0.029896   0.009261  -0.006669   0.000000   0.000000
              31         32         33         34         35         36
     1  C   -0.000000   0.000057  -0.121005  -0.001653  -0.003362   0.026111
     2  C   -0.000001  -0.000020   0.438701  -0.000038  -0.000139  -0.002911
     3  C    0.000030   0.000152   0.004546   0.033110   0.002659  -0.000941
     4  C   -0.000084  -0.001681  -0.000117  -0.123265  -0.005119  -0.009123
     5  H    0.000010   0.001972   0.000044   0.002270   0.000008  -0.007486
     6  C   -0.000002   0.000009   0.000322   0.000588   0.051283  -0.001564
     7  C   -0.000000  -0.000003  -0.000382   0.001889  -0.138251   0.001872
     8  H   -0.000000   0.000001  -0.000000   0.006324   0.003735   0.000005
     9  C    0.000000   0.000012   0.006349   0.000667   0.002671  -0.002629
    10  C   -0.000000   0.000000  -0.000117  -0.000050   0.414356   0.000038
    11  H    0.000000   0.000000   0.003276  -0.000001   0.010949  -0.000170
    12  C   -0.000026   0.001041  -0.000010   0.431978  -0.000091   0.001479
    13  C   -0.000061  -0.000021  -0.001006   0.000014  -0.000000  -0.048199
    14  C    0.000007  -0.000014   0.011458  -0.000034   0.000001   0.383431
    15  N   -0.000000   0.000039   0.000598   0.000000   0.000000   0.012476
    16  N    0.000000   0.000008  -0.035858  -0.000002  -0.000005  -0.048730
    17  H    0.000000   0.000002   0.000144  -0.000000  -0.000000  -0.022112
    18  C    0.008241  -0.019775   0.000000  -0.027877   0.000000  -0.000038
    19  C   -0.031243  -0.038377   0.000000  -0.000218   0.000000   0.000004
    20  N   -0.000506   0.016731   0.000000  -0.060868   0.000000   0.001159
    21  N    0.359736   0.377794  -0.000000  -0.000057   0.000000  -0.000009
    22  C   -0.000000   0.000000  -0.000000   0.000004  -0.019205   0.000000
    23  C    0.000000  -0.000000  -0.000000   0.000000  -0.002873  -0.000000
    24  N   -0.000000  -0.000000  -0.000001  -0.000093  -0.063811   0.000000
    25  H   -0.000000  -0.000000   0.000000  -0.000000   0.024997  -0.000000
    26  N   -0.000000   0.000000   0.000000  -0.000000   0.000168  -0.000000
    27  H   -0.000000   0.000000  -0.000000  -0.000000   0.000025   0.000000
    28  H    0.000000  -0.000000  -0.000000  -0.000000   0.000017   0.000000
    29  H    0.000000  -0.000000   0.000015   0.000000  -0.000000   0.000676
    30  H    0.000000  -0.000003  -0.000130   0.000000   0.000000   0.000909
    31  H    0.477746  -0.031257  -0.000000   0.000005  -0.000000  -0.000001
    32  H   -0.031257   0.451592  -0.000000   0.000239  -0.000000   0.000027
    33  H   -0.000000  -0.000000   0.561873  -0.000001   0.000023  -0.001073
    34  H    0.000005   0.000239  -0.000001   0.620310  -0.000006   0.000077
    35  H   -0.000000  -0.000000   0.000023  -0.000006   0.633369  -0.000000
    36  H   -0.000001   0.000027  -0.001073   0.000077  -0.000000   0.590479
    37  H    0.000000   0.000000   0.000000   0.000000  -0.000377   0.000000
    38  H   -0.000690   0.001082   0.000000   0.023490   0.000000   0.000008
    39  H   -0.000622  -0.001003  -0.000000   0.000084  -0.000000  -0.000002
    40  H   -0.008732  -0.002552   0.000000  -0.000116  -0.000000   0.000001
    41  H   -0.003356   0.008595  -0.000000   0.000197   0.000000  -0.000000
    42  H    0.000142   0.000738   0.000249  -0.000005  -0.000000   0.001045
    43  H   -0.000021  -0.000034   0.000043   0.000001   0.000000   0.002066
    44  H   -0.000000  -0.000000   0.000000  -0.000001   0.000473  -0.000000
    45  H   -0.000000   0.000000   0.000000   0.000000   0.000594   0.000000
              37         38         39         40         41         42
     1  C    0.000004  -0.000021   0.000058   0.000055  -0.000001  -0.004373
     2  C   -0.000000   0.000000   0.000001   0.000005  -0.000000   0.004145
     3  C   -0.000006   0.001407   0.000129  -0.000297   0.000046  -0.005060
     4  C    0.000054  -0.003349  -0.001712  -0.000235  -0.000076   0.000719
     5  H   -0.000000   0.000333  -0.000481  -0.000720   0.000066   0.012649
     6  C   -0.000072   0.000140   0.000023  -0.000054   0.000000   0.000116
     7  C   -0.000239   0.000001   0.000004   0.000011  -0.000000  -0.000043
     8  H   -0.000300   0.000109  -0.000004  -0.000003   0.000000  -0.000000
     9  C   -0.000059   0.000009  -0.000010  -0.000013   0.000000   0.000209
    10  C   -0.001535   0.000000  -0.000000  -0.000000   0.000000  -0.000000
    11  H   -0.000006   0.000000  -0.000000  -0.000000   0.000000   0.000002
    12  C    0.000000   0.003056  -0.001013   0.003975   0.000294  -0.000307
    13  C    0.000000   0.000010   0.000020   0.000039  -0.000003   0.392646
    14  C   -0.000000  -0.000008  -0.000006  -0.000008   0.000001  -0.047875
    15  N   -0.000000   0.000000   0.000000   0.000000   0.000000  -0.036350
    16  N   -0.000000   0.000000  -0.000000  -0.000000   0.000000  -0.004707
    17  H    0.000000  -0.000000   0.000000  -0.000000   0.000000   0.006908
    18  C    0.000000   0.372805   0.403071  -0.035409  -0.025057  -0.000095
    19  C   -0.000000  -0.040166  -0.045367   0.412284   0.396632   0.000025
    20  N    0.000000  -0.046799  -0.038050  -0.005375   0.007654  -0.000356
    21  N    0.000000   0.005607   0.010176  -0.061925  -0.032636   0.000424
    22  C    0.411767   0.000000  -0.000000  -0.000000   0.000000   0.000000
    23  C   -0.041617  -0.000000  -0.000000   0.000000  -0.000000   0.000000
    24  N   -0.034010   0.000000   0.000000  -0.000000   0.000000   0.000000
    25  H   -0.039046   0.000000  -0.000000   0.000000   0.000000  -0.000000
    26  N   -0.001563   0.000000   0.000000   0.000000   0.000000  -0.000000
    27  H    0.006346  -0.000000   0.000000  -0.000000   0.000000  -0.000000
    28  H   -0.000435   0.000000  -0.000000  -0.000000  -0.000000  -0.000000
    29  H    0.000000   0.000000   0.000000   0.000000  -0.000000   0.009451
    30  H    0.000000   0.000000   0.000000  -0.000000  -0.000000  -0.005316
    31  H    0.000000  -0.000690  -0.000622  -0.008732  -0.003356   0.000142
    32  H    0.000000   0.001082  -0.001003  -0.002552   0.008595   0.000738
    33  H    0.000000   0.000000  -0.000000   0.000000  -0.000000   0.000249
    34  H    0.000000   0.023490   0.000084  -0.000116   0.000197  -0.000005
    35  H   -0.000377   0.000000  -0.000000  -0.000000   0.000000  -0.000000
    36  H    0.000000   0.000008  -0.000002   0.000001  -0.000000   0.001045
    37  H    0.586357  -0.000000   0.000000  -0.000000   0.000000  -0.000000
    38  H   -0.000000   0.622533  -0.026759   0.001794  -0.002283  -0.000009
    39  H    0.000000  -0.026759   0.586290   0.011975  -0.005669  -0.000026
    40  H   -0.000000   0.001794   0.011975   0.630695  -0.041711  -0.000072
    41  H    0.000000  -0.002283  -0.005669  -0.041711   0.591552   0.000004
    42  H   -0.000000  -0.000009  -0.000026  -0.000072   0.000004   0.579480
    43  H    0.000000   0.000001   0.000022   0.000006  -0.000001  -0.017199
    44  H   -0.010303   0.000000   0.000000   0.000000   0.000000  -0.000000
    45  H    0.008558  -0.000000   0.000000  -0.000000   0.000000  -0.000000
              43         44         45
     1  C   -0.000196  -0.000008   0.000004
     2  C    0.000865   0.000000  -0.000000
     3  C    0.001174   0.000014  -0.000002
     4  C   -0.000138  -0.000034   0.000017
     5  H   -0.001204   0.000000  -0.000000
     6  C   -0.000012   0.000401   0.000066
     7  C    0.000009  -0.000780  -0.001119
     8  H    0.000000   0.001355  -0.000070
     9  C   -0.000038   0.000087  -0.000145
    10  C    0.000000   0.002959   0.003642
    11  H   -0.000000   0.000005  -0.000004
    12  C    0.000016  -0.000006  -0.000000
    13  C    0.395206  -0.000000   0.000000
    14  C   -0.051478   0.000000  -0.000000
    15  N   -0.024312   0.000000  -0.000000
    16  N    0.006697  -0.000000  -0.000000
    17  H   -0.000930  -0.000000   0.000000
    18  C    0.000038   0.000000  -0.000000
    19  C   -0.000013   0.000000  -0.000000
    20  N    0.000105   0.000000  -0.000000
    21  N    0.000106  -0.000000   0.000000
    22  C    0.000000  -0.082634  -0.010636
    23  C   -0.000000   0.435695   0.382228
    24  N    0.000000   0.019820  -0.000079
    25  H    0.000000   0.014861  -0.010858
    26  N    0.000000  -0.053677  -0.029896
    27  H   -0.000000  -0.008343   0.009261
    28  H   -0.000000  -0.005218  -0.006669
    29  H   -0.006678   0.000000   0.000000
    30  H    0.008944   0.000000   0.000000
    31  H   -0.000021  -0.000000  -0.000000
    32  H   -0.000034  -0.000000   0.000000
    33  H    0.000043   0.000000   0.000000
    34  H    0.000001  -0.000001   0.000000
    35  H    0.000000   0.000473   0.000594
    36  H    0.002066  -0.000000   0.000000
    37  H    0.000000  -0.010303   0.008558
    38  H    0.000001   0.000000  -0.000000
    39  H    0.000022   0.000000   0.000000
    40  H    0.000006   0.000000  -0.000000
    41  H   -0.000001   0.000000   0.000000
    42  H   -0.017199  -0.000000  -0.000000
    43  H    0.563826   0.000000  -0.000000
    44  H    0.000000   0.634105  -0.044289
    45  H   -0.000000  -0.044289   0.589924
 Mulliken charges:
               1
     1  C    0.287005
     2  C   -0.167180
     3  C   -0.335410
     4  C    0.354196
     5  H    0.153685
     6  C   -0.350897
     7  C    0.302902
     8  H    0.125593
     9  C   -0.328162
    10  C   -0.139993
    11  H    0.137139
    12  C   -0.168705
    13  C   -0.102284
    14  C   -0.155558
    15  N   -0.536642
    16  N   -0.208266
    17  H    0.117275
    18  C   -0.063319
    19  C   -0.082190
    20  N   -0.213162
    21  N   -0.561753
    22  C   -0.085530
    23  C   -0.107768
    24  N   -0.184511
    25  H    0.077654
    26  N   -0.550294
    27  H    0.233572
    28  H    0.236728
    29  H    0.225738
    30  H    0.232531
    31  H    0.230685
    32  H    0.234649
    33  H    0.132059
    34  H    0.093039
    35  H    0.087908
    36  H    0.123126
    37  H    0.116481
    38  H    0.087696
    39  H    0.108871
    40  H    0.096381
    41  H    0.105751
    42  H    0.112840
    43  H    0.123128
    44  H    0.095519
    45  H    0.109474
 Sum of Mulliken charges =   0.00000
 Mulliken charges with hydrogens summed into heavy atoms:
               1
     1  C    0.287005
     2  C   -0.035121
     3  C   -0.181725
     4  C    0.354196
     6  C   -0.225304
     7  C    0.302902
     9  C   -0.191022
    10  C   -0.052086
    12  C   -0.075665
    13  C    0.133683
    14  C    0.084844
    15  N   -0.078373
    16  N   -0.208266
    18  C    0.133248
    19  C    0.119942
    20  N   -0.213162
    21  N   -0.096420
    22  C    0.108605
    23  C    0.097225
    24  N   -0.184511
    26  N   -0.079995
 Electronic spatial extent (au):  <R**2>=          10888.9913
 Charge=              0.0000 electrons
 Dipole moment (field-independent basis, Debye):
    X=              4.0671    Y=              1.4807    Z=             -0.3176  Tot=              4.3399
 Quadrupole moment (field-independent basis, Debye-Ang):
   XX=           -137.1758   YY=           -121.2580   ZZ=           -123.5904
   XY=              5.3142   XZ=              4.1932   YZ=             -3.3367
 Traceless Quadrupole moment (field-independent basis, Debye-Ang):
   XX=             -9.8344   YY=              6.0834   ZZ=              3.7510
   XY=              5.3142   XZ=              4.1932   YZ=             -3.3367
 Octapole moment (field-independent basis, Debye-Ang**2):
  XXX=            186.1973  YYY=             35.7162  ZZZ=             12.4081  XYY=             14.1423
  XXY=             88.9411  XXZ=              8.6178  XZZ=              2.6657  YZZ=             -8.1150
  YYZ=             -6.5256  XYZ=             44.0816
 Hexadecapole moment (field-independent basis, Debye-Ang**3):
 XXXX=         -10827.9204 YYYY=          -3505.7599 ZZZZ=           -414.5976 XXXY=            690.7644
 XXXZ=            307.6681 YYYX=            -15.9400 YYYZ=            -41.5213 ZZZX=             42.1253
 ZZZY=            -10.3011 XXYY=          -2329.5223 XXZZ=          -1611.5032 YYZZ=           -634.7303
 XXYZ=           -152.5278 YYXZ=              6.5386 ZZXY=             47.2483
 N-N= 1.563404043460D+03 E-N=-5.252743960530D+03  KE= 9.095434509038D+02
 No NMR shielding tensors so no spin-rotation constants.
 Leave Link  601 at Mon Oct 18 20:54:40 2021, MaxMem=  7864320000 cpu:              13.4 elap:               0.5
 (Enter /apps/gaussian/g16-c01-avx/g16/l9999.exe)
 Unable to Open any file for archive entry.
 1\1\GINC-CX3-6-2\SP\RPBE1PBE\def2TZVP\C15H24N6\ATARZIA\18-Oct-2021\0\\
 #P PBE1PBE/Def2TZVP SP SCF=(YQC,MaxCycle=900) int=(Grid=Superfinegrid)
  EmpiricalDispersion=GD3 SCRF=(PCM,Solvent=Chloroform)\\_1_alde1_3_ami
 4_2_opt_cfm\\0,1\C,0,-0.872,-0.345,-1.1043\C,0,-0.9763,-1.6702,-0.4649
 \C,0,-1.9469,0.5299,-1.1924\C,0,-1.8029,1.7806,-1.7969\H,0,-2.924,0.25
 78,-0.8281\C,0,-0.5718,2.1486,-2.3227\C,0,0.5137,1.2753,-2.2575\H,0,-0
 .4284,3.1084,-2.7946\C,0,0.353,0.0323,-1.6541\C,0,1.8029,1.654,-2.8188
 \H,0,1.1917,-0.6484,-1.5975\C,0,-2.9389,2.6896,-1.8681\C,0,-3.7274,-1.
 4104,1.4381\C,0,-2.2088,-1.1167,1.4918\N,0,-4.0997,-2.7471,1.8404\N,0,
 -1.5185,-2.0151,0.6181\H,0,-1.8536,-1.3407,2.5044\C,0,-5.1426,3.316,-1
 .3961\C,0,-6.3839,2.5511,-1.8665\N,0,-4.0378,2.4162,-1.3143\N,0,-6.813
 ,1.645,-0.817\C,0,3.2595,3.1182,-3.9053\C,0,3.7866,4.3718,-3.1965\N,0,
 1.9813,2.771,-3.3759\H,0,4.0027,2.3103,-3.8133\N,0,5.0715,4.7461,-3.76
 08\H,0,4.9631,5.0123,-4.7343\H,0,5.4557,5.5417,-3.2633\H,0,-3.8164,-2.
 9162,2.8003\H,0,-3.6127,-3.4219,1.2592\H,0,-7.5458,1.0294,-1.1527\H,0,
 -6.0246,1.072,-0.534\H,0,-0.4636,-2.4705,-0.9959\H,0,-2.7701,3.6266,-2
 .4218\H,0,2.6045,0.9037,-2.7295\H,0,-2.0305,-0.0539,1.2782\H,0,3.1215,
 3.3508,-4.9669\H,0,-4.9446,4.1735,-2.0608\H,0,-5.3425,3.6826,-0.3846\H
 ,0,-6.1419,2.0453,-2.8178\H,0,-7.1936,3.2625,-2.0561\H,0,-4.0831,-1.26
 57,0.4139\H,0,-4.2426,-0.6965,2.0863\H,0,3.0184,5.1587,-3.2671\H,0,3.9
 381,4.1432,-2.1376\\Version=ES64L-G16RevC.01\State=1-A\HF=-913.7833672
 \RMSD=4.983e-09\Dipole=1.0284478,0.9882777,-0.9386067\Quadrupole=-6.19
 68004,3.9072177,2.2895827,-0.2160591,6.3687785,-1.5057912\PG=C01 [X(C1
 5H24N6)]\\@
 The archive entry for this job was punched.


 If fifty million people say a stupid thing,
 it is still a stupid thing.
                   -- Anatole France
 Job cpu time:       0 days  4 hours  4 minutes 33.7 seconds.
 Elapsed time:       0 days  0 hours  7 minutes 44.8 seconds.
 File lengths (MBytes):  RWF=   1024 Int=      0 D2E=      0 Chk=     48 Scr=     16
 Normal termination of Gaussian 16 at Mon Oct 18 20:54:40 2021.
