 Entering Gaussian System, Link 0=g16
 Initial command:
 /apps/gaussian/g16-c01-avx/g16/l1.exe "/rds/general/ephemeral/user/atarzia/ephemeral/xtb_spe_DFT/Gau-4090602.inp" -scrdir="/rds/general/ephemeral/user/atarzia/ephemeral/xtb_spe_DFT/"
 Entering Link 1 = /apps/gaussian/g16-c01-avx/g16/l1.exe PID=   4090603.
  
 Copyright (c) 1988-2019, Gaussian, Inc.  All Rights Reserved.
  
 This is part of the Gaussian(R) 16 program.  It is based on
 the Gaussian(R) 09 system (copyright 2009, Gaussian, Inc.),
 the Gaussian(R) 03 system (copyright 2003, Gaussian, Inc.),
 the Gaussian(R) 98 system (copyright 1998, Gaussian, Inc.),
 the Gaussian(R) 94 system (copyright 1995, Gaussian, Inc.),
 the Gaussian 92(TM) system (copyright 1992, Gaussian, Inc.),
 the Gaussian 90(TM) system (copyright 1990, Gaussian, Inc.),
 the Gaussian 88(TM) system (copyright 1988, Gaussian, Inc.),
 the Gaussian 86(TM) system (copyright 1986, Carnegie Mellon
 University), and the Gaussian 82(TM) system (copyright 1983,
 Carnegie Mellon University). Gaussian is a federally registered
 trademark of Gaussian, Inc.
  
 This software contains proprietary and confidential information,
 including trade secrets, belonging to Gaussian, Inc.
  
 This software is provided under written license and may be
 used, copied, transmitted, or stored only in accord with that
 written license.
  
 The following legend is applicable only to US Government
 contracts under FAR:
  
                    RESTRICTED RIGHTS LEGEND
  
 Use, reproduction and disclosure by the US Government is
 subject to restrictions as set forth in subparagraphs (a)
 and (c) of the Commercial Computer Software - Restricted
 Rights clause in FAR 52.227-19.
  
 Gaussian, Inc.
 340 Quinnipiac St., Bldg. 40, Wallingford CT 06492
  
  
 ---------------------------------------------------------------
 Warning -- This program may not be used in any manner that
 competes with the business of Gaussian, Inc. or will provide
 assistance to any competitor of Gaussian, Inc.  The licensee
 of this program is prohibited from giving any competitor of
 Gaussian, Inc. access to this program.  By using this program,
 the user acknowledges that Gaussian, Inc. is engaged in the
 business of creating and licensing software in the field of
 computational chemistry and represents and warrants to the
 licensee that it is not a competitor of Gaussian, Inc. and that
 it will not use this program in any manner prohibited above.
 ---------------------------------------------------------------
  

 Cite this work as:
 Gaussian 16, Revision C.01,
 M. J. Frisch, G. W. Trucks, H. B. Schlegel, G. E. Scuseria, 
 M. A. Robb, J. R. Cheeseman, G. Scalmani, V. Barone, 
 G. A. Petersson, H. Nakatsuji, X. Li, M. Caricato, A. V. Marenich, 
 J. Bloino, B. G. Janesko, R. Gomperts, B. Mennucci, H. P. Hratchian, 
 J. V. Ortiz, A. F. Izmaylov, J. L. Sonnenberg, D. Williams-Young, 
 F. Ding, F. Lipparini, F. Egidi, J. Goings, B. Peng, A. Petrone, 
 T. Henderson, D. Ranasinghe, V. G. Zakrzewski, J. Gao, N. Rega, 
 G. Zheng, W. Liang, M. Hada, M. Ehara, K. Toyota, R. Fukuda, 
 J. Hasegawa, M. Ishida, T. Nakajima, Y. Honda, O. Kitao, H. Nakai, 
 T. Vreven, K. Throssell, J. A. Montgomery, Jr., J. E. Peralta, 
 F. Ogliaro, M. J. Bearpark, J. J. Heyd, E. N. Brothers, K. N. Kudin, 
 V. N. Staroverov, T. A. Keith, R. Kobayashi, J. Normand, 
 K. Raghavachari, A. P. Rendell, J. C. Burant, S. S. Iyengar, 
 J. Tomasi, M. Cossi, J. M. Millam, M. Klene, C. Adamo, R. Cammi, 
 J. W. Ochterski, R. L. Martin, K. Morokuma, O. Farkas, 
 J. B. Foresman, and D. J. Fox, Gaussian, Inc., Wallingford CT, 2019.
 
 ******************************************
 Gaussian 16:  ES64L-G16RevC.01  3-Jul-2019
                11-Nov-2021 
 ******************************************
 %chk=_1_alde1_2_ami3_2_opt_dcm_mp2.chk
 %mem=60000mb
 %nprocshared=32
 Will use up to   32 processors via shared memory.
 ----------------------------------------------------------------------
 #P MP2/aug-cc-pVDZ SP SCF=(YQC,MaxCycle=900) int=(Grid=Superfinegrid) 
 SCRF=(PCM,Solvent=Dichloromethane)
 ----------------------------------------------------------------------
 1/38=1,172=1/1;
 2/12=2,17=6,18=5,40=1/2;
 3/5=16,7=10,11=9,25=1,30=1,70=2201,72=9,75=-7/1,2,3;
 4//1;
 5/5=2,7=900,8=4,13=1,38=1,53=9/8,2,8;
 8/10=1/1;
 9/16=-3/6;
 6/7=2,8=2,9=2,10=2/1;
 99/5=1,9=1/99;
 Leave Link    1 at Thu Nov 11 13:38:36 2021, MaxMem=  7864320000 cpu:               6.2 elap:               0.2
 (Enter /apps/gaussian/g16-c01-avx/g16/l101.exe)
 -----------------------------
 _1_alde1_2_ami3_2_opt_dcm_mp2
 -----------------------------
 Symbolic Z-matrix:
 Charge =  0 Multiplicity = 1
 C                    -1.3091    0.9866   -2.0738 
 C                    -1.628    -0.2097   -1.28 
 C                    -2.3264    1.6736   -2.7327 
 C                    -2.0391    2.8083   -3.4862 
 H                    -3.3453    1.327    -2.6607 
 C                    -0.7197    3.2476   -3.5733 
 C                     0.3076    2.5698   -2.9204 
 H                    -0.4888    4.1286   -4.1571 
 C                     0.0043    1.4364   -2.1696 
 C                     1.6817    3.0441   -3.0238 
 H                     0.8091    0.9212   -1.6682 
 C                    -3.1013    3.5302   -4.1758 
 O                    -2.7274   -0.6765   -1.1328 
 C                    -5.3308    3.8637   -4.7952 
 C                    -6.2894    4.4401   -3.73 
 N                    -4.2981    3.1439   -4.1214 
 H                    -4.9295    4.7144   -5.3771 
 C                    -6.0614    2.9025   -5.742 
 N                    -7.1535    5.4272   -4.3546 
 H                    -5.6771    4.9861   -2.9993 
 C                    -7.0172    3.3015   -2.9986 
 C                    -6.7607    1.7899   -4.9694 
 C                    -7.7476    2.3761   -3.9666 
 C                     4.7969    1.8664   -3.3115 
 C                     3.969     2.9315   -2.5594 
 N                     6.0585    2.4537   -3.7276 
 H                     4.2532    1.6199   -4.2337 
 C                     4.9169    0.5897   -2.4642 
 N                     2.6278    2.4532   -2.4389 
 H                     4.0213    3.867    -3.1465 
 C                     4.5298    3.1851   -1.1541 
 C                     5.494     0.8746   -1.0812 
 C                     4.6227    1.8915   -0.353 
 H                    -0.7409   -0.6734   -0.8032 
 H                     6.5751    1.7942   -4.2993 
 H                     6.6306    2.6721   -2.9194 
 H                    -7.7767    4.9803   -5.0181 
 H                    -7.7287    5.8765   -3.6502 
 H                    -8.5311    2.9252   -4.4973 
 H                    -8.233     1.5738   -3.4073 
 H                    -6.0098    1.2071   -4.4351 
 H                    -7.2791    1.1281   -5.6667 
 H                    -6.7856    3.4707   -6.3292 
 H                    -5.3325    2.4749   -6.4341 
 H                    -6.2733    2.7255   -2.4472 
 H                    -7.7215    3.7296   -2.2794 
 H                    -2.7905    4.4241   -4.7405 
 H                     1.8364    3.944    -3.6401 
 H                     3.6193    1.4825   -0.2295 
 H                     5.0338    2.1007    0.637 
 H                     5.5152    3.6454   -1.2468 
 H                     3.8765    3.8948   -0.6416 
 H                     5.5422   -0.135    -2.9936 
 H                     3.9188    0.1639   -2.3548 
 H                     6.5141    1.2597   -1.1694 
 H                     5.5447   -0.0537   -0.5083 
 
 ITRead=  0  0  0  0  0  0  0  0  0  0  0  0  0  0  0  0  0  0  0  0
 ITRead=  0  0  0  0  0  0  0  0  0  0  0  0  0  0  0  0  0  0  0  0
 ITRead=  0  0  0  0  0  0  0  0  0  0  0  0  0  0  0  0
 MicOpt= -1 -1 -1 -1 -1 -1 -1 -1 -1 -1 -1 -1 -1 -1 -1 -1 -1 -1 -1 -1
 MicOpt= -1 -1 -1 -1 -1 -1 -1 -1 -1 -1 -1 -1 -1 -1 -1 -1 -1 -1 -1 -1
 MicOpt= -1 -1 -1 -1 -1 -1 -1 -1 -1 -1 -1 -1 -1 -1 -1 -1
 NAtoms=     56 NQM=       56 NQMF=       0 NMMI=      0 NMMIF=      0
                NMic=       0 NMicF=      0.
                    Isotopes and Nuclear Properties:
 (Nuclear quadrupole moments (NQMom) in fm**2, nuclear magnetic moments (NMagM)
  in nuclear magnetons)

  Atom         1           2           3           4           5           6           7           8           9          10
 IAtWgt=          12          12          12          12           1          12          12           1          12          12
 AtmWgt=  12.0000000  12.0000000  12.0000000  12.0000000   1.0078250  12.0000000  12.0000000   1.0078250  12.0000000  12.0000000
 NucSpn=           0           0           0           0           1           0           0           1           0           0
 AtZEff=  -0.0000000  -0.0000000  -0.0000000  -0.0000000  -0.0000000  -0.0000000  -0.0000000  -0.0000000  -0.0000000  -0.0000000
 NQMom=    0.0000000   0.0000000   0.0000000   0.0000000   0.0000000   0.0000000   0.0000000   0.0000000   0.0000000   0.0000000
 NMagM=    0.0000000   0.0000000   0.0000000   0.0000000   2.7928460   0.0000000   0.0000000   2.7928460   0.0000000   0.0000000
 AtZNuc=   6.0000000   6.0000000   6.0000000   6.0000000   1.0000000   6.0000000   6.0000000   1.0000000   6.0000000   6.0000000

  Atom        11          12          13          14          15          16          17          18          19          20
 IAtWgt=           1          12          16          12          12          14           1          12          14           1
 AtmWgt=   1.0078250  12.0000000  15.9949146  12.0000000  12.0000000  14.0030740   1.0078250  12.0000000  14.0030740   1.0078250
 NucSpn=           1           0           0           0           0           2           1           0           2           1
 AtZEff=  -0.0000000  -0.0000000  -0.0000000  -0.0000000  -0.0000000  -0.0000000  -0.0000000  -0.0000000  -0.0000000  -0.0000000
 NQMom=    0.0000000   0.0000000   0.0000000   0.0000000   0.0000000   2.0440000   0.0000000   0.0000000   2.0440000   0.0000000
 NMagM=    2.7928460   0.0000000   0.0000000   0.0000000   0.0000000   0.4037610   2.7928460   0.0000000   0.4037610   2.7928460
 AtZNuc=   1.0000000   6.0000000   8.0000000   6.0000000   6.0000000   7.0000000   1.0000000   6.0000000   7.0000000   1.0000000

  Atom        21          22          23          24          25          26          27          28          29          30
 IAtWgt=          12          12          12          12          12          14           1          12          14           1
 AtmWgt=  12.0000000  12.0000000  12.0000000  12.0000000  12.0000000  14.0030740   1.0078250  12.0000000  14.0030740   1.0078250
 NucSpn=           0           0           0           0           0           2           1           0           2           1
 AtZEff=  -0.0000000  -0.0000000  -0.0000000  -0.0000000  -0.0000000  -0.0000000  -0.0000000  -0.0000000  -0.0000000  -0.0000000
 NQMom=    0.0000000   0.0000000   0.0000000   0.0000000   0.0000000   2.0440000   0.0000000   0.0000000   2.0440000   0.0000000
 NMagM=    0.0000000   0.0000000   0.0000000   0.0000000   0.0000000   0.4037610   2.7928460   0.0000000   0.4037610   2.7928460
 AtZNuc=   6.0000000   6.0000000   6.0000000   6.0000000   6.0000000   7.0000000   1.0000000   6.0000000   7.0000000   1.0000000

  Atom        31          32          33          34          35          36          37          38          39          40
 IAtWgt=          12          12          12           1           1           1           1           1           1           1
 AtmWgt=  12.0000000  12.0000000  12.0000000   1.0078250   1.0078250   1.0078250   1.0078250   1.0078250   1.0078250   1.0078250
 NucSpn=           0           0           0           1           1           1           1           1           1           1
 AtZEff=  -0.0000000  -0.0000000  -0.0000000  -0.0000000  -0.0000000  -0.0000000  -0.0000000  -0.0000000  -0.0000000  -0.0000000
 NQMom=    0.0000000   0.0000000   0.0000000   0.0000000   0.0000000   0.0000000   0.0000000   0.0000000   0.0000000   0.0000000
 NMagM=    0.0000000   0.0000000   0.0000000   2.7928460   2.7928460   2.7928460   2.7928460   2.7928460   2.7928460   2.7928460
 AtZNuc=   6.0000000   6.0000000   6.0000000   1.0000000   1.0000000   1.0000000   1.0000000   1.0000000   1.0000000   1.0000000

  Atom        41          42          43          44          45          46          47          48          49          50
 IAtWgt=           1           1           1           1           1           1           1           1           1           1
 AtmWgt=   1.0078250   1.0078250   1.0078250   1.0078250   1.0078250   1.0078250   1.0078250   1.0078250   1.0078250   1.0078250
 NucSpn=           1           1           1           1           1           1           1           1           1           1
 AtZEff=  -0.0000000  -0.0000000  -0.0000000  -0.0000000  -0.0000000  -0.0000000  -0.0000000  -0.0000000  -0.0000000  -0.0000000
 NQMom=    0.0000000   0.0000000   0.0000000   0.0000000   0.0000000   0.0000000   0.0000000   0.0000000   0.0000000   0.0000000
 NMagM=    2.7928460   2.7928460   2.7928460   2.7928460   2.7928460   2.7928460   2.7928460   2.7928460   2.7928460   2.7928460
 AtZNuc=   1.0000000   1.0000000   1.0000000   1.0000000   1.0000000   1.0000000   1.0000000   1.0000000   1.0000000   1.0000000

  Atom        51          52          53          54          55          56
 IAtWgt=           1           1           1           1           1           1
 AtmWgt=   1.0078250   1.0078250   1.0078250   1.0078250   1.0078250   1.0078250
 NucSpn=           1           1           1           1           1           1
 AtZEff=  -0.0000000  -0.0000000  -0.0000000  -0.0000000  -0.0000000  -0.0000000
 NQMom=    0.0000000   0.0000000   0.0000000   0.0000000   0.0000000   0.0000000
 NMagM=    2.7928460   2.7928460   2.7928460   2.7928460   2.7928460   2.7928460
 AtZNuc=   1.0000000   1.0000000   1.0000000   1.0000000   1.0000000   1.0000000
 Leave Link  101 at Thu Nov 11 13:38:36 2021, MaxMem=  7864320000 cpu:               2.1 elap:               0.1
 (Enter /apps/gaussian/g16-c01-avx/g16/l202.exe)
 Stoichiometry    C21H30N4O
 Framework group  C1[X(C21H30N4O)]
 Deg. of freedom   162
 Full point group                 C1      NOp   1
 Largest Abelian subgroup         C1      NOp   1
 Largest concise Abelian subgroup C1      NOp   1
                         Standard orientation:                         
 ---------------------------------------------------------------------
 Center     Atomic      Atomic             Coordinates (Angstroms)
 Number     Number       Type             X           Y           Z
 ---------------------------------------------------------------------
      1          6           0        0.019322    1.729755   -0.012799
      2          6           0       -0.000507    3.200313   -0.016787
      3          6           0       -1.177703    1.019852    0.051915
      4          6           0       -1.173805   -0.372205    0.054852
      5          1           0       -2.116347    1.549106    0.099985
      6          6           0        0.043953   -1.046461   -0.007055
      7          6           0        1.248510   -0.349347   -0.071169
      8          1           0        0.054849   -2.128208   -0.005105
      9          6           0        1.228351    1.043447   -0.074012
     10          6           0        2.512380   -1.072118   -0.134703
     11          1           0        2.168244    1.571225   -0.124875
     12          6           0       -2.424512   -1.118054    0.121166
     13          8           0       -0.989247    3.884721    0.030415
     14          6           0       -4.753900   -1.271289    0.247736
     15          6           0       -5.560097   -0.971673   -1.035260
     16          7           0       -3.535149   -0.529686    0.190644
     17          1           0       -4.572834   -2.361936    0.280029
     18          6           0       -5.526831   -0.849009    1.504068
     19          7           0       -6.637393   -1.939300   -1.154801
     20          1           0       -4.892807   -1.147518   -1.890101
     21          6           0       -5.997217    0.501263   -1.056107
     22          6           0       -5.931626    0.619146    1.437200
     23          6           0       -6.778191    0.882817    0.197436
     24          6           0        5.638410   -0.899581    1.036786
     25          6           0        4.842806   -1.194753   -0.253717
     26          7           0        6.720902   -1.860625    1.156377
     27          1           0        4.966468   -1.085705    1.885713
     28          6           0        6.066203    0.576226    1.072381
     29          7           0        3.614678   -0.466174   -0.199105
     30          1           0        4.672367   -2.286449   -0.295332
     31          6           0        5.620319   -0.756997   -1.501723
     32          6           0        6.851711    0.973061   -0.173573
     33          6           0        6.015131    0.713174   -1.421018
     34          1           0        1.008891    3.656002   -0.069381
     35          1           0        7.197712   -1.735917    2.042805
     36          1           0        7.402736   -1.718900    0.419356
     37          1           0       -7.314732   -1.805874   -0.412010
     38          1           0       -7.121450   -1.808756   -2.036591
     39          1           0       -7.706827    0.307196    0.255062
     40          1           0       -7.051286    1.938844    0.149069
     41          1           0       -5.030065    1.230865    1.392810
     42          1           0       -6.487228    0.888492    2.338147
     43          1           0       -6.410427   -1.482808    1.602442
     44          1           0       -4.893204   -1.021904    2.376859
     45          1           0       -5.100122    1.118089   -1.118980
     46          1           0       -6.601879    0.683381   -1.949289
     47          1           0       -2.333697   -2.216277    0.107095
     48          1           0        2.440656   -2.171347   -0.123361
     49          1           0        5.108666    1.318047   -1.378653
     50          1           0        6.574835    0.993356   -2.316059
     51          1           0        6.508790   -1.383467   -1.599893
     52          1           0        4.993168   -0.926859   -2.379766
     53          1           0        6.664711    0.754907    1.970332
     54          1           0        5.164305    1.186125    1.136264
     55          1           0        7.783891    0.403372   -0.229973
     56          1           0        7.119094    2.030250   -0.115422
 ---------------------------------------------------------------------
 Rotational constants (GHZ):           0.4918255           0.0635600           0.0596831
 Leave Link  202 at Thu Nov 11 13:38:36 2021, MaxMem=  7864320000 cpu:               0.2 elap:               0.0
 (Enter /apps/gaussian/g16-c01-avx/g16/l301.exe)
 Standard basis: Aug-CC-pVDZ (5D, 7F)
 Ernie: Thresh=  0.10000D-02 Tol=  0.10000D-05 Strict=F.
 Ernie:  52 primitive shells out of 860 were deleted.
 There are   920 symmetry adapted cartesian basis functions of A   symmetry.
 There are   868 symmetry adapted basis functions of A   symmetry.
   868 basis functions,  1448 primitive gaussians,   920 cartesian basis functions
    96 alpha electrons       96 beta electrons
       nuclear repulsion energy      2214.0992421352 Hartrees.
 IExCor=    0 DFT=F Ex=HF Corr=None ExCW=0 ScaHFX=  1.000000
 ScaDFX=  1.000000  1.000000  1.000000  1.000000 ScalE2=  1.000000  1.000000
 IRadAn=      7 IRanWt=     -1 IRanGd=            0 ICorTp=0 IEmpDi=  4
 NAtoms=   56 NActive=   56 NUniq=   56 SFac= 1.00D+00 NAtFMM=   60 NAOKFM=F Big=F
 Integral buffers will be    131072 words long.
 Raffenetti 1 integral format.
 Two-electron integral symmetry is turned on.
 ------------------------------------------------------------------------------
 Polarizable Continuum Model (PCM)
 =================================
 Model                : PCM.
 Atomic radii         : UFF (Universal Force Field).
 Polarization charges : Total charges.
 Charge compensation  : None.
 Solution method      : On-the-fly selection.
 Cavity type          : Scaled VdW (van der Waals Surface) (Alpha=1.100).
 Cavity algorithm     : GePol (No added spheres)
                        Default sphere list used, NSphG=   56.
                        Lebedev-Laikov grids with approx.  5.0 points / Ang**2.
                        Smoothing algorithm: York/Karplus (Gamma=1.0000).
                        Polarization charges: spherical gaussians, with
                                              point-specific exponents (IZeta= 3).
                        Self-potential: point-specific (ISelfS= 7).
                        Self-field    : sphere-specific E.n sum rule (ISelfD= 2).
 Solvent              : Dichloromethane, Eps=   8.930000 Eps(inf)=   2.028346
 ------------------------------------------------------------------------------
 GePol: Number of generator spheres                  =      56
 GePol: Total number of spheres                      =      56
 GePol: Number of exposed spheres                    =      56 (100.00%)
 GePol: Number of points                             =    3660
 GePol: Average weight of points                     =       0.13
 GePol: Minimum weight of points                     =   0.30D-10
 GePol: Maximum weight of points                     =    0.20577
 GePol: Number of points with low weight             =     246
 GePol: Fraction of low-weight points (<1% of avg)   =       6.72%
 GePol: Cavity surface area                          =    481.173 Ang**2
 GePol: Cavity volume                                =    528.652 Ang**3
 Leave Link  301 at Thu Nov 11 13:38:36 2021, MaxMem=  7864320000 cpu:               1.5 elap:               0.1
 (Enter /apps/gaussian/g16-c01-avx/g16/l302.exe)
 NPDir=0 NMtPBC=     1 NCelOv=     1 NCel=       1 NClECP=     1 NCelD=      1
         NCelK=      1 NCelE2=     1 NClLst=     1 CellRange=     0.0.
 One-electron integrals computed using PRISM.
 One-electron integral symmetry used in STVInt
 NBasis=   868 RedAO= T EigKep=  1.05D-06  NBF=   868
 NBsUse=   866 1.00D-06 EigRej=  6.09D-07 NBFU=   866
 Leave Link  302 at Thu Nov 11 13:38:37 2021, MaxMem=  7864320000 cpu:              40.8 elap:               1.3
 (Enter /apps/gaussian/g16-c01-avx/g16/l303.exe)
 DipDrv:  MaxL=1.
 Leave Link  303 at Thu Nov 11 13:38:37 2021, MaxMem=  7864320000 cpu:               5.5 elap:               0.2
 (Enter /apps/gaussian/g16-c01-avx/g16/l401.exe)
 ExpMin= 2.97D-02 ExpMax= 1.17D+04 ExpMxC= 4.01D+02 IAcc=3 IRadAn=         7 AccDes= 0.00D+00
 Harris functional with IExCor=  205 and IRadAn=       7 diagonalized for initial guess.
 HarFok:  IExCor=  205 AccDes= 0.00D+00 IRadAn=         7 IDoV= 1 UseB2=F ITyADJ=14
 ICtDFT=  3500011 ScaDFX=  1.000000  1.000000  1.000000  1.000000
 FoFCou: FMM=F IPFlag=           0 FMFlag=      100000 FMFlg1=           0
         NFxFlg=           0 DoJE=T BraDBF=F KetDBF=T FulRan=T
         wScrn=  0.000000 ICntrl=       500 IOpCl=  0 I1Cent=   200000004 NGrid=           0
         NMat0=    1 NMatS0=      1 NMatT0=    0 NMatD0=    1 NMtDS0=    0 NMtDT0=    0
 Petite list used in FoFCou.
 Harris En= -1107.15301979955    
 JPrj=0 DoOrth=F DoCkMO=F.
 Leave Link  401 at Thu Nov 11 13:38:45 2021, MaxMem=  7864320000 cpu:             241.3 elap:               7.7
 (Enter /apps/gaussian/g16-c01-avx/g16/l508.exe)
 Integral symmetry usage will be decided dynamically.
 Tight linear equation convergence will be used.
 RHF wavefunction.
 Linear searches until partial convergence.
 Full line searches.
 Fock matrices will be formed incrementally for  20 cycles.
 Inv3:  Mode=1 IEnd=    40186800.
 Iteration    1 A*A^-1 deviation from unit magnitude is 4.44D-15 for   3630.
 Iteration    1 A*A^-1 deviation from orthogonality  is 3.27D-15 for   3645   3296.
 Iteration    1 A^-1*A deviation from unit magnitude is 4.44D-15 for   3652.
 Iteration    1 A^-1*A deviation from orthogonality  is 3.36D-11 for   2503   2497.
 FoFJK:  IHMeth= 1 ICntrl=       0 DoSepK=F KAlg= 0 I1Cent=           0 FoldK=F
 IRaf= 810000000 NMat=       1 IRICut=       1 DoRegI=T DoRafI=F ISym2E= 1 IDoP0=0 IntGTp=1.
 Iteration   1 EE= -1104.43754851177                                    Grad=1.626D+00 Max rot=    2.6125 deg.
 Gradient too large for Newton-Raphson -- use scaled steepest descent instead.
 Alpha Gap=     0.383 HL deriv= 1.12D-03
     ILin= 1 X=0.000D+00 Y=-1.104437548512D+03 DE= 0.00D+00 F= -3.38D+00
 RMSU=  8.38D-03    CP:  7.82D-01
     ILin= 2 X=3.000D-01 Y=-1.105187883883D+03 DE=-7.50D-01 F= -1.61D+00 OKLS=F
 RMSU=  1.61D-03    CP:  6.64D-01  1.50D+00
     ILin= 3 X=5.000D-01 Y=-1.105390840292D+03 DE=-9.53D-01 F= -4.16D-01
 RMSU=  3.86D-03    CP:  4.96D-01  2.09D+00  3.00D+00
     ILin= 4 X=9.000D-01 Y=-1.105077614560D+03 DE=-6.40D-01 F=  1.98D+00
     An  expanding polynomial of degree  4 produced  0.5697
 RMSU=  2.57D-06    CP:  6.29D-01  1.64D+00  1.54D+00  8.51D-06
 Iteration   2 EE= -1105.40522513936     Delta-E=       -0.967676627589 Grad=5.715D-01 Max rot=    1.3424 deg.
 Gradient too large for Newton-Raphson -- use scaled steepest descent instead.
 Alpha Gap=     0.431 HL deriv= 1.27D-02
     ILin= 1 X=0.000D+00 Y=-1.105405225139D+03 DE= 0.00D+00 F= -1.96D-01
 RMSU=  1.89D-03    CP:  5.54D-01  1.77D+00  2.57D+00  7.51D-04  3.00D+00
     ILin= 2 X=4.000D-01 Y=-1.105463327201D+03 DE=-5.81D-02 F= -9.49D-02 OKLS=F
 RMSU=  3.73D-04    CP:  4.92D-01  1.85D+00  3.00D+00  3.77D-01  3.00D+00
                    CP:  1.90D+00
     ILin= 3 X=8.000D-01 Y=-1.105481215017D+03 DE=-7.60D-02 F=  5.37D-03
     Accept linear search using points  2 and  3.
     An  expanding polynomial of degree  3 produced  0.6313
 RMSU=  2.77D-06    CP:  5.17D-01  1.82D+00  3.00D+00  1.27D-01  3.00D+00
                    CP:  1.53D+00  4.55D-01
 Iteration   3 EE= -1105.47855992543     Delta-E=       -0.073334786071 Grad=2.219D-01 Max rot=    0.4904 deg.
 Gradient too large for Newton-Raphson -- use scaled steepest descent instead.
 Alpha Gap=     0.421 HL deriv= 8.67D-04
     ILin= 1 X=0.000D+00 Y=-1.105478559925D+03 DE= 0.00D+00 F= -2.70D-02
 RMSU=  6.75D-04    CP:  4.82D-01  1.86D+00  3.00D+00  5.59D-01  3.00D+00
                    CP:  1.93D+00  1.40D+00 -3.00D+00
     ILin= 2 X=6.000D-01 Y=-1.105489843509D+03 DE=-1.13D-02 F= -1.06D-02 OKLS=F
 RMSU=  1.16D-04    CP:  4.51D-01  1.87D+00  3.00D+00  1.03D+00  3.00D+00
                    CP:  2.30D+00  2.57D+00 -3.00D+00  1.92D+00
     ILin= 3 X=1.200D+00 Y=-1.105491274661D+03 DE=-1.27D-02 F=  5.83D-03
     Accept linear search using points  2 and  3.
     An  expanding polynomial of degree  3 produced  0.9360
 RMSU=  1.33D-06    CP:  4.64D-01  1.87D+00  3.00D+00  8.19D-01  3.00D+00
                    CP:  2.14D+00  2.03D+00 -3.00D+00  1.53D+00  4.35D-01
 Iteration   4 EE= -1105.49185950149     Delta-E=       -0.013299576060 Grad=5.607D-02 Max rot=    0.2114 deg.
 Gradient too large for Newton-Raphson -- use scaled steepest descent instead.
 Alpha Gap=     0.427 HL deriv= 3.89D-03
     ILin= 1 X=0.000D+00 Y=-1.105491859501D+03 DE= 0.00D+00 F= -4.50D-03
 RMSU=  3.28D-04    CP:  4.55D-01  1.87D+00  3.00D+00  8.83D-01  3.00D+00
                    CP:  2.33D+00  2.33D+00 -3.00D+00  1.49D+00  1.64D+00
                    CP: -3.00D+00
     ILin= 2 X=8.000D-01 Y=-1.105493142319D+03 DE=-1.28D-03 F=  1.29D-03 OKLS=T
     Accept linear search using points  1 and  2.
     An  expanding polynomial of degree  2 produced  0.5679
 RMSU=  2.61D-06    CP:  4.58D-01  1.87D+00  3.00D+00  8.64D-01  3.00D+00
                    CP:  2.28D+00  2.24D+00 -3.00D+00  1.50D+00  1.29D+00
                    CP: -3.00D+00  7.09D-01
 Iteration   5 EE= -1105.49324732142     Delta-E=       -0.001387819933 Grad=2.131D-02 Max rot=    0.1137 deg.
 Gradient too large for Newton-Raphson -- use scaled steepest descent instead.
 Alpha Gap=     0.425 HL deriv= 7.24D-04
     ILin= 1 X=0.000D+00 Y=-1.105493247321D+03 DE= 0.00D+00 F= -6.00D-04
 RMSU=  6.91D-05    CP:  4.54D-01  1.87D+00  3.00D+00  9.11D-01  3.00D+00
                    CP:  2.33D+00  2.40D+00 -3.00D+00  1.69D+00  1.78D+00
                    CP: -3.00D+00  9.75D-01 -3.00D+00
     ILin= 2 X=7.000D-01 Y=-1.105493537940D+03 DE=-2.91D-04 F= -2.30D-04 OKLS=F
 RMSU=  1.45D-05    CP:  4.51D-01  1.87D+00  3.00D+00  9.65D-01  3.00D+00
                    CP:  2.38D+00  2.59D+00 -3.00D+00  1.90D+00  2.37D+00
                    CP: -3.00D+00  1.28D+00 -3.00D+00  2.17D+00
     ILin= 3 X=1.500D+00 Y=-1.105493553024D+03 DE=-3.06D-04 F=  1.93D-04
     Accept linear search using points  2 and  3.
     An  expanding polynomial of degree  3 produced  1.1250
 RMSU=  3.16D-07    CP:  4.53D-01  1.87D+00  3.00D+00  9.40D-01  3.00D+00
                    CP:  2.36D+00  2.50D+00 -3.00D+00  1.80D+00  2.09D+00
                    CP: -3.00D+00  1.14D+00 -3.00D+00  1.62D+00  5.05D-01
 Iteration   6 EE= -1105.49358807734     Delta-E=       -0.000340755914 Grad=1.020D-02 Max rot=    0.0554 deg.
 Gradient too large for Newton-Raphson -- use scaled steepest descent instead.
 Alpha Gap=     0.427 HL deriv= 1.35D-03
     ILin= 1 X=0.000D+00 Y=-1.105493588077D+03 DE= 0.00D+00 F= -1.96D-04
 RMSU=  4.09D-05    CP:  4.52D-01  1.87D+00  3.00D+00  9.39D-01  3.00D+00
                    CP:  2.38D+00  2.52D+00 -3.00D+00  1.76D+00  2.28D+00
                    CP: -3.00D+00  1.33D+00 -3.00D+00  1.82D+00  2.58D-01
                    CP: -3.00D+00
     ILin= 2 X=8.000D-01 Y=-1.105493632051D+03 DE=-4.40D-05 F=  8.58D-05 OKLS=T
     Accept linear search using points  1 and  2.
     An  expanding polynomial of degree  2 produced  0.5136
 RMSU=  4.63D-07    CP:  4.52D-01  1.87D+00  3.00D+00  9.39D-01  3.00D+00
                    CP:  2.37D+00  2.51D+00 -3.00D+00  1.77D+00  2.21D+00
                    CP: -3.00D+00  1.26D+00 -3.00D+00  1.75D+00  3.43D-01
                    CP: -3.00D+00  6.41D-01
 Iteration   7 EE= -1105.49364219007     Delta-E=       -0.000054112730 Grad=2.995D-03 Max rot=    0.0314 deg.
 SCF Done:  E(RHF) =  -1105.49364219     a.u. after    7 cycles
            Convg  =    0.2995D-02                    18 Fock formations.
              S**2 =  0.0000                  -V/T =  2.0004
 Leave Link  508 at Thu Nov 11 13:50:38 2021, MaxMem=  7864320000 cpu:           22560.4 elap:             713.3
 (Enter /apps/gaussian/g16-c01-avx/g16/l502.exe)
 Integral symmetry usage will be decided dynamically.
 Closed shell SCF:
 Using DIIS extrapolation, IDIIS=  1040.
 NGot=  7864320000 LenX=  7862587798 LenY=  7861740478
 Requested convergence on RMS density matrix=1.00D-08 within 128 cycles.
 Requested convergence on MAX density matrix=1.00D-06.
 Requested convergence on             energy=1.00D-06.
 No special actions if energy rises.
 Fock matrices will be formed incrementally for  20 cycles.

 Cycle   1  Pass 1  IDiag  1:
 FoFJK:  IHMeth= 1 ICntrl=       0 DoSepK=F KAlg= 0 I1Cent=           0 FoldK=F
 IRaf= 810000000 NMat=       1 IRICut=       1 DoRegI=T DoRafI=F ISym2E= 0 IDoP0=0 IntGTp=1.
 FoFCou: FMM=F IPFlag=           0 FMFlag=      100000 FMFlg1=           0
         NFxFlg=           0 DoJE=F BraDBF=F KetDBF=F FulRan=T
         wScrn=  0.000000 ICntrl=         0 IOpCl=  0 I1Cent=           0 NGrid=           0
         NMat0=    1 NMatS0=      1 NMatT0=    0 NMatD0=    1 NMtDS0=    0 NMtDT0=    0
 Symmetry not used in FoFCou.
 E= -1105.49364218886    
 DIIS: error= 7.31D-05 at cycle   1 NSaved=   1.
 NSaved= 1 IEnMin= 1 EnMin= -1105.49364218886     IErMin= 1 ErrMin= 7.31D-05
 ErrMax= 7.31D-05  0.00D+00 EMaxC= 1.00D-01 BMatC= 4.48D-06 BMatP= 4.48D-06
 IDIUse=1 WtCom= 1.00D+00 WtEn= 0.00D+00
 Coeff-Com:  0.100D+01
 Coeff:      0.100D+01
 Gap=     0.426 Goal=   None    Shift=    0.000
 RMSDP=6.73D-05 MaxDP=5.97D-03              OVMax= 1.72D-03

 Cycle   2  Pass 1  IDiag  1:
 RMSU=  6.73D-05    CP:  1.00D+00
 E= -1105.49365755662     Delta-E=       -0.000015367758 Rises=F Damp=F
 DIIS: error= 3.82D-05 at cycle   2 NSaved=   2.
 NSaved= 2 IEnMin= 2 EnMin= -1105.49365755662     IErMin= 2 ErrMin= 3.82D-05
 ErrMax= 3.82D-05  0.00D+00 EMaxC= 1.00D-01 BMatC= 9.82D-07 BMatP= 4.48D-06
 IDIUse=1 WtCom= 1.00D+00 WtEn= 0.00D+00
 Coeff-Com: -0.126D+00 0.113D+01
 Coeff:     -0.126D+00 0.113D+01
 Gap=     0.359 Goal=   None    Shift=    0.000
 RMSDP=2.21D-05 MaxDP=2.73D-03 DE=-1.54D-05 OVMax= 9.04D-04

 Cycle   3  Pass 1  IDiag  1:
 RMSU=  1.44D-05    CP:  1.00D+00  1.25D+00
 E= -1105.49366091636     Delta-E=       -0.000003359742 Rises=F Damp=F
 DIIS: error= 1.50D-05 at cycle   3 NSaved=   3.
 NSaved= 3 IEnMin= 3 EnMin= -1105.49366091636     IErMin= 3 ErrMin= 1.50D-05
 ErrMax= 1.50D-05  0.00D+00 EMaxC= 1.00D-01 BMatC= 4.27D-07 BMatP= 9.82D-07
 IDIUse=1 WtCom= 1.00D+00 WtEn= 0.00D+00
 Coeff-Com: -0.259D+00 0.421D+00 0.839D+00
 Coeff:     -0.259D+00 0.421D+00 0.839D+00
 Gap=     0.359 Goal=   None    Shift=    0.000
 RMSDP=1.33D-05 MaxDP=1.29D-03 DE=-3.36D-06 OVMax= 5.75D-04

 Cycle   4  Pass 1  IDiag  1:
 RMSU=  7.04D-06    CP:  1.00D+00  1.37D+00  1.52D+00
 E= -1105.49366204906     Delta-E=       -0.000001132696 Rises=F Damp=F
 DIIS: error= 9.17D-06 at cycle   4 NSaved=   4.
 NSaved= 4 IEnMin= 4 EnMin= -1105.49366204906     IErMin= 4 ErrMin= 9.17D-06
 ErrMax= 9.17D-06  0.00D+00 EMaxC= 1.00D-01 BMatC= 5.74D-08 BMatP= 4.27D-07
 IDIUse=1 WtCom= 1.00D+00 WtEn= 0.00D+00
 Coeff-Com:  0.173D+00-0.409D+00-0.490D+00 0.173D+01
 Coeff:      0.173D+00-0.409D+00-0.490D+00 0.173D+01
 Gap=     0.359 Goal=   None    Shift=    0.000
 RMSDP=1.09D-05 MaxDP=9.82D-04 DE=-1.13D-06 OVMax= 4.94D-04

 Cycle   5  Pass 1  IDiag  1:
 RMSU=  4.10D-06    CP:  1.00D+00  1.39D+00  2.08D+00  1.80D+00
 E= -1105.49366247233     Delta-E=       -0.000000423276 Rises=F Damp=F
 DIIS: error= 3.61D-06 at cycle   5 NSaved=   5.
 NSaved= 5 IEnMin= 5 EnMin= -1105.49366247233     IErMin= 5 ErrMin= 3.61D-06
 ErrMax= 3.61D-06  0.00D+00 EMaxC= 1.00D-01 BMatC= 1.09D-08 BMatP= 5.74D-08
 IDIUse=1 WtCom= 1.00D+00 WtEn= 0.00D+00
 Coeff-Com:  0.120D-01 0.150D-01-0.921D-01-0.342D+00 0.141D+01
 Coeff:      0.120D-01 0.150D-01-0.921D-01-0.342D+00 0.141D+01
 Gap=     0.359 Goal=   None    Shift=    0.000
 RMSDP=5.16D-06 MaxDP=3.73D-04 DE=-4.23D-07 OVMax= 2.26D-04

 Cycle   6  Pass 1  IDiag  1:
 RMSU=  1.37D-06    CP:  1.00D+00  1.42D+00  2.28D+00  2.16D+00  1.66D+00
 E= -1105.49366254525     Delta-E=       -0.000000072917 Rises=F Damp=F
 DIIS: error= 8.84D-07 at cycle   6 NSaved=   6.
 NSaved= 6 IEnMin= 6 EnMin= -1105.49366254525     IErMin= 6 ErrMin= 8.84D-07
 ErrMax= 8.84D-07  0.00D+00 EMaxC= 1.00D-01 BMatC= 1.43D-09 BMatP= 1.09D-08
 IDIUse=1 WtCom= 1.00D+00 WtEn= 0.00D+00
 Coeff-Com: -0.312D-01 0.877D-01 0.645D-01-0.378D+00 0.271D+00 0.986D+00
 Coeff:     -0.312D-01 0.877D-01 0.645D-01-0.378D+00 0.271D+00 0.986D+00
 Gap=     0.359 Goal=   None    Shift=    0.000
 RMSDP=1.33D-06 MaxDP=1.15D-04 DE=-7.29D-08 OVMax= 6.15D-05

 Cycle   7  Pass 1  IDiag  1:
 RMSU=  4.80D-07    CP:  1.00D+00  1.43D+00  2.31D+00  2.24D+00  1.84D+00
                    CP:  1.24D+00
 E= -1105.49366255165     Delta-E=       -0.000000006400 Rises=F Damp=F
 DIIS: error= 2.80D-07 at cycle   7 NSaved=   7.
 NSaved= 7 IEnMin= 7 EnMin= -1105.49366255165     IErMin= 7 ErrMin= 2.80D-07
 ErrMax= 2.80D-07  0.00D+00 EMaxC= 1.00D-01 BMatC= 1.87D-10 BMatP= 1.43D-09
 IDIUse=1 WtCom= 1.00D+00 WtEn= 0.00D+00
 Coeff-Com: -0.237D-02 0.422D-02 0.438D-02 0.324D-01-0.154D+00 0.700D-01
 Coeff-Com:  0.105D+01
 Coeff:     -0.237D-02 0.422D-02 0.438D-02 0.324D-01-0.154D+00 0.700D-01
 Coeff:      0.105D+01
 Gap=     0.359 Goal=   None    Shift=    0.000
 RMSDP=3.39D-07 MaxDP=4.24D-05 DE=-6.40D-09 OVMax= 1.42D-05

 Cycle   8  Pass 1  IDiag  1:
 RMSU=  1.73D-07    CP:  1.00D+00  1.43D+00  2.32D+00  2.26D+00  1.86D+00
                    CP:  1.35D+00  1.24D+00
 E= -1105.49366255222     Delta-E=       -0.000000000569 Rises=F Damp=F
 DIIS: error= 1.02D-07 at cycle   8 NSaved=   8.
 NSaved= 8 IEnMin= 8 EnMin= -1105.49366255222     IErMin= 8 ErrMin= 1.02D-07
 ErrMax= 1.02D-07  0.00D+00 EMaxC= 1.00D-01 BMatC= 3.88D-11 BMatP= 1.87D-10
 IDIUse=1 WtCom= 1.00D+00 WtEn= 0.00D+00
 Coeff-Com:  0.401D-02-0.111D-01-0.125D-01 0.620D-01-0.755D-01-0.125D+00
 Coeff-Com:  0.194D+00 0.964D+00
 Coeff:      0.401D-02-0.111D-01-0.125D-01 0.620D-01-0.755D-01-0.125D+00
 Coeff:      0.194D+00 0.964D+00
 Gap=     0.359 Goal=   None    Shift=    0.000
 RMSDP=1.93D-07 MaxDP=1.81D-05 DE=-5.69D-10 OVMax= 7.58D-06

 Cycle   9  Pass 1  IDiag  1:
 RMSU=  8.24D-08    CP:  1.00D+00  1.43D+00  2.32D+00  2.27D+00  1.88D+00
                    CP:  1.41D+00  1.35D+00  1.21D+00
 E= -1105.49366255228     Delta-E=       -0.000000000065 Rises=F Damp=F
 DIIS: error= 5.55D-08 at cycle   9 NSaved=   9.
 NSaved= 9 IEnMin= 9 EnMin= -1105.49366255228     IErMin= 9 ErrMin= 5.55D-08
 ErrMax= 5.55D-08  0.00D+00 EMaxC= 1.00D-01 BMatC= 6.71D-12 BMatP= 3.88D-11
 IDIUse=1 WtCom= 1.00D+00 WtEn= 0.00D+00
 Coeff-Com:  0.882D-03-0.130D-02-0.395D-02 0.219D-02 0.231D-01-0.220D-01
 Coeff-Com: -0.194D+00 0.910D-01 0.110D+01
 Coeff:      0.882D-03-0.130D-02-0.395D-02 0.219D-02 0.231D-01-0.220D-01
 Coeff:     -0.194D+00 0.910D-01 0.110D+01
 Gap=     0.359 Goal=   None    Shift=    0.000
 RMSDP=6.15D-08 MaxDP=5.80D-06 DE=-6.50D-11 OVMax= 1.95D-06

 Cycle  10  Pass 1  IDiag  1:
 RMSU=  2.35D-08    CP:  1.00D+00  1.43D+00  2.32D+00  2.27D+00  1.88D+00
                    CP:  1.42D+00  1.37D+00  1.40D+00  1.39D+00
 E= -1105.49366255238     Delta-E=       -0.000000000099 Rises=F Damp=F
 DIIS: error= 2.16D-08 at cycle  10 NSaved=  10.
 NSaved=10 IEnMin=10 EnMin= -1105.49366255238     IErMin=10 ErrMin= 2.16D-08
 ErrMax= 2.16D-08  0.00D+00 EMaxC= 1.00D-01 BMatC= 7.94D-13 BMatP= 6.71D-12
 IDIUse=1 WtCom= 1.00D+00 WtEn= 0.00D+00
 Coeff-Com: -0.646D-03 0.206D-02 0.142D-02-0.946D-02 0.136D-01 0.210D-01
 Coeff-Com: -0.459D-01-0.132D+00 0.431D-01 0.111D+01
 Coeff:     -0.646D-03 0.206D-02 0.142D-02-0.946D-02 0.136D-01 0.210D-01
 Coeff:     -0.459D-01-0.132D+00 0.431D-01 0.111D+01
 Gap=     0.359 Goal=   None    Shift=    0.000
 RMSDP=2.59D-08 MaxDP=1.98D-06 DE=-9.91D-11 OVMax= 1.05D-06

 Cycle  11  Pass 1  IDiag  1:
 RMSU=  1.04D-08    CP:  1.00D+00  1.43D+00  2.32D+00  2.28D+00  1.88D+00
                    CP:  1.42D+00  1.37D+00  1.44D+00  1.53D+00  1.44D+00
 E= -1105.49366255240     Delta-E=       -0.000000000022 Rises=F Damp=F
 DIIS: error= 8.48D-09 at cycle  11 NSaved=  11.
 NSaved=11 IEnMin=11 EnMin= -1105.49366255240     IErMin=11 ErrMin= 8.48D-09
 ErrMax= 8.48D-09  0.00D+00 EMaxC= 1.00D-01 BMatC= 1.14D-13 BMatP= 7.94D-13
 IDIUse=1 WtCom= 1.00D+00 WtEn= 0.00D+00
 Coeff-Com: -0.186D-03 0.375D-03 0.615D-03-0.125D-02-0.263D-02 0.483D-02
 Coeff-Com:  0.234D-01-0.192D-01-0.171D+00 0.109D+00 0.106D+01
 Coeff:     -0.186D-03 0.375D-03 0.615D-03-0.125D-02-0.263D-02 0.483D-02
 Coeff:      0.234D-01-0.192D-01-0.171D+00 0.109D+00 0.106D+01
 Gap=     0.359 Goal=   None    Shift=    0.000
 RMSDP=1.04D-08 MaxDP=1.16D-06 DE=-2.18D-11 OVMax= 4.48D-07

 Cycle  12  Pass 1  IDiag  1:
 RMSU=  3.98D-09    CP:  1.00D+00  1.43D+00  2.32D+00  2.28D+00  1.88D+00
                    CP:  1.43D+00  1.37D+00  1.45D+00  1.57D+00  1.61D+00
                    CP:  1.27D+00
 E= -1105.49366255229     Delta-E=        0.000000000115 Rises=F Damp=F
 DIIS: error= 4.19D-09 at cycle  12 NSaved=  12.
 NSaved=12 IEnMin=11 EnMin= -1105.49366255240     IErMin=12 ErrMin= 4.19D-09
 ErrMax= 4.19D-09  0.00D+00 EMaxC= 1.00D-01 BMatC= 1.29D-14 BMatP= 1.14D-13
 IDIUse=1 WtCom= 1.00D+00 WtEn= 0.00D+00
 Coeff-Com:  0.126D-03-0.363D-03-0.298D-03 0.160D-02-0.130D-02-0.359D-02
 Coeff-Com:  0.198D-02 0.227D-01 0.225D-01-0.160D+00-0.242D+00 0.136D+01
 Coeff:      0.126D-03-0.363D-03-0.298D-03 0.160D-02-0.130D-02-0.359D-02
 Coeff:      0.198D-02 0.227D-01 0.225D-01-0.160D+00-0.242D+00 0.136D+01
 Gap=     0.359 Goal=   None    Shift=    0.000
 RMSDP=3.33D-09 MaxDP=2.73D-07 DE= 1.15D-10 OVMax= 1.98D-07

 Error on total polarization charges =  0.01963
 SCF Done:  E(RHF) =  -1105.49366255     A.U. after   12 cycles
            NFock= 12  Conv=0.33D-08     -V/T= 2.0004
 KE= 1.105060812382D+03 PE=-7.008617465840D+03 EE= 2.583963748771D+03
 Leave Link  502 at Thu Nov 11 13:58:23 2021, MaxMem=  7864320000 cpu:           14726.1 elap:             464.8
 (Enter /apps/gaussian/g16-c01-avx/g16/l508.exe)
 QCSCF skips out because SCF is already converged.
 Leave Link  508 at Thu Nov 11 13:58:23 2021, MaxMem=  7864320000 cpu:               0.1 elap:               0.0
 (Enter /apps/gaussian/g16-c01-avx/g16/l801.exe)
 ExpMin= 2.97D-02 ExpMax= 1.17D+04 ExpMxC= 4.01D+02 IAcc=3 IRadAn=         7 AccDes= 0.00D+00
 HarFok:  IExCor=  205 AccDes= 0.00D+00 IRadAn=         7 IDoV=-2 UseB2=F ITyADJ=14
 ICtDFT= 12500011 ScaDFX=  1.000000  1.000000  1.000000  1.000000
 GSVD:  LWork=        -884 too small for GESVD, short by        3770 words or        3770 for optimal perf.
 Largest valence mixing into a core orbital is  1.14D-04
 Largest core mixing into a valence orbital is  4.16D-05
 Range of M.O.s used for correlation:    27   866
 NBasis=   868 NAE=    96 NBE=    96 NFC=    26 NFV=     0
 NROrb=    840 NOA=    70 NOB=    70 NVA=   770 NVB=   770

 **** Warning!!: The largest alpha MO coefficient is  0.21697667D+03

 Leave Link  801 at Thu Nov 11 13:58:23 2021, MaxMem=  7864320000 cpu:               8.7 elap:               0.3
 (Enter /apps/gaussian/g16-c01-avx/g16/l906.exe)
 FulOut=F Deriv=F AODrv=F NAtomX=    56
   MMem=           4  MDisk=          70 MDiskD=          70
  W3Min=    49588000 MinDsk=    48747860 NBas6D=         920
 NBas2D=      424854    NTT=      423660    LW2=     2000000
    MDV=  7859856040 MDiskM=      118627 NBas2p=      319254
 Disk-based method using OVN memory for 70 occupieds at a time.
 Estimated scratch disk usage= 59483017104 words.
 IMap=   1   2   3   4   5   6   7   8   9  10  11  12  13  14  15  16  17  18  19  20
 IMap=  21  22  23  24  25  26  27  28  29  30  31  32  33  34  35  36  37  38  39  40
 IMap=  41  42  43  44  45  46  47  48  49  50  51  52  53  54  55  56  57  58  59  60
 IMap=  61  62  63  64  65  66  67  68  69  70
 Actual    scratch disk usage= 51625986632 words.
 JobTyp=1 Pass  1:  I=   1 to  70 NPSUse= 32 ParTrn=T ParDer=T DoDerP=F.
 Spin components of T(2) and E(2):
     alpha-alpha T2 =       0.1809902614D+00 E2=     -0.4987237864D+00
     alpha-beta  T2 =       0.9734699981D+00 E2=     -0.2854266526D+01
     beta-beta   T2 =       0.1809902614D+00 E2=     -0.4987237864D+00
 The integrals were generated   1 times.
 ANorm=    0.1528218087D+01
 E2 =    -0.3851714098D+01 EUMP2 =    -0.11093453766508D+04
 Leave Link  906 at Thu Nov 11 15:01:41 2021, MaxMem=  7864320000 cpu:          118443.6 elap:            3797.6
 (Enter /apps/gaussian/g16-c01-avx/g16/l601.exe)
 Copying SCF densities to generalized density rwf, IOpCl= 0 IROHF=0.

 **********************************************************************

            Population analysis using the SCF Density.

 **********************************************************************

 Orbital symmetries:
       Occupied  (A) (A) (A) (A) (A) (A) (A) (A) (A) (A) (A) (A)
                 (A) (A) (A) (A) (A) (A) (A) (A) (A) (A) (A) (A)
                 (A) (A) (A) (A) (A) (A) (A) (A) (A) (A) (A) (A)
                 (A) (A) (A) (A) (A) (A) (A) (A) (A) (A) (A) (A)
                 (A) (A) (A) (A) (A) (A) (A) (A) (A) (A) (A) (A)
                 (A) (A) (A) (A) (A) (A) (A) (A) (A) (A) (A) (A)
                 (A) (A) (A) (A) (A) (A) (A) (A) (A) (A) (A) (A)
                 (A) (A) (A) (A) (A) (A) (A) (A) (A) (A) (A) (A)
       Virtual   (A) (A) (A) (A) (A) (A) (A) (A) (A) (A) (A) (A)
                 (A) (A) (A) (A) (A) (A) (A) (A) (A) (A) (A) (A)
                 (A) (A) (A) (A) (A) (A) (A) (A) (A) (A) (A) (A)
                 (A) (A) (A) (A) (A) (A) (A) (A) (A) (A) (A) (A)
                 (A) (A) (A) (A) (A) (A) (A) (A) (A) (A) (A) (A)
                 (A) (A) (A) (A) (A) (A) (A) (A) (A) (A) (A) (A)
                 (A) (A) (A) (A) (A) (A) (A) (A) (A) (A) (A) (A)
                 (A) (A) (A) (A) (A) (A) (A) (A) (A) (A) (A) (A)
                 (A) (A) (A) (A) (A) (A) (A) (A) (A) (A) (A) (A)
                 (A) (A) (A) (A) (A) (A) (A) (A) (A) (A) (A) (A)
                 (A) (A) (A) (A) (A) (A) (A) (A) (A) (A) (A) (A)
                 (A) (A) (A) (A) (A) (A) (A) (A) (A) (A) (A) (A)
                 (A) (A) (A) (A) (A) (A) (A) (A) (A) (A) (A) (A)
                 (A) (A) (A) (A) (A) (A) (A) (A) (A) (A) (A) (A)
                 (A) (A) (A) (A) (A) (A) (A) (A) (A) (A) (A) (A)
                 (A) (A) (A) (A) (A) (A) (A) (A) (A) (A) (A) (A)
                 (A) (A) (A) (A) (A) (A) (A) (A) (A) (A) (A) (A)
                 (A) (A) (A) (A) (A) (A) (A) (A) (A) (A) (A) (A)
                 (A) (A) (A) (A) (A) (A) (A) (A) (A) (A) (A) (A)
                 (A) (A) (A) (A) (A) (A) (A) (A) (A) (A) (A) (A)
                 (A) (A) (A) (A) (A) (A) (A) (A) (A) (A) (A) (A)
                 (A) (A) (A) (A) (A) (A) (A) (A) (A) (A) (A) (A)
                 (A) (A) (A) (A) (A) (A) (A) (A) (A) (A) (A) (A)
                 (A) (A) (A) (A) (A) (A) (A) (A) (A) (A) (A) (A)
                 (A) (A) (A) (A) (A) (A) (A) (A) (A) (A) (A) (A)
                 (A) (A) (A) (A) (A) (A) (A) (A) (A) (A) (A) (A)
                 (A) (A) (A) (A) (A) (A) (A) (A) (A) (A) (A) (A)
                 (A) (A) (A) (A) (A) (A) (A) (A) (A) (A) (A) (A)
                 (A) (A) (A) (A) (A) (A) (A) (A) (A) (A) (A) (A)
                 (A) (A) (A) (A) (A) (A) (A) (A) (A) (A) (A) (A)
                 (A) (A) (A) (A) (A) (A) (A) (A) (A) (A) (A) (A)
                 (A) (A) (A) (A) (A) (A) (A) (A) (A) (A) (A) (A)
                 (A) (A) (A) (A) (A) (A) (A) (A) (A) (A) (A) (A)
                 (A) (A) (A) (A) (A) (A) (A) (A) (A) (A) (A) (A)
                 (A) (A) (A) (A) (A) (A) (A) (A) (A) (A) (A) (A)
                 (A) (A) (A) (A) (A) (A) (A) (A) (A) (A) (A) (A)
                 (A) (A) (A) (A) (A) (A) (A) (A) (A) (A) (A) (A)
                 (A) (A) (A) (A) (A) (A) (A) (A) (A) (A) (A) (A)
                 (A) (A) (A) (A) (A) (A) (A) (A) (A) (A) (A) (A)
                 (A) (A) (A) (A) (A) (A) (A) (A) (A) (A) (A) (A)
                 (A) (A) (A) (A) (A) (A) (A) (A) (A) (A) (A) (A)
                 (A) (A) (A) (A) (A) (A) (A) (A) (A) (A) (A) (A)
                 (A) (A) (A) (A) (A) (A) (A) (A) (A) (A) (A) (A)
                 (A) (A) (A) (A) (A) (A) (A) (A) (A) (A) (A) (A)
                 (A) (A) (A) (A) (A) (A) (A) (A) (A) (A) (A) (A)
                 (A) (A) (A) (A) (A) (A) (A) (A) (A) (A) (A) (A)
                 (A) (A) (A) (A) (A) (A) (A) (A) (A) (A) (A) (A)
                 (A) (A) (A) (A) (A) (A) (A) (A) (A) (A) (A) (A)
                 (A) (A) (A) (A) (A) (A) (A) (A) (A) (A) (A) (A)
                 (A) (A) (A) (A) (A) (A) (A) (A) (A) (A) (A) (A)
                 (A) (A) (A) (A) (A) (A) (A) (A) (A) (A) (A) (A)
                 (A) (A) (A) (A) (A) (A) (A) (A) (A) (A) (A) (A)
                 (A) (A) (A) (A) (A) (A) (A) (A) (A) (A) (A) (A)
                 (A) (A) (A) (A) (A) (A) (A) (A) (A) (A) (A) (A)
                 (A) (A) (A) (A) (A) (A) (A) (A) (A) (A) (A) (A)
                 (A) (A) (A) (A) (A) (A) (A) (A) (A) (A) (A) (A)
                 (A) (A) (A) (A) (A) (A) (A) (A) (A) (A) (A) (A)
                 (A) (A) (A) (A) (A) (A) (A) (A) (A) (A) (A) (A)
                 (A) (A) (A) (A) (A) (A) (A) (A) (A) (A) (A) (A)
                 (A) (A) (A) (A) (A) (A) (A) (A) (A) (A) (A) (A)
                 (A) (A) (A) (A) (A) (A) (A) (A) (A) (A) (A) (A)
                 (A) (A) (A) (A) (A) (A) (A) (A) (A) (A) (A) (A)
                 (A) (A) (A) (A) (A) (A) (A) (A) (A) (A) (A) (A)
                 (A) (A) (A) (A) (A) (A) (A) (A) (A) (A) (A) (A)
                 (A) (A)
 The electronic state is 1-A.
 Alpha  occ. eigenvalues --  -20.57491 -15.56262 -15.56168 -15.54745 -15.54685
 Alpha  occ. eigenvalues --  -11.34936 -11.28997 -11.28880 -11.26844 -11.26632
 Alpha  occ. eigenvalues --  -11.26223 -11.25843 -11.25796 -11.25777 -11.25432
 Alpha  occ. eigenvalues --  -11.25350 -11.25315 -11.25225 -11.22008 -11.21922
 Alpha  occ. eigenvalues --  -11.21664 -11.21530 -11.21421 -11.21341 -11.21273
 Alpha  occ. eigenvalues --  -11.21197  -1.41234  -1.25828  -1.25570  -1.19628
 Alpha  occ. eigenvalues --   -1.19131  -1.17881  -1.09663  -1.09177  -1.06889
 Alpha  occ. eigenvalues --   -1.05994  -1.00477  -0.99865  -0.98038  -0.97589
 Alpha  occ. eigenvalues --   -0.90898  -0.89832  -0.87149  -0.83278  -0.82832
 Alpha  occ. eigenvalues --   -0.82589  -0.81234  -0.78830  -0.76970  -0.73630
 Alpha  occ. eigenvalues --   -0.73297  -0.71429  -0.68927  -0.68644  -0.68210
 Alpha  occ. eigenvalues --   -0.66839  -0.65708  -0.64994  -0.64391  -0.63045
 Alpha  occ. eigenvalues --   -0.61473  -0.61245  -0.61126  -0.60915  -0.60561
 Alpha  occ. eigenvalues --   -0.59953  -0.59200  -0.57108  -0.55236  -0.55128
 Alpha  occ. eigenvalues --   -0.54187  -0.54099  -0.53642  -0.53438  -0.52883
 Alpha  occ. eigenvalues --   -0.52007  -0.51934  -0.51726  -0.51070  -0.50155
 Alpha  occ. eigenvalues --   -0.49454  -0.47030  -0.46861  -0.46773  -0.44696
 Alpha  occ. eigenvalues --   -0.44243  -0.43928  -0.43522  -0.42228  -0.41030
 Alpha  occ. eigenvalues --   -0.40197  -0.39956  -0.38391  -0.38279  -0.34955
 Alpha  occ. eigenvalues --   -0.32576
 Alpha virt. eigenvalues --    0.03316   0.03677   0.03968   0.04233   0.04306
 Alpha virt. eigenvalues --    0.04591   0.04690   0.05104   0.05306   0.05561
 Alpha virt. eigenvalues --    0.05723   0.05761   0.06229   0.06354   0.06575
 Alpha virt. eigenvalues --    0.06601   0.07041   0.07135   0.07235   0.07752
 Alpha virt. eigenvalues --    0.08422   0.08570   0.08599   0.09060   0.09276
 Alpha virt. eigenvalues --    0.09872   0.10081   0.10442   0.10729   0.11398
 Alpha virt. eigenvalues --    0.11755   0.12369   0.12784   0.12921   0.13352
 Alpha virt. eigenvalues --    0.13440   0.13708   0.14109   0.14220   0.14350
 Alpha virt. eigenvalues --    0.14572   0.14717   0.14873   0.14966   0.15321
 Alpha virt. eigenvalues --    0.15427   0.15515   0.15550   0.15716   0.15744
 Alpha virt. eigenvalues --    0.15922   0.16524   0.16836   0.16957   0.17128
 Alpha virt. eigenvalues --    0.17398   0.17928   0.18174   0.18203   0.18514
 Alpha virt. eigenvalues --    0.18627   0.18665   0.18814   0.19140   0.19172
 Alpha virt. eigenvalues --    0.19286   0.19399   0.19883   0.19982   0.20128
 Alpha virt. eigenvalues --    0.20765   0.20936   0.20994   0.21073   0.21157
 Alpha virt. eigenvalues --    0.21347   0.21514   0.22012   0.22237   0.22440
 Alpha virt. eigenvalues --    0.22677   0.23008   0.23256   0.23499   0.23789
 Alpha virt. eigenvalues --    0.23999   0.24143   0.24365   0.24507   0.24876
 Alpha virt. eigenvalues --    0.24988   0.25881   0.25986   0.26454   0.26612
 Alpha virt. eigenvalues --    0.26867   0.27149   0.27372   0.27662   0.27831
 Alpha virt. eigenvalues --    0.28205   0.28491   0.28635   0.29444   0.29539
 Alpha virt. eigenvalues --    0.29764   0.30063   0.30509   0.30662   0.31060
 Alpha virt. eigenvalues --    0.31491   0.31638   0.31717   0.31866   0.32674
 Alpha virt. eigenvalues --    0.33065   0.33358   0.33607   0.33865   0.34020
 Alpha virt. eigenvalues --    0.34242   0.34458   0.34810   0.35137   0.35507
 Alpha virt. eigenvalues --    0.35641   0.35850   0.36033   0.36377   0.36402
 Alpha virt. eigenvalues --    0.37157   0.37261   0.37656   0.37673   0.37864
 Alpha virt. eigenvalues --    0.38095   0.38460   0.38653   0.39151   0.39162
 Alpha virt. eigenvalues --    0.39314   0.39467   0.39747   0.39807   0.40178
 Alpha virt. eigenvalues --    0.40318   0.40666   0.40754   0.40839   0.41043
 Alpha virt. eigenvalues --    0.41353   0.41526   0.41688   0.42057   0.42390
 Alpha virt. eigenvalues --    0.42622   0.43010   0.43199   0.43333   0.43445
 Alpha virt. eigenvalues --    0.43711   0.44117   0.44339   0.44462   0.44566
 Alpha virt. eigenvalues --    0.44812   0.45164   0.45215   0.45594   0.45689
 Alpha virt. eigenvalues --    0.46029   0.46437   0.46642   0.47255   0.47380
 Alpha virt. eigenvalues --    0.47676   0.47998   0.48127   0.48630   0.48782
 Alpha virt. eigenvalues --    0.49126   0.49615   0.49741   0.49852   0.50109
 Alpha virt. eigenvalues --    0.50564   0.50813   0.50913   0.51272   0.51410
 Alpha virt. eigenvalues --    0.51796   0.52057   0.52253   0.52569   0.52827
 Alpha virt. eigenvalues --    0.53035   0.53601   0.53720   0.53869   0.54533
 Alpha virt. eigenvalues --    0.54694   0.54871   0.55145   0.55293   0.55423
 Alpha virt. eigenvalues --    0.55985   0.56119   0.56848   0.57144   0.57407
 Alpha virt. eigenvalues --    0.57578   0.57745   0.58032   0.58125   0.58521
 Alpha virt. eigenvalues --    0.58767   0.58854   0.59383   0.59943   0.60346
 Alpha virt. eigenvalues --    0.60545   0.60853   0.61045   0.61851   0.61930
 Alpha virt. eigenvalues --    0.62006   0.62122   0.62537   0.62936   0.63204
 Alpha virt. eigenvalues --    0.63860   0.64054   0.64749   0.64880   0.65073
 Alpha virt. eigenvalues --    0.65410   0.65485   0.65788   0.65968   0.66579
 Alpha virt. eigenvalues --    0.66706   0.66846   0.67094   0.67595   0.67985
 Alpha virt. eigenvalues --    0.68157   0.68413   0.68508   0.68734   0.69019
 Alpha virt. eigenvalues --    0.69347   0.69622   0.69817   0.70581   0.70688
 Alpha virt. eigenvalues --    0.71127   0.71275   0.71530   0.72133   0.72253
 Alpha virt. eigenvalues --    0.72442   0.72651   0.73080   0.73139   0.73239
 Alpha virt. eigenvalues --    0.73571   0.73703   0.73840   0.73956   0.74238
 Alpha virt. eigenvalues --    0.74543   0.74748   0.75191   0.75518   0.75888
 Alpha virt. eigenvalues --    0.75964   0.76354   0.76554   0.76705   0.77075
 Alpha virt. eigenvalues --    0.77353   0.77581   0.77673   0.78231   0.78364
 Alpha virt. eigenvalues --    0.78638   0.78800   0.79136   0.79376   0.79847
 Alpha virt. eigenvalues --    0.80179   0.80545   0.80677   0.80834   0.81422
 Alpha virt. eigenvalues --    0.81595   0.82115   0.82254   0.82928   0.83319
 Alpha virt. eigenvalues --    0.83631   0.83692   0.83828   0.84083   0.84459
 Alpha virt. eigenvalues --    0.84822   0.85405   0.85713   0.85977   0.86561
 Alpha virt. eigenvalues --    0.86638   0.86886   0.87229   0.87583   0.88045
 Alpha virt. eigenvalues --    0.88158   0.88482   0.88723   0.89158   0.89387
 Alpha virt. eigenvalues --    0.89982   0.90100   0.90354   0.90562   0.90846
 Alpha virt. eigenvalues --    0.91019   0.91259   0.91399   0.91858   0.91946
 Alpha virt. eigenvalues --    0.92486   0.92654   0.92984   0.93115   0.93785
 Alpha virt. eigenvalues --    0.94016   0.94910   0.95028   0.95434   0.95794
 Alpha virt. eigenvalues --    0.96033   0.96347   0.96715   0.96775   0.97219
 Alpha virt. eigenvalues --    0.97469   0.97904   0.98050   0.98306   0.98671
 Alpha virt. eigenvalues --    0.98947   0.99077   0.99458   0.99469   0.99851
 Alpha virt. eigenvalues --    1.00089   1.00670   1.00824   1.01074   1.01585
 Alpha virt. eigenvalues --    1.02048   1.02478   1.02580   1.02994   1.03726
 Alpha virt. eigenvalues --    1.04517   1.05174   1.05333   1.05835   1.05966
 Alpha virt. eigenvalues --    1.06138   1.06539   1.06980   1.07028   1.07725
 Alpha virt. eigenvalues --    1.07770   1.07821   1.08265   1.09095   1.09299
 Alpha virt. eigenvalues --    1.09659   1.10183   1.10776   1.10963   1.11438
 Alpha virt. eigenvalues --    1.11676   1.12209   1.12717   1.12995   1.13624
 Alpha virt. eigenvalues --    1.14100   1.15017   1.15271   1.15544   1.16180
 Alpha virt. eigenvalues --    1.16704   1.17327   1.17438   1.18096   1.18399
 Alpha virt. eigenvalues --    1.18795   1.19617   1.20359   1.20564   1.21035
 Alpha virt. eigenvalues --    1.21695   1.21788   1.23049   1.24021   1.24354
 Alpha virt. eigenvalues --    1.24610   1.25827   1.26408   1.26642   1.27132
 Alpha virt. eigenvalues --    1.27276   1.27508   1.28645   1.29547   1.30438
 Alpha virt. eigenvalues --    1.31300   1.31803   1.32996   1.33241   1.33897
 Alpha virt. eigenvalues --    1.34413   1.35415   1.35762   1.37632   1.37865
 Alpha virt. eigenvalues --    1.38374   1.38619   1.38861   1.39735   1.40960
 Alpha virt. eigenvalues --    1.41092   1.41457   1.42184   1.43045   1.43399
 Alpha virt. eigenvalues --    1.43902   1.44290   1.44927   1.46797   1.47756
 Alpha virt. eigenvalues --    1.48768   1.49223   1.49639   1.50207   1.50369
 Alpha virt. eigenvalues --    1.50918   1.51487   1.52344   1.52909   1.54441
 Alpha virt. eigenvalues --    1.55124   1.55232   1.55528   1.56807   1.57494
 Alpha virt. eigenvalues --    1.58442   1.58739   1.59110   1.59519   1.60046
 Alpha virt. eigenvalues --    1.60419   1.61520   1.62482   1.62642   1.62959
 Alpha virt. eigenvalues --    1.63163   1.64009   1.65234   1.66774   1.67245
 Alpha virt. eigenvalues --    1.68162   1.69022   1.69798   1.69888   1.70439
 Alpha virt. eigenvalues --    1.71081   1.71331   1.71462   1.71572   1.72811
 Alpha virt. eigenvalues --    1.73017   1.73639   1.73724   1.74442   1.75256
 Alpha virt. eigenvalues --    1.75564   1.75748   1.76706   1.77062   1.77553
 Alpha virt. eigenvalues --    1.78225   1.78384   1.78485   1.79404   1.80539
 Alpha virt. eigenvalues --    1.80778   1.81762   1.82276   1.83750   1.83938
 Alpha virt. eigenvalues --    1.84822   1.85314   1.85588   1.86194   1.86791
 Alpha virt. eigenvalues --    1.87073   1.87099   1.87590   1.88028   1.88975
 Alpha virt. eigenvalues --    1.89594   1.89862   1.90144   1.90663   1.91009
 Alpha virt. eigenvalues --    1.92264   1.92372   1.92992   1.93079   1.93336
 Alpha virt. eigenvalues --    1.93551   1.94184   1.94968   1.95490   1.96276
 Alpha virt. eigenvalues --    1.96936   1.97769   1.98451   1.98643   1.99576
 Alpha virt. eigenvalues --    2.00192   2.00739   2.01120   2.01970   2.02395
 Alpha virt. eigenvalues --    2.03275   2.03818   2.04554   2.05723   2.06067
 Alpha virt. eigenvalues --    2.06904   2.07307   2.07704   2.08744   2.09028
 Alpha virt. eigenvalues --    2.09785   2.10809   2.11306   2.11521   2.11617
 Alpha virt. eigenvalues --    2.12346   2.13314   2.13980   2.15004   2.15179
 Alpha virt. eigenvalues --    2.16031   2.16210   2.16714   2.17126   2.17934
 Alpha virt. eigenvalues --    2.18139   2.18480   2.19792   2.20291   2.20713
 Alpha virt. eigenvalues --    2.20766   2.21009   2.21771   2.22160   2.22558
 Alpha virt. eigenvalues --    2.22754   2.22991   2.23502   2.23649   2.24161
 Alpha virt. eigenvalues --    2.24592   2.25061   2.25334   2.25450   2.25732
 Alpha virt. eigenvalues --    2.25816   2.26704   2.27293   2.28093   2.28267
 Alpha virt. eigenvalues --    2.28589   2.29261   2.29664   2.29947   2.30550
 Alpha virt. eigenvalues --    2.30937   2.31397   2.31669   2.32283   2.33236
 Alpha virt. eigenvalues --    2.33754   2.34346   2.35098   2.36364   2.36632
 Alpha virt. eigenvalues --    2.37236   2.37915   2.38430   2.38656   2.39599
 Alpha virt. eigenvalues --    2.40346   2.40780   2.41224   2.42017   2.42702
 Alpha virt. eigenvalues --    2.42927   2.43377   2.43540   2.44320   2.44881
 Alpha virt. eigenvalues --    2.45097   2.45328   2.45599   2.46024   2.46557
 Alpha virt. eigenvalues --    2.47413   2.47648   2.48407   2.49029   2.49422
 Alpha virt. eigenvalues --    2.49917   2.50405   2.51039   2.51338   2.51898
 Alpha virt. eigenvalues --    2.52472   2.53553   2.53725   2.54069   2.54716
 Alpha virt. eigenvalues --    2.55773   2.55816   2.56790   2.57129   2.57616
 Alpha virt. eigenvalues --    2.58656   2.58813   2.59767   2.60309   2.61064
 Alpha virt. eigenvalues --    2.61524   2.62069   2.62411   2.63529   2.63828
 Alpha virt. eigenvalues --    2.65052   2.65386   2.66023   2.66973   2.67063
 Alpha virt. eigenvalues --    2.67767   2.69874   2.70205   2.70715   2.71053
 Alpha virt. eigenvalues --    2.72124   2.73286   2.74266   2.75625   2.75871
 Alpha virt. eigenvalues --    2.76094   2.77753   2.78831   2.79797   2.81199
 Alpha virt. eigenvalues --    2.81540   2.81727   2.82662   2.82753   2.84344
 Alpha virt. eigenvalues --    2.84611   2.86688   2.86758   2.88159   2.88415
 Alpha virt. eigenvalues --    2.89349   2.90084   2.90275   2.90366   2.90531
 Alpha virt. eigenvalues --    2.91063   2.92507   2.92991   2.94347   2.96419
 Alpha virt. eigenvalues --    2.97007   2.97385   2.97653   2.99678   3.00421
 Alpha virt. eigenvalues --    3.01656   3.02532   3.02754   3.03289   3.03531
 Alpha virt. eigenvalues --    3.04537   3.05694   3.06095   3.08048   3.08106
 Alpha virt. eigenvalues --    3.09259   3.09424   3.10849   3.11682   3.12779
 Alpha virt. eigenvalues --    3.14297   3.16941   3.17942   3.19494   3.21276
 Alpha virt. eigenvalues --    3.21404   3.23559   3.24046   3.24397   3.25726
 Alpha virt. eigenvalues --    3.26061   3.26345   3.26867   3.28666   3.29589
 Alpha virt. eigenvalues --    3.31472   3.32759   3.34461   3.36025   3.39259
 Alpha virt. eigenvalues --    3.41433   3.43294   3.43795   3.44799   3.46659
 Alpha virt. eigenvalues --    3.49844   3.55054   3.59180   3.60483   3.63112
 Alpha virt. eigenvalues --    3.63966   3.65271   3.70751   3.72566   3.74307
 Alpha virt. eigenvalues --    3.77853   3.78454   3.79707   3.82812   3.83973
 Alpha virt. eigenvalues --    3.88849   3.93307   3.96878   4.00730   4.04045
 Alpha virt. eigenvalues --    4.09533   4.10962   4.14495   4.23302   4.37259
 Alpha virt. eigenvalues --    4.45767   4.45867   4.65668   4.66688   4.86640
          Condensed to atoms (all electrons):
 Mulliken charges:
               1
     1  C    0.439122
     2  C    1.181918
     3  C   -0.194088
     4  C    0.421574
     5  H   -0.719304
     6  C    0.626371
     7  C    0.642391
     8  H   -0.668744
     9  C    0.354512
    10  C    0.070314
    11  H   -0.721782
    12  C    0.298366
    13  O   -0.837417
    14  C    0.317630
    15  C    0.306419
    16  N   -0.188636
    17  H   -0.286928
    18  C    0.618601
    19  N   -0.440039
    20  H   -0.301872
    21  C    0.693372
    22  C    0.616644
    23  C    0.346813
    24  C    0.305143
    25  C    0.320838
    26  N   -0.436037
    27  H   -0.301796
    28  C    0.684345
    29  N   -0.167692
    30  H   -0.278456
    31  C    0.625645
    32  C    0.351679
    33  C    0.604881
    34  H   -0.334922
    35  H    0.008159
    36  H    0.057613
    37  H    0.058029
    38  H    0.008765
    39  H   -0.164644
    40  H   -0.174290
    41  H   -0.099667
    42  H   -0.211975
    43  H   -0.154467
    44  H   -0.229191
    45  H   -0.058625
    46  H   -0.211036
    47  H   -0.746876
    48  H   -0.750691
    49  H   -0.092317
    50  H   -0.210239
    51  H   -0.151608
    52  H   -0.227869
    53  H   -0.208702
    54  H   -0.051383
    55  H   -0.161649
    56  H   -0.176204
 Sum of Mulliken charges =   0.00000
 Mulliken charges with hydrogens summed into heavy atoms:
               1
     1  C    0.439122
     2  C    0.846996
     3  C   -0.913392
     4  C    0.421574
     6  C   -0.042373
     7  C    0.642391
     9  C   -0.367270
    10  C   -0.680376
    12  C   -0.448509
    13  O   -0.837417
    14  C    0.030702
    15  C    0.004546
    16  N   -0.188636
    18  C    0.234943
    19  N   -0.373246
    21  C    0.423711
    22  C    0.305003
    23  C    0.007879
    24  C    0.003347
    25  C    0.042381
    26  N   -0.370265
    28  C    0.424260
    29  N   -0.167692
    31  C    0.246169
    32  C    0.013826
    33  C    0.302325
 Electronic spatial extent (au):  <R**2>=          17863.0582
 Charge=              0.0000 electrons
 Dipole moment (field-independent basis, Debye):
    X=              2.6824    Y=             -3.2667    Z=             -0.1089  Tot=              4.2283
 Quadrupole moment (field-independent basis, Debye-Ang):
   XX=           -136.7434   YY=           -179.2138   ZZ=           -158.0553
   XY=             10.5471   XZ=              2.2564   YZ=             -0.5134
 Traceless Quadrupole moment (field-independent basis, Debye-Ang):
   XX=             21.2608   YY=            -21.2097   ZZ=             -0.0511
   XY=             10.5471   XZ=              2.2564   YZ=             -0.5134
 Octapole moment (field-independent basis, Debye-Ang**2):
  XXX=              6.1091  YYY=            -41.2318  ZZZ=              0.2877  XYY=             43.2223
  XXY=             40.6395  XXZ=              0.5146  XZZ=             -0.4892  YZZ=             -2.3707
  YYZ=             -1.4018  XYZ=             18.1459
 Hexadecapole moment (field-independent basis, Debye-Ang**3):
 XXXX=         -18989.6351 YYYY=          -2652.1724 ZZZZ=           -896.9387 XXXY=             14.1484
 XXXZ=            289.9469 YYYX=            155.6678 YYYZ=             -8.5131 ZZZX=            137.0837
 ZZZY=              0.5860 XXYY=          -4401.7840 XXZZ=          -3506.5767 YYZZ=           -533.6083
 XXYZ=             -0.2114 YYXZ=            -78.2597 ZZXY=             -3.4902
 N-N= 2.214099242135D+03 E-N=-7.008617465757D+03  KE= 1.105060812382D+03
 Leave Link  601 at Thu Nov 11 15:01:42 2021, MaxMem=  7864320000 cpu:              23.0 elap:               0.9
 (Enter /apps/gaussian/g16-c01-avx/g16/l9999.exe)
 Unable to Open any file for archive entry.
 1\1\GINC-CX3-7-5\SP\RMP2-FC\Aug-CC-pVDZ\C21H30N4O1\ATARZIA\11-Nov-2021
 \0\\#P MP2/aug-cc-pVDZ SP SCF=(YQC,MaxCycle=900) int=(Grid=Superfinegr
 id) SCRF=(PCM,Solvent=Dichloromethane)\\_1_alde1_2_ami3_2_opt_dcm_mp2\
 \0,1\C,0,-1.3091,0.9866,-2.0738\C,0,-1.628,-0.2097,-1.28\C,0,-2.3264,1
 .6736,-2.7327\C,0,-2.0391,2.8083,-3.4862\H,0,-3.3453,1.327,-2.6607\C,0
 ,-0.7197,3.2476,-3.5733\C,0,0.3076,2.5698,-2.9204\H,0,-0.4888,4.1286,-
 4.1571\C,0,0.0043,1.4364,-2.1696\C,0,1.6817,3.0441,-3.0238\H,0,0.8091,
 0.9212,-1.6682\C,0,-3.1013,3.5302,-4.1758\O,0,-2.7274,-0.6765,-1.1328\
 C,0,-5.3308,3.8637,-4.7952\C,0,-6.2894,4.4401,-3.73\N,0,-4.2981,3.1439
 ,-4.1214\H,0,-4.9295,4.7144,-5.3771\C,0,-6.0614,2.9025,-5.742\N,0,-7.1
 535,5.4272,-4.3546\H,0,-5.6771,4.9861,-2.9993\C,0,-7.0172,3.3015,-2.99
 86\C,0,-6.7607,1.7899,-4.9694\C,0,-7.7476,2.3761,-3.9666\C,0,4.7969,1.
 8664,-3.3115\C,0,3.969,2.9315,-2.5594\N,0,6.0585,2.4537,-3.7276\H,0,4.
 2532,1.6199,-4.2337\C,0,4.9169,0.5897,-2.4642\N,0,2.6278,2.4532,-2.438
 9\H,0,4.0213,3.867,-3.1465\C,0,4.5298,3.1851,-1.1541\C,0,5.494,0.8746,
 -1.0812\C,0,4.6227,1.8915,-0.353\H,0,-0.7409,-0.6734,-0.8032\H,0,6.575
 1,1.7942,-4.2993\H,0,6.6306,2.6721,-2.9194\H,0,-7.7767,4.9803,-5.0181\
 H,0,-7.7287,5.8765,-3.6502\H,0,-8.5311,2.9252,-4.4973\H,0,-8.233,1.573
 8,-3.4073\H,0,-6.0098,1.2071,-4.4351\H,0,-7.2791,1.1281,-5.6667\H,0,-6
 .7856,3.4707,-6.3292\H,0,-5.3325,2.4749,-6.4341\H,0,-6.2733,2.7255,-2.
 4472\H,0,-7.7215,3.7296,-2.2794\H,0,-2.7905,4.4241,-4.7405\H,0,1.8364,
 3.944,-3.6401\H,0,3.6193,1.4825,-0.2295\H,0,5.0338,2.1007,0.637\H,0,5.
 5152,3.6454,-1.2468\H,0,3.8765,3.8948,-0.6416\H,0,5.5422,-0.135,-2.993
 6\H,0,3.9188,0.1639,-2.3548\H,0,6.5141,1.2597,-1.1694\H,0,5.5447,-0.05
 37,-0.5083\\Version=ES64L-G16RevC.01\State=1-A\HF=-1105.4936626\MP2=-1
 109.3453767\RMSD=3.334e-09\PG=C01 [X(C21H30N4O1)]\\@
 The archive entry for this job was punched.


 GETTING A SIMPLE ANSWER FROM A PROFESSOR IS LIKE
 GETTING A THIMBLE OF WATER FROM A FIRE HYDRANT.
     -- PROF. LEN SHAPIRO, NDSU
 Job cpu time:       1 days 19 hours 21 minutes 25.9 seconds.
 Elapsed time:       0 days  1 hours 23 minutes  7.4 seconds.
 File lengths (MBytes):  RWF= 394472 Int=      0 D2E=      0 Chk=     64 Scr=     16
 Normal termination of Gaussian 16 at Thu Nov 11 15:01:43 2021.
