 Entering Gaussian System, Link 0=g16
 Initial command:
 /apps/gaussian/g16-c01-avx/g16/l1.exe "/rds/general/ephemeral/user/atarzia/ephemeral/xtb_spe_DFT/Gau-29838.inp" -scrdir="/rds/general/ephemeral/user/atarzia/ephemeral/xtb_spe_DFT/"
 Entering Link 1 = /apps/gaussian/g16-c01-avx/g16/l1.exe PID=     29839.
  
 Copyright (c) 1988-2019, Gaussian, Inc.  All Rights Reserved.
  
 This is part of the Gaussian(R) 16 program.  It is based on
 the Gaussian(R) 09 system (copyright 2009, Gaussian, Inc.),
 the Gaussian(R) 03 system (copyright 2003, Gaussian, Inc.),
 the Gaussian(R) 98 system (copyright 1998, Gaussian, Inc.),
 the Gaussian(R) 94 system (copyright 1995, Gaussian, Inc.),
 the Gaussian 92(TM) system (copyright 1992, Gaussian, Inc.),
 the Gaussian 90(TM) system (copyright 1990, Gaussian, Inc.),
 the Gaussian 88(TM) system (copyright 1988, Gaussian, Inc.),
 the Gaussian 86(TM) system (copyright 1986, Carnegie Mellon
 University), and the Gaussian 82(TM) system (copyright 1983,
 Carnegie Mellon University). Gaussian is a federally registered
 trademark of Gaussian, Inc.
  
 This software contains proprietary and confidential information,
 including trade secrets, belonging to Gaussian, Inc.
  
 This software is provided under written license and may be
 used, copied, transmitted, or stored only in accord with that
 written license.
  
 The following legend is applicable only to US Government
 contracts under FAR:
  
                    RESTRICTED RIGHTS LEGEND
  
 Use, reproduction and disclosure by the US Government is
 subject to restrictions as set forth in subparagraphs (a)
 and (c) of the Commercial Computer Software - Restricted
 Rights clause in FAR 52.227-19.
  
 Gaussian, Inc.
 340 Quinnipiac St., Bldg. 40, Wallingford CT 06492
  
  
 ---------------------------------------------------------------
 Warning -- This program may not be used in any manner that
 competes with the business of Gaussian, Inc. or will provide
 assistance to any competitor of Gaussian, Inc.  The licensee
 of this program is prohibited from giving any competitor of
 Gaussian, Inc. access to this program.  By using this program,
 the user acknowledges that Gaussian, Inc. is engaged in the
 business of creating and licensing software in the field of
 computational chemistry and represents and warrants to the
 licensee that it is not a competitor of Gaussian, Inc. and that
 it will not use this program in any manner prohibited above.
 ---------------------------------------------------------------
  

 Cite this work as:
 Gaussian 16, Revision C.01,
 M. J. Frisch, G. W. Trucks, H. B. Schlegel, G. E. Scuseria, 
 M. A. Robb, J. R. Cheeseman, G. Scalmani, V. Barone, 
 G. A. Petersson, H. Nakatsuji, X. Li, M. Caricato, A. V. Marenich, 
 J. Bloino, B. G. Janesko, R. Gomperts, B. Mennucci, H. P. Hratchian, 
 J. V. Ortiz, A. F. Izmaylov, J. L. Sonnenberg, D. Williams-Young, 
 F. Ding, F. Lipparini, F. Egidi, J. Goings, B. Peng, A. Petrone, 
 T. Henderson, D. Ranasinghe, V. G. Zakrzewski, J. Gao, N. Rega, 
 G. Zheng, W. Liang, M. Hada, M. Ehara, K. Toyota, R. Fukuda, 
 J. Hasegawa, M. Ishida, T. Nakajima, Y. Honda, O. Kitao, H. Nakai, 
 T. Vreven, K. Throssell, J. A. Montgomery, Jr., J. E. Peralta, 
 F. Ogliaro, M. J. Bearpark, J. J. Heyd, E. N. Brothers, K. N. Kudin, 
 V. N. Staroverov, T. A. Keith, R. Kobayashi, J. Normand, 
 K. Raghavachari, A. P. Rendell, J. C. Burant, S. S. Iyengar, 
 J. Tomasi, M. Cossi, J. M. Millam, M. Klene, C. Adamo, R. Cammi, 
 J. W. Ochterski, R. L. Martin, K. Morokuma, O. Farkas, 
 J. B. Foresman, and D. J. Fox, Gaussian, Inc., Wallingford CT, 2019.
 
 ******************************************
 Gaussian 16:  ES64L-G16RevC.01  3-Jul-2019
                 2-Nov-2021 
 ******************************************
 %chk=_1_alde1_2_ami4_1_opt_dcm_mp2.chk
 %mem=60000mb
 %nprocshared=32
 Will use up to   32 processors via shared memory.
 ----------------------------------------------------------------------
 #P MP2/aug-cc-pVDZ SP SCF=(YQC,MaxCycle=900) int=(Grid=Superfinegrid) 
 SCRF=(PCM,Solvent=Dichloromethane)
 ----------------------------------------------------------------------
 1/38=1,172=1/1;
 2/12=2,17=6,18=5,40=1/2;
 3/5=16,7=10,11=9,25=1,30=1,70=2201,72=9,75=-7/1,2,3;
 4//1;
 5/5=2,7=900,8=4,13=1,38=1,53=9/8,2,8;
 8/10=1/1;
 9/16=-3/6;
 6/7=2,8=2,9=2,10=2/1;
 99/5=1,9=1/99;
 Leave Link    1 at Tue Nov  2 18:27:22 2021, MaxMem=  7864320000 cpu:               7.3 elap:               0.2
 (Enter /apps/gaussian/g16-c01-avx/g16/l101.exe)
 -----------------------------
 _1_alde1_2_ami4_1_opt_dcm_mp2
 -----------------------------
 Symbolic Z-matrix:
 Charge =  0 Multiplicity = 1
 C                    -1.2081    1.2297   -0.1228 
 C                    -1.0556    0.6211    1.2033 
 C                    -2.4766    1.4984   -0.6334 
 C                    -2.6146    2.0807   -1.883 
 H                    -3.356     1.2484   -0.0576 
 C                    -1.4808    2.3881   -2.6243 
 C                    -0.2111    2.1285   -2.1253 
 H                    -1.6062    2.843    -3.5951 
 C                    -0.0782    1.5507   -0.8741 
 C                     1.0191    2.5068   -2.9094 
 H                     0.9004    1.3279   -0.4768 
 C                    -3.9923    2.3251   -2.4453 
 O                    -0.0081    0.3869    1.7505 
 C                    -5.5878    1.5264   -3.8781 
 C                    -4.9697    2.7665   -4.557 
 N                    -4.5833    1.085    -2.9242 
 H                    -5.8459    0.7335   -4.5769 
 N                    -3.9713    3.2368   -3.5993 
 H                    -5.7208    3.5229   -4.7941 
 C                     3.3462    2.2493   -2.5312 
 C                     2.9623    3.7196   -2.7884 
 N                     2.0961    1.5176   -2.7197 
 H                     3.6755    2.1176   -1.4934 
 N                     1.5473    3.7867   -2.4604 
 H                     3.0732    3.9609   -3.8504 
 H                     2.1383    0.8664   -3.4915 
 H                     0.7566    2.6157   -3.9762 
 H                     1.4349    3.8507   -1.4519 
 H                    -3.8667    0.5472   -3.4049 
 H                    -4.116     4.1968   -3.3175 
 H                    -4.6488    2.7062   -1.6406 
 H                    -2.0206    0.383     1.6956 
 H                    -4.4578    2.4838   -5.4847 
 H                     4.1404    1.9011   -3.1931 
 H                    -6.4823    1.8097   -3.3146 
 H                     3.5392    4.4302   -2.2002 
 
 ITRead=  0  0  0  0  0  0  0  0  0  0  0  0  0  0  0  0  0  0  0  0
 ITRead=  0  0  0  0  0  0  0  0  0  0  0  0  0  0  0  0
 MicOpt= -1 -1 -1 -1 -1 -1 -1 -1 -1 -1 -1 -1 -1 -1 -1 -1 -1 -1 -1 -1
 MicOpt= -1 -1 -1 -1 -1 -1 -1 -1 -1 -1 -1 -1 -1 -1 -1 -1
 NAtoms=     36 NQM=       36 NQMF=       0 NMMI=      0 NMMIF=      0
                NMic=       0 NMicF=      0.
                    Isotopes and Nuclear Properties:
 (Nuclear quadrupole moments (NQMom) in fm**2, nuclear magnetic moments (NMagM)
  in nuclear magnetons)

  Atom         1           2           3           4           5           6           7           8           9          10
 IAtWgt=          12          12          12          12           1          12          12           1          12          12
 AtmWgt=  12.0000000  12.0000000  12.0000000  12.0000000   1.0078250  12.0000000  12.0000000   1.0078250  12.0000000  12.0000000
 NucSpn=           0           0           0           0           1           0           0           1           0           0
 AtZEff=  -0.0000000  -0.0000000  -0.0000000  -0.0000000  -0.0000000  -0.0000000  -0.0000000  -0.0000000  -0.0000000  -0.0000000
 NQMom=    0.0000000   0.0000000   0.0000000   0.0000000   0.0000000   0.0000000   0.0000000   0.0000000   0.0000000   0.0000000
 NMagM=    0.0000000   0.0000000   0.0000000   0.0000000   2.7928460   0.0000000   0.0000000   2.7928460   0.0000000   0.0000000
 AtZNuc=   6.0000000   6.0000000   6.0000000   6.0000000   1.0000000   6.0000000   6.0000000   1.0000000   6.0000000   6.0000000

  Atom        11          12          13          14          15          16          17          18          19          20
 IAtWgt=           1          12          16          12          12          14           1          14           1          12
 AtmWgt=   1.0078250  12.0000000  15.9949146  12.0000000  12.0000000  14.0030740   1.0078250  14.0030740   1.0078250  12.0000000
 NucSpn=           1           0           0           0           0           2           1           2           1           0
 AtZEff=  -0.0000000  -0.0000000  -0.0000000  -0.0000000  -0.0000000  -0.0000000  -0.0000000  -0.0000000  -0.0000000  -0.0000000
 NQMom=    0.0000000   0.0000000   0.0000000   0.0000000   0.0000000   2.0440000   0.0000000   2.0440000   0.0000000   0.0000000
 NMagM=    2.7928460   0.0000000   0.0000000   0.0000000   0.0000000   0.4037610   2.7928460   0.4037610   2.7928460   0.0000000
 AtZNuc=   1.0000000   6.0000000   8.0000000   6.0000000   6.0000000   7.0000000   1.0000000   7.0000000   1.0000000   6.0000000

  Atom        21          22          23          24          25          26          27          28          29          30
 IAtWgt=          12          14           1          14           1           1           1           1           1           1
 AtmWgt=  12.0000000  14.0030740   1.0078250  14.0030740   1.0078250   1.0078250   1.0078250   1.0078250   1.0078250   1.0078250
 NucSpn=           0           2           1           2           1           1           1           1           1           1
 AtZEff=  -0.0000000  -0.0000000  -0.0000000  -0.0000000  -0.0000000  -0.0000000  -0.0000000  -0.0000000  -0.0000000  -0.0000000
 NQMom=    0.0000000   2.0440000   0.0000000   2.0440000   0.0000000   0.0000000   0.0000000   0.0000000   0.0000000   0.0000000
 NMagM=    0.0000000   0.4037610   2.7928460   0.4037610   2.7928460   2.7928460   2.7928460   2.7928460   2.7928460   2.7928460
 AtZNuc=   6.0000000   7.0000000   1.0000000   7.0000000   1.0000000   1.0000000   1.0000000   1.0000000   1.0000000   1.0000000

  Atom        31          32          33          34          35          36
 IAtWgt=           1           1           1           1           1           1
 AtmWgt=   1.0078250   1.0078250   1.0078250   1.0078250   1.0078250   1.0078250
 NucSpn=           1           1           1           1           1           1
 AtZEff=  -0.0000000  -0.0000000  -0.0000000  -0.0000000  -0.0000000  -0.0000000
 NQMom=    0.0000000   0.0000000   0.0000000   0.0000000   0.0000000   0.0000000
 NMagM=    2.7928460   2.7928460   2.7928460   2.7928460   2.7928460   2.7928460
 AtZNuc=   1.0000000   1.0000000   1.0000000   1.0000000   1.0000000   1.0000000
 Leave Link  101 at Tue Nov  2 18:27:22 2021, MaxMem=  7864320000 cpu:               6.9 elap:               0.3
 (Enter /apps/gaussian/g16-c01-avx/g16/l202.exe)
                          Input orientation:                          
 ---------------------------------------------------------------------
 Center     Atomic      Atomic             Coordinates (Angstroms)
 Number     Number       Type             X           Y           Z
 ---------------------------------------------------------------------
      1          6           0       -1.208100    1.229700   -0.122800
      2          6           0       -1.055600    0.621100    1.203300
      3          6           0       -2.476600    1.498400   -0.633400
      4          6           0       -2.614600    2.080700   -1.883000
      5          1           0       -3.356000    1.248400   -0.057600
      6          6           0       -1.480800    2.388100   -2.624300
      7          6           0       -0.211100    2.128500   -2.125300
      8          1           0       -1.606200    2.843000   -3.595100
      9          6           0       -0.078200    1.550700   -0.874100
     10          6           0        1.019100    2.506800   -2.909400
     11          1           0        0.900400    1.327900   -0.476800
     12          6           0       -3.992300    2.325100   -2.445300
     13          8           0       -0.008100    0.386900    1.750500
     14          6           0       -5.587800    1.526400   -3.878100
     15          6           0       -4.969700    2.766500   -4.557000
     16          7           0       -4.583300    1.085000   -2.924200
     17          1           0       -5.845900    0.733500   -4.576900
     18          7           0       -3.971300    3.236800   -3.599300
     19          1           0       -5.720800    3.522900   -4.794100
     20          6           0        3.346200    2.249300   -2.531200
     21          6           0        2.962300    3.719600   -2.788400
     22          7           0        2.096100    1.517600   -2.719700
     23          1           0        3.675500    2.117600   -1.493400
     24          7           0        1.547300    3.786700   -2.460400
     25          1           0        3.073200    3.960900   -3.850400
     26          1           0        2.138300    0.866400   -3.491500
     27          1           0        0.756600    2.615700   -3.976200
     28          1           0        1.434900    3.850700   -1.451900
     29          1           0       -3.866700    0.547200   -3.404900
     30          1           0       -4.116000    4.196800   -3.317500
     31          1           0       -4.648800    2.706200   -1.640600
     32          1           0       -2.020600    0.383000    1.695600
     33          1           0       -4.457800    2.483800   -5.484700
     34          1           0        4.140400    1.901100   -3.193100
     35          1           0       -6.482300    1.809700   -3.314600
     36          1           0        3.539200    4.430200   -2.200200
 ---------------------------------------------------------------------
                    Distance matrix (angstroms):
                    1          2          3          4          5
     1  C    0.000000
     2  C    1.467035   0.000000
     3  C    1.393558   2.482411   0.000000
     4  C    2.408474   3.753153   1.385503   0.000000
     5  H    2.148971   2.697261   1.080458   2.138804   0.000000
     6  C    2.770155   4.237170   2.397262   1.389073   3.376868
     7  C    2.410779   3.750335   2.784831   2.416155   3.865276
     8  H    3.849427   5.316450   3.367078   2.128205   4.256578
     9  C    1.394334   2.476905   2.411015   2.780666   3.391464
    10  C    3.789003   4.977404   4.291499   3.799847   5.371949
    11  H    2.140264   2.673619   3.384926   3.859965   4.277732
    12  C    3.787569   4.983985   2.502751   1.507969   2.695417
    13  O    2.378984   1.204796   3.607202   4.781749   3.901262
    14  C    5.776857   6.868845   4.495378   3.623202   4.433332
    15  C    6.014442   7.287247   4.818533   3.628649   5.015302
    16  N    4.388708   5.449415   3.139562   2.439528   3.122557
    17  H    6.449373   7.508017   5.242943   4.417391   5.185441
    18  N    4.873374   6.197432   3.748697   2.474447   4.108037
    19  H    6.887980   8.133470   5.651094   4.494766   5.761949
    20  C    5.251821   5.997780   6.170129   5.998310   7.213874
    21  C    5.540511   6.455842   6.257746   5.882819   7.313345
    22  N    4.212424   5.111443   5.026192   4.817452   6.073273
    23  H    5.149414   5.647567   6.242703   6.302262   7.229040
    24  N    4.426607   5.497164   4.976547   4.534891   6.021525
    25  H    6.299523   7.330835   6.871192   6.305306   7.942141
    26  H    4.762197   5.683513   5.464930   5.162543   6.490372
    27  H    4.541997   5.838640   4.782913   4.004085   5.842809
    28  H    3.952417   4.866518   4.637142   4.440405   5.627500
    29  H    4.278568   5.398449   3.243204   2.497110   3.457877
    30  H    5.240770   6.526049   4.144079   2.964772   4.460674
    31  H    4.040072   5.034530   2.681732   2.141957   2.510458
    32  H    2.164171   1.109178   2.622269   4.005172   2.367683
    33  H    6.394004   7.731362   5.332099   4.065971   5.673940
    34  H    6.203545   6.925688   7.106259   6.883215   8.151895
    35  H    6.192025   7.160535   4.830256   4.133040   4.549380
    36  H    6.090620   6.870607   6.873148   6.594696   7.890397
                    6          7          8          9         10
     6  C    0.000000
     7  C    1.388716   0.000000
     8  H    1.079403   2.148750   0.000000
     9  C    2.394102   1.384564   3.377671   0.000000
    10  C    2.518903   1.507088   2.734121   2.502127   0.000000
    11  H    3.377261   2.143349   4.278127   1.079419   2.705816
    12  C    2.518659   3.799806   2.698839   4.288187   5.036123
    13  O    5.031155   4.253963   6.096047   2.871910   5.221473
    14  C    4.379725   5.687155   4.203173   6.275372   6.749125
    15  C    4.006362   5.381866   3.499176   6.242491   6.216732
    16  N    3.378390   4.565443   3.521902   4.971490   5.780019
    17  H    5.060084   6.301376   4.836215   6.902529   7.283775
    18  N    2.805977   4.188091   2.397664   5.042408   5.090477
    19  H    4.896264   6.278825   4.339332   7.148070   7.071832
    20  C    4.829893   3.582420   5.100062   3.867885   2.371653
    21  C    4.641224   3.611339   4.721269   4.196822   2.293807
    22  N    3.682538   2.459610   4.028652   2.852177   1.474595
    23  H    5.285786   3.937649   5.730594   3.846449   3.035291
    24  N    3.339511   2.440059   3.481763   3.187208   1.455589
    25  H    4.971513   4.137667   4.817848   4.959712   2.686860
    26  H    4.020633   2.996511   4.235441   3.497416   2.069387
    27  H    2.624003   2.144677   2.404106   3.384397   1.104005
    28  H    3.466270   2.475633   3.854485   2.813063   2.025651
    29  H    3.113000   4.183455   3.227497   4.665265   5.287400
    30  H    3.270505   4.576838   2.865123   5.410719   5.421429
    31  H    3.332428   4.501317   3.618867   4.776305   5.811601
    32  H    4.793052   4.573876   5.849345   3.426339   5.912388
    33  H    4.129598   5.426441   3.439656   6.427224   6.052201
    34  H    5.670855   4.486364   5.837139   4.826710   3.192158
    35  H    5.081935   6.390932   4.992268   6.858252   7.544610
    36  H    5.436031   4.400930   5.562382   4.809953   3.248590
                   11         12         13         14         15
    11  H    0.000000
    12  C    5.367300   0.000000
    13  O    2.582967   6.102066   0.000000
    14  C    7.328368   2.288331   8.007038   0.000000
    15  C    7.292165   2.368422   8.370456   1.542984   0.000000
    16  N    6.009969   1.454811   6.578193   1.453884   2.375454
    17  H    7.916861   3.242336   8.616033   1.087946   2.213868
    18  N    6.093223   1.470834   7.242185   2.369867   1.461223
    19  H    8.203499   3.152665   9.235866   2.200627   1.092020
    20  C    3.324376   7.339394   5.749158   9.063834   8.574704
    21  C    3.913458   7.101324   6.366457   8.893918   8.182479
    22  N    2.548781   6.147842   5.068415   7.770733   7.406818
    23  H    3.059131   7.729445   5.204529   9.583582   9.194901
    24  N    3.224724   5.729195   5.631127   7.617643   6.921548
    25  H    4.799471   7.387248   7.323795   8.996693   8.161747
    26  H    3.291473   6.388004   5.684674   7.763870   7.434335
    27  H    3.731609   4.998015   6.192528   6.437982   5.757654
    28  H    2.756997   5.724404   4.933105   7.785058   7.199725
    29  H    5.648761   2.024237   6.441478   2.035912   2.732990
    30  H    6.439288   2.068646   7.554787   3.100243   2.076276
    31  H    5.835046   1.106242   6.197968   2.698158   2.934621
    32  H    3.760904   4.980603   2.013252   6.715535   7.312542
    33  H    7.424653   3.078933   8.748996   2.185104   1.096626
    34  H    4.266667   8.178006   6.628879   9.759483   9.252192
    35  H    7.923983   2.687270   8.342354   1.094496   2.178757
    36  H    4.422402   7.824002   6.673803   9.723658   8.984642
                   16         17         18         19         20
    16  N    0.000000
    17  H    2.109296   0.000000
    18  N    2.336781   3.276635   0.000000
    19  H    3.276246   2.800639   2.137791   0.000000
    20  C    8.024152   9.538199   7.460684   9.431504   0.000000
    21  C    7.993475   9.471004   6.997533   8.913908   1.541205
    22  N    6.696518   8.193862   6.367314   8.332364   1.460708
    23  H    8.445190  10.103503   8.010055  10.057830   1.096728
    24  N    6.715545   8.274117   5.661663   7.638130   2.367415
    25  H    8.231078   9.512847   7.086067   8.855329   2.178163
    26  H    6.749039   8.058735   6.554207   8.397572   2.072103
    27  H    5.653696   6.891772   4.783394   6.591562   2.988026
    28  H    6.784946   8.514259   5.849376   7.904543   2.717064
    29  H    1.016768   2.307710   2.698644   3.771254   7.462334
    30  H    3.171175   4.071006   1.010915   2.282514   7.752126
    31  H    2.068867   3.734495   2.139404   3.429394   8.057416
    32  H    5.329427   7.355272   6.323399   8.103497   7.081769
    33  H    2.920368   2.411322   2.087684   1.775338   8.347489
    34  H    8.765915  10.149107   8.230964  10.121102   1.090921
    35  H    2.069735   1.776686   2.902204   2.388275   9.869467
    36  H    8.814167  10.363127   7.732354   9.659146   2.214302
                   21         22         23         24         25
    21  C    0.000000
    22  N    2.367240   0.000000
    23  H    2.179927   2.087658   0.000000
    24  N    1.454067   2.348879   2.872319   0.000000
    25  H    1.094700   2.864074   3.052207   2.071429   0.000000
    26  H    3.051897   1.010701   2.814407   3.152872   3.252503
    27  H    2.737622   2.139831   3.864243   2.072220   2.681795
    28  H    2.033807   2.736395   2.832957   1.016761   2.906712
    29  H    7.555093   6.079980   7.937554   6.379486   7.746872
    30  H    7.114070   6.791588   8.267883   5.742453   7.212782
    31  H    7.763586   6.933318   8.346382   6.342808   8.129377
    32  H    7.487887   6.142427   6.754562   6.448831   8.337043
    33  H    7.990940   7.178605   9.067257   6.848735   7.846574
    34  H    2.204233   2.133153   1.775383   3.288845   2.411169
    35  H    9.650133   8.603963  10.324363   8.313403   9.809298
    36  H    1.088001   3.291756   2.422037   2.109375   1.777796
                   26         27         28         29         30
    26  H    0.000000
    27  H    2.281245   0.000000
    28  H    3.682497   2.890918   0.000000
    29  H    6.014101   5.097056   6.544791   0.000000
    30  H    7.087885   5.164881   5.866237   3.659149   0.000000
    31  H    7.271549   5.889106   6.193294   2.895810   2.306026
    32  H    6.666043   6.698291   5.819981   5.426799   6.638294
    33  H    7.077949   5.429819   7.270200   2.902652   2.783514
    34  H    2.273335   3.545984   3.761974   8.123519   8.570522
    35  H    8.673860   7.313619   8.385546   2.905757   3.361195
    36  H    4.041120   3.766889   2.307347   8.448452   7.739827
                   31         32         33         34         35
    31  H    0.000000
    32  H    4.840963   0.000000
    33  H    3.855262   7.868292   0.000000
    34  H    8.961500   8.010115   8.917399   0.000000
    35  H    2.639642   6.858888   3.043410  10.623788   0.000000
    36  H    8.386219   7.903699   8.861626   2.782739  10.418223
                   36
    36  H    0.000000
 Stoichiometry    C13H18N4O
 Framework group  C1[X(C13H18N4O)]
 Deg. of freedom   102
 Full point group                 C1      NOp   1
 Largest Abelian subgroup         C1      NOp   1
 Largest concise Abelian subgroup C1      NOp   1
                         Standard orientation:                         
 ---------------------------------------------------------------------
 Center     Atomic      Atomic             Coordinates (Angstroms)
 Number     Number       Type             X           Y           Z
 ---------------------------------------------------------------------
      1          6           0        0.345219    2.086327   -0.123314
      2          6           0        0.749759    3.496334   -0.143748
      3          6           0       -0.990899    1.733669   -0.303384
      4          6           0       -1.366189    0.400017   -0.291220
      5          1           0       -1.738352    2.500354   -0.447950
      6          6           0       -0.402863   -0.580723   -0.092034
      7          6           0        0.932339   -0.242552    0.085187
      8          1           0       -0.712090   -1.614873   -0.087189
      9          6           0        1.303159    1.091315    0.067656
     10          6           0        1.983578   -1.309404    0.252632
     11          1           0        2.334033    1.373408    0.218878
     12          6           0       -2.820810    0.031850   -0.441217
     13          8           0        1.879064    3.902862   -0.039156
     14          6           0       -4.712246   -0.584450    0.689757
     15          6           0       -4.203105   -1.847941   -0.034928
     16          7           0       -3.547361    0.279155    0.794678
     17          1           0       -5.142493   -0.789728    1.667702
     18          7           0       -3.007799   -1.395451   -0.743214
     19          1           0       -4.957192   -2.271956   -0.701315
     20          6           0        4.326268   -1.257708    0.618511
     21          6           0        3.954482   -2.087118   -0.626145
     22          7           0        3.036929   -0.876182    1.189222
     23          1           0        4.861387   -0.347011    0.323400
     24          7           0        2.644042   -1.590282   -1.013715
     25          1           0        3.848523   -3.143829   -0.360621
     26          1           0        2.890163   -1.260928    2.112233
     27          1           0        1.506710   -2.246418    0.589425
     28          1           0        2.749181   -0.719188   -1.527469
     29          1           0       -2.969641   -0.017720    1.576932
     30          1           0       -3.052316   -1.562098   -1.739305
     31          1           0       -3.277693    0.672985   -1.218375
     32          1           0       -0.098431    4.199211   -0.273418
     33          1           0       -3.909534   -2.616772    0.689850
     34          1           0        4.949018   -1.812509    1.321709
     35          1           0       -5.456227   -0.068974    0.074373
     36          1           0        4.669620   -1.995228   -1.440933
 ---------------------------------------------------------------------
 Rotational constants (GHZ):           0.5786405           0.2492132           0.1862819
 Leave Link  202 at Tue Nov  2 18:27:22 2021, MaxMem=  7864320000 cpu:               0.9 elap:               0.1
 (Enter /apps/gaussian/g16-c01-avx/g16/l301.exe)
 Standard basis: Aug-CC-pVDZ (5D, 7F)
 Ernie: Thresh=  0.10000D-02 Tol=  0.10000D-05 Strict=F.
 Ernie:  36 primitive shells out of 576 were deleted.
 There are   612 symmetry adapted cartesian basis functions of A   symmetry.
 There are   576 symmetry adapted basis functions of A   symmetry.
   576 basis functions,   972 primitive gaussians,   612 cartesian basis functions
    66 alpha electrons       66 beta electrons
       nuclear repulsion energy      1303.0498299330 Hartrees.
 IExCor=    0 DFT=F Ex=HF Corr=None ExCW=0 ScaHFX=  1.000000
 ScaDFX=  1.000000  1.000000  1.000000  1.000000 ScalE2=  1.000000  1.000000
 IRadAn=      7 IRanWt=     -1 IRanGd=            0 ICorTp=0 IEmpDi=  4
 NAtoms=   36 NActive=   36 NUniq=   36 SFac= 1.00D+00 NAtFMM=   60 NAOKFM=F Big=F
 Integral buffers will be    131072 words long.
 Raffenetti 1 integral format.
 Two-electron integral symmetry is turned on.
 ------------------------------------------------------------------------------
 Polarizable Continuum Model (PCM)
 =================================
 Model                : PCM.
 Atomic radii         : UFF (Universal Force Field).
 Polarization charges : Total charges.
 Charge compensation  : None.
 Solution method      : On-the-fly selection.
 Cavity type          : Scaled VdW (van der Waals Surface) (Alpha=1.100).
 Cavity algorithm     : GePol (No added spheres)
                        Default sphere list used, NSphG=   36.
                        Lebedev-Laikov grids with approx.  5.0 points / Ang**2.
                        Smoothing algorithm: York/Karplus (Gamma=1.0000).
                        Polarization charges: spherical gaussians, with
                                              point-specific exponents (IZeta= 3).
                        Self-potential: point-specific (ISelfS= 7).
                        Self-field    : sphere-specific E.n sum rule (ISelfD= 2).
 Solvent              : Dichloromethane, Eps=   8.930000 Eps(inf)=   2.028346
 ------------------------------------------------------------------------------
 GePol: Number of generator spheres                  =      36
 GePol: Total number of spheres                      =      36
 GePol: Number of exposed spheres                    =      36 (100.00%)
 GePol: Number of points                             =    2571
 GePol: Average weight of points                     =       0.13
 GePol: Minimum weight of points                     =   0.22D-10
 GePol: Maximum weight of points                     =    0.20577
 GePol: Number of points with low weight             =     180
 GePol: Fraction of low-weight points (<1% of avg)   =       7.00%
 GePol: Cavity surface area                          =    334.240 Ang**2
 GePol: Cavity volume                                =    354.454 Ang**3
 Leave Link  301 at Tue Nov  2 18:27:22 2021, MaxMem=  7864320000 cpu:               1.6 elap:               0.1
 (Enter /apps/gaussian/g16-c01-avx/g16/l302.exe)
 NPDir=0 NMtPBC=     1 NCelOv=     1 NCel=       1 NClECP=     1 NCelD=      1
         NCelK=      1 NCelE2=     1 NClLst=     1 CellRange=     0.0.
 One-electron integrals computed using PRISM.
 One-electron integral symmetry used in STVInt
 NBasis=   576 RedAO= T EigKep=  1.20D-06  NBF=   576
 NBsUse=   574 1.00D-06 EigRej=  9.31D-07 NBFU=   574
 Leave Link  302 at Tue Nov  2 18:27:23 2021, MaxMem=  7864320000 cpu:              20.1 elap:               0.6
 (Enter /apps/gaussian/g16-c01-avx/g16/l303.exe)
 DipDrv:  MaxL=1.
 Leave Link  303 at Tue Nov  2 18:27:23 2021, MaxMem=  7864320000 cpu:               3.1 elap:               0.1
 (Enter /apps/gaussian/g16-c01-avx/g16/l401.exe)
 ExpMin= 2.97D-02 ExpMax= 1.17D+04 ExpMxC= 4.01D+02 IAcc=3 IRadAn=         7 AccDes= 0.00D+00
 Harris functional with IExCor=  205 and IRadAn=       7 diagonalized for initial guess.
 HarFok:  IExCor=  205 AccDes= 0.00D+00 IRadAn=         7 IDoV= 1 UseB2=F ITyADJ=14
 ICtDFT=  3500011 ScaDFX=  1.000000  1.000000  1.000000  1.000000
 FoFCou: FMM=F IPFlag=           0 FMFlag=      100000 FMFlg1=           0
         NFxFlg=           0 DoJE=T BraDBF=F KetDBF=T FulRan=T
         wScrn=  0.000000 ICntrl=       500 IOpCl=  0 I1Cent=   200000004 NGrid=           0
         NMat0=    1 NMatS0=      1 NMatT0=    0 NMatD0=    1 NMtDS0=    0 NMtDT0=    0
 Petite list used in FoFCou.
 Harris En= -796.502270849522    
 JPrj=0 DoOrth=F DoCkMO=F.
 Leave Link  401 at Tue Nov  2 18:27:27 2021, MaxMem=  7864320000 cpu:             132.9 elap:               4.2
 (Enter /apps/gaussian/g16-c01-avx/g16/l508.exe)
 Integral symmetry usage will be decided dynamically.
 Tight linear equation convergence will be used.
 RHF wavefunction.
 Linear searches until partial convergence.
 Full line searches.
 Fock matrices will be formed incrementally for  20 cycles.
 Inv3:  Mode=1 IEnd=    19830123.
 Iteration    1 A*A^-1 deviation from unit magnitude is 3.44D-15 for   2568.
 Iteration    1 A*A^-1 deviation from orthogonality  is 3.08D-15 for   2540   2118.
 Iteration    1 A^-1*A deviation from unit magnitude is 4.22D-15 for   2568.
 Iteration    1 A^-1*A deviation from orthogonality  is 2.60D-15 for   2561   2094.
 FoFJK:  IHMeth= 1 ICntrl=       0 DoSepK=F KAlg= 0 I1Cent=           0 FoldK=F
 IRaf= 930000000 NMat=       1 IRICut=       1 DoRegI=T DoRafI=F ISym2E= 1 IDoP0=0 IntGTp=1.
 Iteration   1 EE= -794.908971578843                                    Grad=1.272D+00 Max rot=    2.2964 deg.
 Gradient too large for Newton-Raphson -- use scaled steepest descent instead.
 Alpha Gap=     0.429 HL deriv= 7.24D-03
     ILin= 1 X=0.000D+00 Y=-7.949089715788D+02 DE= 0.00D+00 F= -1.76D+00
 RMSU=  9.02D-03    CP:  7.80D-01
     ILin= 2 X=3.000D-01 Y=-7.953105864417D+02 DE=-4.02D-01 F= -9.18D-01 OKLS=F
 RMSU=  1.73D-03    CP:  6.64D-01  1.47D+00
     ILin= 3 X=5.000D-01 Y=-7.954376754952D+02 DE=-5.29D-01 F= -3.52D-01
 RMSU=  6.91D-03    CP:  4.85D-01  1.97D+00  3.00D+00
     ILin= 4 X=1.000D+00 Y=-7.952572959382D+02 DE=-3.48D-01 F=  1.07D+00
     An  expanding polynomial of degree  4 produced  0.6240
 RMSU=  3.71D-06    CP:  6.05D-01  1.69D+00  2.02D+00  3.86D-06
 Iteration   2 EE= -795.459413923391     Delta-E=       -0.550442344549 Grad=4.279D-01 Max rot=    1.1293 deg.
 Gradient too large for Newton-Raphson -- use scaled steepest descent instead.
 Alpha Gap=     0.466 HL deriv= 5.09D-03
     ILin= 1 X=0.000D+00 Y=-7.954594139234D+02 DE= 0.00D+00 F= -1.03D-01
 RMSU=  1.88D-03    CP:  5.48D-01  1.71D+00  3.00D+00  3.00D-03 -3.00D+00
     ILin= 2 X=4.000D-01 Y=-7.954901453120D+02 DE=-3.07D-02 F= -5.04D-02 OKLS=F
 RMSU=  4.33D-04    CP:  4.89D-01  1.68D+00  3.00D+00  3.80D-01 -3.00D+00
                    CP:  2.13D+00
     ILin= 3 X=9.000D-01 Y=-7.954989324096D+02 DE=-3.95D-02 F=  1.51D-02
     Accept linear search using points  2 and  3.
     An  expanding polynomial of degree  3 produced  0.6877
 RMSU=  4.58D-06    CP:  5.12D-01  1.70D+00  3.00D+00  2.11D-01 -3.00D+00
                    CP:  1.67D+00  4.40D-01
 Iteration   3 EE= -795.499204853104     Delta-E=       -0.039790929713 Grad=1.513D-01 Max rot=    0.3227 deg.
 Gradient too large for Newton-Raphson -- use scaled steepest descent instead.
 Alpha Gap=     0.447 HL deriv= 1.56D-03
     ILin= 1 X=0.000D+00 Y=-7.954992048531D+02 DE= 0.00D+00 F= -1.37D-02
 RMSU=  7.53D-04    CP:  4.84D-01  1.68D+00  3.00D+00  4.51D-01 -3.00D+00
                    CP:  2.09D+00  1.13D+00  3.00D+00
     ILin= 2 X=7.000D-01 Y=-7.955048940383D+02 DE=-5.69D-03 F= -2.54D-03 OKLS=T
     Reject lnstep IMin12=  1  2 Big=T Turn=F Min= 1.275D+00 FVal=-7.955065301107D+02 Lims=  0.00D+00  7.00D-01
 RMSU=  8.07D-05    CP:  4.62D-01  1.66D+00  3.00D+00  6.72D-01 -3.00D+00
                    CP:  2.42D+00  1.91D+00  3.00D+00  1.84D+00
     ILin= 3 X=1.300D+00 Y=-7.955035426649D+02 DE=-4.34D-03 F=  7.04D-03
     An  expanding polynomial of degree  3 produced  0.8590
 RMSU=  7.02D-07    CP:  4.78D-01  1.68D+00  3.00D+00  5.08D-01 -3.00D+00
                    CP:  2.18D+00  1.32D+00  3.00D+00  1.22D+00  1.74D-01
 Iteration   4 EE= -795.505095744350     Delta-E=       -0.005890891246 Grad=4.862D-02 Max rot=    0.2355 deg.
 Gradient too large for Newton-Raphson -- use scaled steepest descent instead.
 Alpha Gap=     0.459 HL deriv= 1.42D-03
     ILin= 1 X=0.000D+00 Y=-7.955050957444D+02 DE= 0.00D+00 F= -2.92D-03
 RMSU=  3.03D-04    CP:  4.69D-01  1.67D+00  3.00D+00  5.75D-01 -3.00D+00
                    CP:  2.40D+00  1.73D+00  3.00D+00  1.29D+00 -6.42D-03
                    CP: -3.00D+00
     ILin= 2 X=8.000D-01 Y=-7.955059162530D+02 DE=-8.21D-04 F=  8.70D-04 OKLS=T
     Accept linear search using points  1 and  2.
     An  expanding polynomial of degree  2 produced  0.5633
 RMSU=  1.79D-06    CP:  4.72D-01  1.67D+00  3.00D+00  5.55D-01 -3.00D+00
                    CP:  2.33D+00  1.60D+00  3.00D+00  1.27D+00  4.32D-02
                    CP: -3.00D+00  7.04D-01
 Iteration   5 EE= -795.505989571562     Delta-E=       -0.000893827212 Grad=1.868D-02 Max rot=    0.0912 deg.
 Gradient too large for Newton-Raphson -- use scaled steepest descent instead.
 Alpha Gap=     0.455 HL deriv= 6.39D-04
     ILin= 1 X=0.000D+00 Y=-7.955059895716D+02 DE= 0.00D+00 F= -3.61D-04
 RMSU=  6.40D-05    CP:  4.68D-01  1.67D+00  3.00D+00  5.85D-01 -3.00D+00
                    CP:  2.40D+00  1.80D+00  3.00D+00  1.48D+00  2.21D-01
                    CP: -3.00D+00  9.42D-01  1.25D+00
     ILin= 2 X=7.000D-01 Y=-7.955061631536D+02 DE=-1.74D-04 F= -1.35D-04 OKLS=F
 RMSU=  1.80D-06    CP:  4.65D-01  1.66D+00  3.00D+00  6.15D-01 -3.00D+00
                    CP:  2.47D+00  2.00D+00  3.00D+00  1.68D+00  4.33D-01
                    CP: -3.00D+00  1.18D+00  6.77D-01  2.00D+00
     ILin= 3 X=1.400D+00 Y=-7.955061784432D+02 DE=-1.89D-04 F=  9.12D-05
     Accept linear search using points  2 and  3.
     An  expanding polynomial of degree  3 produced  1.0876
 RMSU=  8.15D-11    CP:  4.67D-01  1.66D+00  3.00D+00  6.01D-01 -3.00D+00
                    CP:  2.44D+00  1.91D+00  3.00D+00  1.59D+00  3.34D-01
                    CP: -3.00D+00  1.08D+00  1.03D+00  1.55D+00  4.30D-01
 Iteration   6 EE= -795.506191180377     Delta-E=       -0.000201608814 Grad=7.648D-03 Max rot=    0.0559 deg.
 SCF Done:  E(RHF) =  -795.506191180     a.u. after    6 cycles
            Convg  =    0.7648D-02                    16 Fock formations.
              S**2 =  0.0000                  -V/T =  2.0006
 Leave Link  508 at Tue Nov  2 18:31:29 2021, MaxMem=  7864320000 cpu:            7616.4 elap:             241.4
 (Enter /apps/gaussian/g16-c01-avx/g16/l502.exe)
 Integral symmetry usage will be decided dynamically.
 Closed shell SCF:
 Using DIIS extrapolation, IDIIS=  1040.
 NGot=  7864320000 LenX=  7863544718 LenY=  7863169562
 Requested convergence on RMS density matrix=1.00D-08 within 128 cycles.
 Requested convergence on MAX density matrix=1.00D-06.
 Requested convergence on             energy=1.00D-06.
 No special actions if energy rises.
 Fock matrices will be formed incrementally for  20 cycles.

 Cycle   1  Pass 1  IDiag  1:
 FoFJK:  IHMeth= 1 ICntrl=       0 DoSepK=F KAlg= 0 I1Cent=           0 FoldK=F
 IRaf= 930000000 NMat=       1 IRICut=       1 DoRegI=T DoRafI=F ISym2E= 0 IDoP0=0 IntGTp=1.
 FoFCou: FMM=F IPFlag=           0 FMFlag=      100000 FMFlg1=           0
         NFxFlg=           0 DoJE=F BraDBF=F KetDBF=F FulRan=T
         wScrn=  0.000000 ICntrl=         0 IOpCl=  0 I1Cent=           0 NGrid=           0
         NMat0=    1 NMatS0=      1 NMatT0=    0 NMatD0=    1 NMtDS0=    0 NMtDT0=    0
 Symmetry not used in FoFCou.
 E= -795.506191180951    
 DIIS: error= 1.03D-04 at cycle   1 NSaved=   1.
 NSaved= 1 IEnMin= 1 EnMin= -795.506191180951     IErMin= 1 ErrMin= 1.03D-04
 ErrMax= 1.03D-04  0.00D+00 EMaxC= 1.00D-01 BMatC= 2.92D-05 BMatP= 2.92D-05
 IDIUse=3 WtCom= 9.99D-01 WtEn= 1.03D-03
 Coeff-Com:  0.100D+01
 Coeff-En:   0.100D+01
 Coeff:      0.100D+01
 Gap=     0.457 Goal=   None    Shift=    0.000
 RMSDP=1.33D-04 MaxDP=7.50D-03              OVMax= 1.75D-03

 Cycle   2  Pass 1  IDiag  1:
 RMSU=  1.28D-04    CP:  9.99D-01
 E= -795.506215158127     Delta-E=       -0.000023977177 Rises=F Damp=F
 DIIS: error= 8.50D-05 at cycle   2 NSaved=   2.
 NSaved= 2 IEnMin= 2 EnMin= -795.506215158127     IErMin= 2 ErrMin= 8.50D-05
 ErrMax= 8.50D-05  0.00D+00 EMaxC= 1.00D-01 BMatC= 1.69D-05 BMatP= 2.92D-05
 IDIUse=1 WtCom= 1.00D+00 WtEn= 0.00D+00
 Coeff-Com:  0.424D+00 0.576D+00
 Coeff:      0.424D+00 0.576D+00
 Gap=     0.369 Goal=   None    Shift=    0.000
 RMSDP=3.56D-05 MaxDP=1.81D-03 DE=-2.40D-05 OVMax= 7.73D-04

 Cycle   3  Pass 1  IDiag  1:
 RMSU=  3.55D-05    CP:  9.99D-01  9.93D-01
 E= -795.506228787997     Delta-E=       -0.000013629870 Rises=F Damp=F
 DIIS: error= 1.83D-05 at cycle   3 NSaved=   3.
 NSaved= 3 IEnMin= 3 EnMin= -795.506228787997     IErMin= 3 ErrMin= 1.83D-05
 ErrMax= 1.83D-05  0.00D+00 EMaxC= 1.00D-01 BMatC= 4.67D-07 BMatP= 1.69D-05
 IDIUse=1 WtCom= 1.00D+00 WtEn= 0.00D+00
 Coeff-Com: -0.216D+00-0.233D+00 0.145D+01
 Coeff:     -0.216D+00-0.233D+00 0.145D+01
 Gap=     0.369 Goal=   None    Shift=    0.000
 RMSDP=3.02D-05 MaxDP=2.46D-03 DE=-1.36D-05 OVMax= 8.87D-04

 Cycle   4  Pass 1  IDiag  1:
 RMSU=  1.62D-05    CP:  9.99D-01  1.14D+00  1.50D+00
 E= -795.506231062797     Delta-E=       -0.000002274800 Rises=F Damp=F
 DIIS: error= 8.47D-06 at cycle   4 NSaved=   4.
 NSaved= 4 IEnMin= 4 EnMin= -795.506231062797     IErMin= 4 ErrMin= 8.47D-06
 ErrMax= 8.47D-06  0.00D+00 EMaxC= 1.00D-01 BMatC= 1.02D-07 BMatP= 4.67D-07
 IDIUse=1 WtCom= 1.00D+00 WtEn= 0.00D+00
 Coeff-Com: -0.669D-01-0.855D-01 0.242D+00 0.910D+00
 Coeff:     -0.669D-01-0.855D-01 0.242D+00 0.910D+00
 Gap=     0.369 Goal=   None    Shift=    0.000
 RMSDP=9.19D-06 MaxDP=6.31D-04 DE=-2.27D-06 OVMax= 3.17D-04

 Cycle   5  Pass 1  IDiag  1:
 RMSU=  4.68D-06    CP:  9.99D-01  1.14D+00  1.62D+00  1.40D+00
 E= -795.506231426062     Delta-E=       -0.000000363264 Rises=F Damp=F
 DIIS: error= 4.68D-06 at cycle   5 NSaved=   5.
 NSaved= 5 IEnMin= 5 EnMin= -795.506231426062     IErMin= 5 ErrMin= 4.68D-06
 ErrMax= 4.68D-06  0.00D+00 EMaxC= 1.00D-01 BMatC= 3.09D-08 BMatP= 1.02D-07
 IDIUse=1 WtCom= 1.00D+00 WtEn= 0.00D+00
 Coeff-Com:  0.946D-01 0.101D+00-0.600D+00-0.174D+00 0.158D+01
 Coeff:      0.946D-01 0.101D+00-0.600D+00-0.174D+00 0.158D+01
 Gap=     0.369 Goal=   None    Shift=    0.000
 RMSDP=1.25D-05 MaxDP=9.80D-04 DE=-3.63D-07 OVMax= 3.80D-04

 Cycle   6  Pass 1  IDiag  1:
 RMSU=  3.84D-06    CP:  9.99D-01  1.14D+00  1.74D+00  1.99D+00  1.98D+00
 E= -795.506231641614     Delta-E=       -0.000000215552 Rises=F Damp=F
 DIIS: error= 1.56D-06 at cycle   6 NSaved=   6.
 NSaved= 6 IEnMin= 6 EnMin= -795.506231641614     IErMin= 6 ErrMin= 1.56D-06
 ErrMax= 1.56D-06  0.00D+00 EMaxC= 1.00D-01 BMatC= 2.72D-09 BMatP= 3.09D-08
 IDIUse=1 WtCom= 1.00D+00 WtEn= 0.00D+00
 Coeff-Com: -0.146D-01-0.155D-01 0.120D+00-0.885D-01-0.376D+00 0.137D+01
 Coeff:     -0.146D-01-0.155D-01 0.120D+00-0.885D-01-0.376D+00 0.137D+01
 Gap=     0.369 Goal=   None    Shift=    0.000
 RMSDP=3.54D-06 MaxDP=2.38D-04 DE=-2.16D-07 OVMax= 1.27D-04

 Cycle   7  Pass 1  IDiag  1:
 RMSU=  8.07D-07    CP:  9.99D-01  1.14D+00  1.78D+00  2.12D+00  2.32D+00
                    CP:  1.37D+00
 E= -795.506231660297     Delta-E=       -0.000000018683 Rises=F Damp=F
 DIIS: error= 6.48D-07 at cycle   7 NSaved=   7.
 NSaved= 7 IEnMin= 7 EnMin= -795.506231660297     IErMin= 7 ErrMin= 6.48D-07
 ErrMax= 6.48D-07  0.00D+00 EMaxC= 1.00D-01 BMatC= 3.98D-10 BMatP= 2.72D-09
 IDIUse=1 WtCom= 1.00D+00 WtEn= 0.00D+00
 Coeff-Com: -0.150D-01-0.163D-01 0.102D+00-0.186D-02-0.285D+00 0.323D+00
 Coeff-Com:  0.893D+00
 Coeff:     -0.150D-01-0.163D-01 0.102D+00-0.186D-02-0.285D+00 0.323D+00
 Coeff:      0.893D+00
 Gap=     0.369 Goal=   None    Shift=    0.000
 RMSDP=8.49D-07 MaxDP=5.41D-05 DE=-1.87D-08 OVMax= 2.70D-05

 Cycle   8  Pass 1  IDiag  1:
 RMSU=  2.93D-07    CP:  9.99D-01  1.14D+00  1.79D+00  2.16D+00  2.37D+00
                    CP:  1.45D+00  1.23D+00
 E= -795.506231661686     Delta-E=       -0.000000001389 Rises=F Damp=F
 DIIS: error= 1.87D-07 at cycle   8 NSaved=   8.
 NSaved= 8 IEnMin= 8 EnMin= -795.506231661686     IErMin= 8 ErrMin= 1.87D-07
 ErrMax= 1.87D-07  0.00D+00 EMaxC= 1.00D-01 BMatC= 3.14D-11 BMatP= 3.98D-10
 IDIUse=1 WtCom= 1.00D+00 WtEn= 0.00D+00
 Coeff-Com:  0.283D-02 0.273D-02-0.220D-01 0.113D-01 0.673D-01-0.195D+00
 Coeff-Com: -0.846D-01 0.122D+01
 Coeff:      0.283D-02 0.273D-02-0.220D-01 0.113D-01 0.673D-01-0.195D+00
 Coeff:     -0.846D-01 0.122D+01
 Gap=     0.369 Goal=   None    Shift=    0.000
 RMSDP=2.33D-07 MaxDP=1.74D-05 DE=-1.39D-09 OVMax= 1.17D-05

 Cycle   9  Pass 1  IDiag  1:
 RMSU=  1.06D-07    CP:  9.99D-01  1.14D+00  1.79D+00  2.16D+00  2.38D+00
                    CP:  1.46D+00  1.39D+00  1.22D+00
 E= -795.506231661806     Delta-E=       -0.000000000120 Rises=F Damp=F
 DIIS: error= 5.27D-08 at cycle   9 NSaved=   9.
 NSaved= 9 IEnMin= 9 EnMin= -795.506231661806     IErMin= 9 ErrMin= 5.27D-08
 ErrMax= 5.27D-08  0.00D+00 EMaxC= 1.00D-01 BMatC= 4.67D-12 BMatP= 3.14D-11
 IDIUse=1 WtCom= 1.00D+00 WtEn= 0.00D+00
 Coeff-Com:  0.176D-02 0.176D-02-0.123D-01 0.203D-02 0.352D-01-0.534D-01
 Coeff-Com: -0.107D+00 0.201D+00 0.931D+00
 Coeff:      0.176D-02 0.176D-02-0.123D-01 0.203D-02 0.352D-01-0.534D-01
 Coeff:     -0.107D+00 0.201D+00 0.931D+00
 Gap=     0.369 Goal=   None    Shift=    0.000
 RMSDP=5.43D-08 MaxDP=3.96D-06 DE=-1.20D-10 OVMax= 1.86D-06

 Cycle  10  Pass 1  IDiag  1:
 RMSU=  3.30D-08    CP:  9.99D-01  1.14D+00  1.79D+00  2.16D+00  2.38D+00
                    CP:  1.46D+00  1.40D+00  1.30D+00  1.15D+00
 E= -795.506231661845     Delta-E=       -0.000000000039 Rises=F Damp=F
 DIIS: error= 2.13D-08 at cycle  10 NSaved=  10.
 NSaved=10 IEnMin=10 EnMin= -795.506231661845     IErMin=10 ErrMin= 2.13D-08
 ErrMax= 2.13D-08  0.00D+00 EMaxC= 1.00D-01 BMatC= 6.75D-13 BMatP= 4.67D-12
 IDIUse=1 WtCom= 1.00D+00 WtEn= 0.00D+00
 Coeff-Com: -0.438D-03-0.485D-03 0.351D-02-0.182D-02-0.111D-01 0.325D-01
 Coeff-Com:  0.323D-02-0.178D+00 0.277D-02 0.115D+01
 Coeff:     -0.438D-03-0.485D-03 0.351D-02-0.182D-02-0.111D-01 0.325D-01
 Coeff:      0.323D-02-0.178D+00 0.277D-02 0.115D+01
 Gap=     0.369 Goal=   None    Shift=    0.000
 RMSDP=2.54D-08 MaxDP=1.29D-06 DE=-3.87D-11 OVMax= 1.10D-06

 Cycle  11  Pass 1  IDiag  1:
 RMSU=  1.43D-08    CP:  9.99D-01  1.14D+00  1.79D+00  2.17D+00  2.38D+00
                    CP:  1.46D+00  1.40D+00  1.31D+00  1.27D+00  1.21D+00
 E= -795.506231661855     Delta-E=       -0.000000000010 Rises=F Damp=F
 DIIS: error= 9.15D-09 at cycle  11 NSaved=  11.
 NSaved=11 IEnMin=11 EnMin= -795.506231661855     IErMin=11 ErrMin= 9.15D-09
 ErrMax= 9.15D-09  0.00D+00 EMaxC= 1.00D-01 BMatC= 1.09D-13 BMatP= 6.75D-13
 IDIUse=1 WtCom= 1.00D+00 WtEn= 0.00D+00
 Coeff-Com: -0.214D-03-0.238D-03 0.154D-02-0.209D-03-0.413D-02 0.622D-02
 Coeff-Com:  0.121D-01-0.147D-01-0.135D+00-0.656D-02 0.114D+01
 Coeff:     -0.214D-03-0.238D-03 0.154D-02-0.209D-03-0.413D-02 0.622D-02
 Coeff:      0.121D-01-0.147D-01-0.135D+00-0.656D-02 0.114D+01
 Gap=     0.369 Goal=   None    Shift=    0.000
 RMSDP=9.45D-09 MaxDP=6.91D-07 DE=-1.02D-11 OVMax= 4.49D-07

 Error on total polarization charges =  0.01582
 SCF Done:  E(RHF) =  -795.506231662     A.U. after   11 cycles
            NFock= 11  Conv=0.94D-08     -V/T= 2.0006
 KE= 7.950620170220D+02 PE=-4.465855382832D+03 EE= 1.572237304215D+03
 Leave Link  502 at Tue Nov  2 18:34:12 2021, MaxMem=  7864320000 cpu:            5166.6 elap:             162.9
 (Enter /apps/gaussian/g16-c01-avx/g16/l508.exe)
 QCSCF skips out because SCF is already converged.
 Leave Link  508 at Tue Nov  2 18:34:12 2021, MaxMem=  7864320000 cpu:               0.1 elap:               0.0
 (Enter /apps/gaussian/g16-c01-avx/g16/l801.exe)
 ExpMin= 2.97D-02 ExpMax= 1.17D+04 ExpMxC= 4.01D+02 IAcc=3 IRadAn=         7 AccDes= 0.00D+00
 HarFok:  IExCor=  205 AccDes= 0.00D+00 IRadAn=         7 IDoV=-2 UseB2=F ITyADJ=14
 ICtDFT= 12500011 ScaDFX=  1.000000  1.000000  1.000000  1.000000
 Largest valence mixing into a core orbital is  1.17D-04
 Largest core mixing into a valence orbital is  4.22D-05
 Range of M.O.s used for correlation:    19   574
 NBasis=   576 NAE=    66 NBE=    66 NFC=    18 NFV=     0
 NROrb=    556 NOA=    48 NOB=    48 NVA=   508 NVB=   508

 **** Warning!!: The largest alpha MO coefficient is  0.14536713D+03

 Leave Link  801 at Tue Nov  2 18:34:12 2021, MaxMem=  7864320000 cpu:               5.9 elap:               0.2
 (Enter /apps/gaussian/g16-c01-avx/g16/l906.exe)
 FulOut=F Deriv=F AODrv=F NAtomX=    36
   MMem=          16  MDisk=          48 MDiskD=          48
  W3Min=    14923008 MinDsk=    15621002 NBas6D=         612
 NBas2D=      188388    NTT=      187578    LW2=     2000000
    MDV=  7862035956 MDiskM=      178377 NBas2p=      169680
 Disk-based method using OVN memory for 48 occupieds at a time.
 Estimated scratch disk usage= 14581214400 words.
 IMap=   1   2   3   4   5   6   7   8   9  10  11  12  13  14  15  16  17  18  19  20
 IMap=  21  22  23  24  25  26  27  28  29  30  31  32  33  34  35  36  37  38  39  40
 IMap=  41  42  43  44  45  46  47  48
 Actual    scratch disk usage= 12412775776 words.
 JobTyp=1 Pass  1:  I=   1 to  48 NPSUse= 32 ParTrn=T ParDer=T DoDerP=F.
 (rs|ai) integrals will be sorted in core.
 Spin components of T(2) and E(2):
     alpha-alpha T2 =       0.1270213419D+00 E2=     -0.3554469677D+00
     alpha-beta  T2 =       0.6659592904D+00 E2=     -0.1984979270D+01
     beta-beta   T2 =       0.1270213419D+00 E2=     -0.3554469677D+00
 The integrals were generated   1 times.
 ANorm=    0.1385641358D+01
 E2 =    -0.2695873205D+01 EUMP2 =    -0.79820210486689D+03
 Leave Link  906 at Tue Nov  2 18:39:00 2021, MaxMem=  7864320000 cpu:            9137.8 elap:             287.6
 (Enter /apps/gaussian/g16-c01-avx/g16/l601.exe)
 Copying SCF densities to generalized density rwf, IOpCl= 0 IROHF=0.

 **********************************************************************

            Population analysis using the SCF Density.

 **********************************************************************

 Orbital symmetries:
       Occupied  (A) (A) (A) (A) (A) (A) (A) (A) (A) (A) (A) (A)
                 (A) (A) (A) (A) (A) (A) (A) (A) (A) (A) (A) (A)
                 (A) (A) (A) (A) (A) (A) (A) (A) (A) (A) (A) (A)
                 (A) (A) (A) (A) (A) (A) (A) (A) (A) (A) (A) (A)
                 (A) (A) (A) (A) (A) (A) (A) (A) (A) (A) (A) (A)
                 (A) (A) (A) (A) (A) (A)
       Virtual   (A) (A) (A) (A) (A) (A) (A) (A) (A) (A) (A) (A)
                 (A) (A) (A) (A) (A) (A) (A) (A) (A) (A) (A) (A)
                 (A) (A) (A) (A) (A) (A) (A) (A) (A) (A) (A) (A)
                 (A) (A) (A) (A) (A) (A) (A) (A) (A) (A) (A) (A)
                 (A) (A) (A) (A) (A) (A) (A) (A) (A) (A) (A) (A)
                 (A) (A) (A) (A) (A) (A) (A) (A) (A) (A) (A) (A)
                 (A) (A) (A) (A) (A) (A) (A) (A) (A) (A) (A) (A)
                 (A) (A) (A) (A) (A) (A) (A) (A) (A) (A) (A) (A)
                 (A) (A) (A) (A) (A) (A) (A) (A) (A) (A) (A) (A)
                 (A) (A) (A) (A) (A) (A) (A) (A) (A) (A) (A) (A)
                 (A) (A) (A) (A) (A) (A) (A) (A) (A) (A) (A) (A)
                 (A) (A) (A) (A) (A) (A) (A) (A) (A) (A) (A) (A)
                 (A) (A) (A) (A) (A) (A) (A) (A) (A) (A) (A) (A)
                 (A) (A) (A) (A) (A) (A) (A) (A) (A) (A) (A) (A)
                 (A) (A) (A) (A) (A) (A) (A) (A) (A) (A) (A) (A)
                 (A) (A) (A) (A) (A) (A) (A) (A) (A) (A) (A) (A)
                 (A) (A) (A) (A) (A) (A) (A) (A) (A) (A) (A) (A)
                 (A) (A) (A) (A) (A) (A) (A) (A) (A) (A) (A) (A)
                 (A) (A) (A) (A) (A) (A) (A) (A) (A) (A) (A) (A)
                 (A) (A) (A) (A) (A) (A) (A) (A) (A) (A) (A) (A)
                 (A) (A) (A) (A) (A) (A) (A) (A) (A) (A) (A) (A)
                 (A) (A) (A) (A) (A) (A) (A) (A) (A) (A) (A) (A)
                 (A) (A) (A) (A) (A) (A) (A) (A) (A) (A) (A) (A)
                 (A) (A) (A) (A) (A) (A) (A) (A) (A) (A) (A) (A)
                 (A) (A) (A) (A) (A) (A) (A) (A) (A) (A) (A) (A)
                 (A) (A) (A) (A) (A) (A) (A) (A) (A) (A) (A) (A)
                 (A) (A) (A) (A) (A) (A) (A) (A) (A) (A) (A) (A)
                 (A) (A) (A) (A) (A) (A) (A) (A) (A) (A) (A) (A)
                 (A) (A) (A) (A) (A) (A) (A) (A) (A) (A) (A) (A)
                 (A) (A) (A) (A) (A) (A) (A) (A) (A) (A) (A) (A)
                 (A) (A) (A) (A) (A) (A) (A) (A) (A) (A) (A) (A)
                 (A) (A) (A) (A) (A) (A) (A) (A) (A) (A) (A) (A)
                 (A) (A) (A) (A) (A) (A) (A) (A) (A) (A) (A) (A)
                 (A) (A) (A) (A) (A) (A) (A) (A) (A) (A) (A) (A)
                 (A) (A) (A) (A) (A) (A) (A) (A) (A) (A) (A) (A)
                 (A) (A) (A) (A) (A) (A) (A) (A) (A) (A) (A) (A)
                 (A) (A) (A) (A) (A) (A) (A) (A) (A) (A) (A) (A)
                 (A) (A) (A) (A) (A) (A) (A) (A) (A) (A) (A) (A)
                 (A) (A) (A) (A) (A) (A) (A) (A) (A) (A) (A) (A)
                 (A) (A) (A) (A) (A) (A) (A) (A) (A) (A) (A) (A)
                 (A) (A) (A) (A) (A) (A) (A) (A) (A) (A) (A) (A)
                 (A) (A) (A) (A) (A) (A) (A) (A) (A) (A) (A) (A)
                 (A) (A) (A) (A)
 The electronic state is 1-A.
 Alpha  occ. eigenvalues --  -20.57005 -15.55854 -15.55786 -15.54782 -15.54652
 Alpha  occ. eigenvalues --  -11.34463 -11.29363 -11.29186 -11.25381 -11.25362
 Alpha  occ. eigenvalues --  -11.25246 -11.25125 -11.24992 -11.24901 -11.24687
 Alpha  occ. eigenvalues --  -11.24631 -11.24539 -11.24430  -1.40717  -1.28062
 Alpha  occ. eigenvalues --   -1.27843  -1.17453  -1.14500  -1.14364  -1.06515
 Alpha  occ. eigenvalues --   -1.06059  -0.99053  -0.97772  -0.90009  -0.86921
 Alpha  occ. eigenvalues --   -0.85190  -0.82681  -0.82559  -0.79269  -0.77307
 Alpha  occ. eigenvalues --   -0.71897  -0.70581  -0.68935  -0.68033  -0.67689
 Alpha  occ. eigenvalues --   -0.66268  -0.64374  -0.62367  -0.60522  -0.59400
 Alpha  occ. eigenvalues --   -0.58741  -0.58486  -0.56498  -0.55362  -0.54980
 Alpha  occ. eigenvalues --   -0.53947  -0.53609  -0.53502  -0.52704  -0.50920
 Alpha  occ. eigenvalues --   -0.49673  -0.49548  -0.48959  -0.48091  -0.43066
 Alpha  occ. eigenvalues --   -0.39605  -0.39559  -0.37586  -0.36999  -0.34631
 Alpha  occ. eigenvalues --   -0.33380
 Alpha virt. eigenvalues --    0.03534   0.03948   0.04227   0.04576   0.05040
 Alpha virt. eigenvalues --    0.05231   0.05456   0.05905   0.06373   0.06618
 Alpha virt. eigenvalues --    0.06784   0.07090   0.07291   0.07834   0.08331
 Alpha virt. eigenvalues --    0.08817   0.08949   0.10186   0.10546   0.10772
 Alpha virt. eigenvalues --    0.11079   0.11797   0.12676   0.12967   0.13329
 Alpha virt. eigenvalues --    0.13698   0.14137   0.14499   0.14729   0.14778
 Alpha virt. eigenvalues --    0.15117   0.15358   0.15739   0.15890   0.16059
 Alpha virt. eigenvalues --    0.16740   0.16798   0.17183   0.17465   0.17699
 Alpha virt. eigenvalues --    0.18148   0.18571   0.18785   0.18924   0.19329
 Alpha virt. eigenvalues --    0.19445   0.20021   0.20396   0.20849   0.20935
 Alpha virt. eigenvalues --    0.21569   0.21848   0.22075   0.22617   0.22902
 Alpha virt. eigenvalues --    0.23334   0.23660   0.24210   0.24476   0.24966
 Alpha virt. eigenvalues --    0.26126   0.26500   0.27091   0.27781   0.27981
 Alpha virt. eigenvalues --    0.28448   0.28705   0.29190   0.29618   0.30157
 Alpha virt. eigenvalues --    0.30601   0.31283   0.31783   0.32024   0.32184
 Alpha virt. eigenvalues --    0.32767   0.32982   0.33253   0.33687   0.33912
 Alpha virt. eigenvalues --    0.34253   0.34684   0.34805   0.35321   0.35501
 Alpha virt. eigenvalues --    0.35718   0.35866   0.36018   0.36391   0.36701
 Alpha virt. eigenvalues --    0.36923   0.37459   0.37536   0.38727   0.39294
 Alpha virt. eigenvalues --    0.39738   0.39816   0.39948   0.40499   0.40921
 Alpha virt. eigenvalues --    0.41271   0.42053   0.42699   0.42838   0.43225
 Alpha virt. eigenvalues --    0.43536   0.43848   0.44120   0.44374   0.44458
 Alpha virt. eigenvalues --    0.45116   0.45487   0.46065   0.46597   0.47406
 Alpha virt. eigenvalues --    0.47566   0.47749   0.48600   0.48670   0.49109
 Alpha virt. eigenvalues --    0.49611   0.50107   0.50329   0.50714   0.50877
 Alpha virt. eigenvalues --    0.51339   0.51666   0.51913   0.52623   0.53077
 Alpha virt. eigenvalues --    0.53476   0.53508   0.53670   0.54064   0.54826
 Alpha virt. eigenvalues --    0.55035   0.55557   0.55713   0.56487   0.57147
 Alpha virt. eigenvalues --    0.58184   0.58697   0.59272   0.59736   0.60101
 Alpha virt. eigenvalues --    0.60349   0.60469   0.60845   0.61365   0.61454
 Alpha virt. eigenvalues --    0.61968   0.62682   0.63147   0.63188   0.63555
 Alpha virt. eigenvalues --    0.63699   0.64196   0.64837   0.65631   0.66016
 Alpha virt. eigenvalues --    0.66946   0.67428   0.67649   0.67878   0.68239
 Alpha virt. eigenvalues --    0.68497   0.68706   0.69253   0.69532   0.69847
 Alpha virt. eigenvalues --    0.70071   0.70548   0.71091   0.71331   0.71717
 Alpha virt. eigenvalues --    0.71941   0.72214   0.72746   0.73190   0.73430
 Alpha virt. eigenvalues --    0.73981   0.74186   0.75048   0.75282   0.75661
 Alpha virt. eigenvalues --    0.75907   0.76200   0.76715   0.77737   0.78271
 Alpha virt. eigenvalues --    0.78694   0.79116   0.79251   0.79588   0.80297
 Alpha virt. eigenvalues --    0.80572   0.80987   0.81190   0.81962   0.82540
 Alpha virt. eigenvalues --    0.82912   0.83151   0.83820   0.84242   0.84384
 Alpha virt. eigenvalues --    0.85423   0.85826   0.86625   0.86877   0.87395
 Alpha virt. eigenvalues --    0.87970   0.88063   0.88477   0.88910   0.89365
 Alpha virt. eigenvalues --    0.89983   0.90648   0.91265   0.91741   0.92082
 Alpha virt. eigenvalues --    0.93288   0.93418   0.93745   0.94436   0.94840
 Alpha virt. eigenvalues --    0.95119   0.95767   0.96362   0.96987   0.97089
 Alpha virt. eigenvalues --    0.97991   0.98937   0.99415   1.00486   1.00955
 Alpha virt. eigenvalues --    1.01091   1.02028   1.02449   1.03208   1.03501
 Alpha virt. eigenvalues --    1.04661   1.04737   1.05008   1.05952   1.06946
 Alpha virt. eigenvalues --    1.07168   1.07767   1.07988   1.08475   1.09478
 Alpha virt. eigenvalues --    1.09646   1.09938   1.10992   1.11682   1.12145
 Alpha virt. eigenvalues --    1.12976   1.13804   1.14181   1.15810   1.16997
 Alpha virt. eigenvalues --    1.17188   1.18284   1.19562   1.20397   1.20881
 Alpha virt. eigenvalues --    1.22333   1.22895   1.23557   1.24246   1.24933
 Alpha virt. eigenvalues --    1.26244   1.26838   1.27739   1.27962   1.28807
 Alpha virt. eigenvalues --    1.30074   1.30978   1.31751   1.32051   1.32896
 Alpha virt. eigenvalues --    1.33615   1.34665   1.35764   1.36159   1.39180
 Alpha virt. eigenvalues --    1.39639   1.40428   1.41366   1.42164   1.43845
 Alpha virt. eigenvalues --    1.44812   1.45830   1.46107   1.46504   1.48040
 Alpha virt. eigenvalues --    1.48342   1.50769   1.51832   1.53155   1.53647
 Alpha virt. eigenvalues --    1.55117   1.57340   1.58267   1.59329   1.60521
 Alpha virt. eigenvalues --    1.61727   1.62242   1.62622   1.64033   1.65704
 Alpha virt. eigenvalues --    1.66102   1.66823   1.67120   1.69168   1.69959
 Alpha virt. eigenvalues --    1.71083   1.71712   1.72346   1.73862   1.74759
 Alpha virt. eigenvalues --    1.75298   1.76484   1.76793   1.77511   1.78460
 Alpha virt. eigenvalues --    1.79187   1.80160   1.80804   1.81243   1.81332
 Alpha virt. eigenvalues --    1.81665   1.82796   1.83827   1.84213   1.85053
 Alpha virt. eigenvalues --    1.85885   1.86525   1.86647   1.88353   1.88356
 Alpha virt. eigenvalues --    1.90146   1.90709   1.91336   1.91773   1.92752
 Alpha virt. eigenvalues --    1.93672   1.94094   1.94750   1.95572   1.96129
 Alpha virt. eigenvalues --    1.96995   1.98315   1.98931   1.99757   2.00141
 Alpha virt. eigenvalues --    2.00211   2.01922   2.03171   2.03689   2.04265
 Alpha virt. eigenvalues --    2.05192   2.05897   2.07487   2.07995   2.08358
 Alpha virt. eigenvalues --    2.09630   2.10544   2.11454   2.11602   2.12663
 Alpha virt. eigenvalues --    2.13942   2.15352   2.15962   2.16917   2.18094
 Alpha virt. eigenvalues --    2.18356   2.19872   2.21167   2.22393   2.22558
 Alpha virt. eigenvalues --    2.22908   2.25079   2.25700   2.27178   2.28230
 Alpha virt. eigenvalues --    2.29122   2.29790   2.30266   2.30819   2.31625
 Alpha virt. eigenvalues --    2.32882   2.33879   2.33972   2.34636   2.35642
 Alpha virt. eigenvalues --    2.36857   2.37180   2.37720   2.38119   2.39111
 Alpha virt. eigenvalues --    2.39581   2.40665   2.40852   2.42106   2.43499
 Alpha virt. eigenvalues --    2.44207   2.45642   2.46038   2.47074   2.47466
 Alpha virt. eigenvalues --    2.48398   2.49279   2.49860   2.50075   2.51465
 Alpha virt. eigenvalues --    2.51714   2.52616   2.52834   2.54919   2.55781
 Alpha virt. eigenvalues --    2.57289   2.57803   2.59949   2.60601   2.60951
 Alpha virt. eigenvalues --    2.61256   2.63794   2.64236   2.64774   2.66277
 Alpha virt. eigenvalues --    2.67197   2.67858   2.68917   2.69808   2.71912
 Alpha virt. eigenvalues --    2.72348   2.72707   2.73910   2.74879   2.75888
 Alpha virt. eigenvalues --    2.76310   2.79154   2.79664   2.80123   2.82081
 Alpha virt. eigenvalues --    2.84884   2.85644   2.86709   2.88250   2.89127
 Alpha virt. eigenvalues --    2.89826   2.91390   2.91735   2.93461   2.94915
 Alpha virt. eigenvalues --    2.95252   2.97651   2.99276   3.00379   3.00551
 Alpha virt. eigenvalues --    3.02578   3.03668   3.04616   3.06480   3.08449
 Alpha virt. eigenvalues --    3.10353   3.11321   3.12545   3.14697   3.16241
 Alpha virt. eigenvalues --    3.16878   3.18083   3.18426   3.19376   3.21943
 Alpha virt. eigenvalues --    3.24974   3.25934   3.26980   3.28645   3.31092
 Alpha virt. eigenvalues --    3.32247   3.32702   3.33471   3.41092   3.42456
 Alpha virt. eigenvalues --    3.47830   3.51511   3.56922   3.59362   3.66641
 Alpha virt. eigenvalues --    3.67866   3.70078   3.71387   3.75144   3.77877
 Alpha virt. eigenvalues --    3.79268   3.82469   3.84985   3.86874   3.91179
 Alpha virt. eigenvalues --    3.93662   4.01794   4.10327   4.21856   4.32034
 Alpha virt. eigenvalues --    4.45527   4.70376   5.06567
          Condensed to atoms (all electrons):
               1          2          3          4          5          6
     1  C   15.990257  -1.862676  -4.460456  -0.486415   0.757936  -1.873366
     2  C   -1.862676   8.371262  -1.057369  -0.686879  -0.027693   0.496809
     3  C   -4.460456  -1.057369  26.611737  -6.537307  -1.910791  -1.515868
     4  C   -0.486415  -0.686879  -6.537307  17.639759   0.529005  -3.590898
     5  H    0.757936  -0.027693  -1.910791   0.529005   2.278793   0.031925
     6  C   -1.873366   0.496809  -1.515868  -3.590898   0.031925  26.508067
     7  C   -0.228834   0.017384  -1.785083  -0.701419  -0.110492  -5.759379
     8  H   -0.202082  -0.030051   0.184664   0.276428  -0.015440  -2.389778
     9  C   -2.194730  -0.355779  -1.440044  -0.990999   0.271643  -2.497259
    10  C    0.329712  -0.344960  -0.701907   0.470327   0.018247  -3.481313
    11  H    0.284169   0.098085   0.163130  -0.107526   0.000393   0.107612
    12  C   -0.730076  -0.108933  -1.988511  -0.552469  -0.082866  -1.394368
    13  O   -0.093977   0.265925  -0.072564   0.006528   0.005268   0.001236
    14  C    0.004712  -0.002788   0.060754  -0.064821   0.008296  -0.024040
    15  C   -0.002725   0.001291   0.031650   0.077548   0.005208  -0.059574
    16  N   -0.016725  -0.005701  -0.127888  -0.050024   0.026440  -0.074520
    17  H    0.002213  -0.000375  -0.006503   0.025287  -0.001239  -0.020306
    18  N    0.001400   0.008556   0.135172   0.125634   0.027392   0.061337
    19  H   -0.005656  -0.000492   0.029602  -0.120242   0.001733  -0.068029
    20  C   -0.006313  -0.018507   0.071830  -0.059847   0.000969   0.123663
    21  C    0.027834   0.007766  -0.059935   0.036102  -0.001072  -0.110851
    22  N   -0.045147   0.030884   0.078149  -0.133983   0.000343   0.207807
    23  H   -0.002296  -0.006151   0.000383   0.003509  -0.000020  -0.003084
    24  N    0.008866   0.012993   0.022326  -0.097373   0.000697   0.111842
    25  H   -0.001578   0.000122  -0.002264   0.003516  -0.000057  -0.003440
    26  H   -0.013131  -0.001838  -0.011369   0.024039  -0.000068  -0.082302
    27  H    0.047101  -0.000648  -0.005666  -0.100980   0.002145   0.360402
    28  H   -0.004173   0.000924  -0.001265   0.032996   0.000054  -0.004934
    29  H    0.017777  -0.000450   0.042509   0.025662   0.000659   0.140725
    30  H    0.005287   0.000482  -0.057671   0.047910   0.001366  -0.048207
    31  H    0.016662   0.001873   0.170045  -0.027570  -0.033339   0.106848
    32  H    0.285699  -0.085802   0.054975   0.000426  -0.049957  -0.007360
    33  H    0.002560   0.000717  -0.013103   0.003964  -0.001665   0.068921
    34  H    0.003291   0.000078   0.004930  -0.004317   0.000013   0.020460
    35  H    0.004583   0.000550  -0.013701  -0.009518  -0.000679   0.050606
    36  H    0.002989   0.000063  -0.004687   0.007418  -0.000046  -0.031496
               7          8          9         10         11         12
     1  C   -0.228834  -0.202082  -2.194730   0.329712   0.284169  -0.730076
     2  C    0.017384  -0.030051  -0.355779  -0.344960   0.098085  -0.108933
     3  C   -1.785083   0.184664  -1.440044  -0.701907   0.163130  -1.988511
     4  C   -0.701419   0.276428  -0.990999   0.470327  -0.107526  -0.552469
     5  H   -0.110492  -0.015440   0.271643   0.018247   0.000393  -0.082866
     6  C   -5.759379  -2.389778  -2.497259  -3.481313   0.107612  -1.394368
     7  C   17.621962   0.739071  -4.684701   0.095793   0.460151  -0.299620
     8  H    0.739071   2.855882   0.200382   0.297843  -0.007787   0.060542
     9  C   -4.684701   0.200382  20.475826  -1.284437  -1.551609   0.188190
    10  C    0.095793   0.297843  -1.284437  12.677598  -0.095988   0.161822
    11  H    0.460151  -0.007787  -1.551609  -0.095988   2.548598  -0.003834
    12  C   -0.299620   0.060542   0.188190   0.161822  -0.003834  12.471969
    13  O   -0.063266   0.000881   0.094733   0.023401  -0.011640   0.002986
    14  C    0.030198  -0.001488  -0.016039   0.001794  -0.000054  -0.262465
    15  C   -0.022027   0.032000   0.027491  -0.017807   0.000513  -0.437052
    16  N    0.008004  -0.018365  -0.029567  -0.014504   0.000303  -0.070367
    17  H    0.002263   0.001788  -0.002667   0.000282  -0.000005   0.038683
    18  N   -0.100932  -0.126922   0.031813  -0.137553   0.002872  -1.124001
    19  H    0.010441   0.005985   0.001383   0.000783   0.000028   0.301086
    20  C    0.074001   0.011454  -0.033189  -0.519162   0.030929  -0.005591
    21  C   -0.039103   0.011887  -0.032286  -0.320768  -0.011255  -0.007387
    22  N   -0.149166   0.014988   0.171788  -1.150884  -0.068435  -0.019768
    23  H   -0.083043  -0.003071   0.062288   0.074367  -0.023665   0.001182
    24  N   -0.135319   0.004997  -0.121307  -0.229329  -0.013786  -0.050317
    25  H   -0.016798   0.000434   0.008781   0.048467  -0.004358  -0.000205
    26  H    0.008394  -0.000505  -0.004660   0.220257  -0.007412  -0.000881
    27  H    0.082678  -0.076530   0.065338  -0.674331   0.020336  -0.005342
    28  H    0.034289   0.003601   0.097839  -0.108195  -0.004013   0.000683
    29  H   -0.008980   0.003241  -0.007507   0.013294   0.000525  -0.256905
    30  H    0.006185  -0.021910  -0.005313  -0.006739  -0.000127   0.143217
    31  H   -0.006544   0.033037  -0.018242   0.005540   0.001270  -0.446996
    32  H    0.004608  -0.001695  -0.044635  -0.010797   0.005225   0.003366
    33  H   -0.000937  -0.010078   0.000700  -0.002576  -0.000167  -0.089805
    34  H   -0.024872   0.002745  -0.025379   0.153401   0.010666  -0.000432
    35  H   -0.005643  -0.002581   0.001006  -0.000025  -0.000022  -0.096710
    36  H    0.030831  -0.001408  -0.013952   0.001027   0.001254  -0.000962
              13         14         15         16         17         18
     1  C   -0.093977   0.004712  -0.002725  -0.016725   0.002213   0.001400
     2  C    0.265925  -0.002788   0.001291  -0.005701  -0.000375   0.008556
     3  C   -0.072564   0.060754   0.031650  -0.127888  -0.006503   0.135172
     4  C    0.006528  -0.064821   0.077548  -0.050024   0.025287   0.125634
     5  H    0.005268   0.008296   0.005208   0.026440  -0.001239   0.027392
     6  C    0.001236  -0.024040  -0.059574  -0.074520  -0.020306   0.061337
     7  C   -0.063266   0.030198  -0.022027   0.008004   0.002263  -0.100932
     8  H    0.000881  -0.001488   0.032000  -0.018365   0.001788  -0.126922
     9  C    0.094733  -0.016039   0.027491  -0.029567  -0.002667   0.031813
    10  C    0.023401   0.001794  -0.017807  -0.014504   0.000282  -0.137553
    11  H   -0.011640  -0.000054   0.000513   0.000303  -0.000005   0.002872
    12  C    0.002986  -0.262465  -0.437052  -0.070367   0.038683  -1.124001
    13  O    8.705178   0.000053   0.000072   0.000216   0.000001  -0.000020
    14  C    0.000053   4.382700   0.444940   0.287950   0.305848   0.078200
    15  C    0.000072   0.444940   4.385460   0.037727  -0.086191   0.334165
    16  N    0.000216   0.287950   0.037727   7.498437  -0.079945   0.055190
    17  H    0.000001   0.305848  -0.086191  -0.079945   1.373762   0.071844
    18  N   -0.000020   0.078200   0.334165   0.055190   0.071844   8.131062
    19  H    0.000007  -0.077784   0.268012   0.036886   0.030493  -0.231983
    20  C    0.003389  -0.000060  -0.000059   0.000197  -0.000008   0.001906
    21  C   -0.001689  -0.000056  -0.000317   0.000216  -0.000008  -0.004732
    22  N   -0.001307  -0.000210   0.000270   0.001363  -0.000006   0.004324
    23  H   -0.000726  -0.000024   0.000005  -0.000061  -0.000002  -0.000002
    24  N   -0.000886   0.000078  -0.001057   0.002779  -0.000048   0.001563
    25  H   -0.000107  -0.000045   0.000027   0.000025  -0.000003  -0.000446
    26  H   -0.000072   0.000029  -0.000036   0.000061  -0.000001  -0.000129
    27  H    0.000375   0.000712  -0.001081  -0.000425  -0.000305  -0.002374
    28  H    0.000994  -0.000084  -0.000052   0.000169  -0.000022   0.000268
    29  H   -0.000088  -0.080408   0.010248   0.260019  -0.026567  -0.062995
    30  H   -0.000026   0.003686  -0.070535  -0.004362  -0.000315   0.330832
    31  H   -0.000427   0.000970   0.032902  -0.014652   0.007228   0.015894
    32  H   -0.007965   0.000040   0.000789  -0.000717   0.000021   0.001747
    33  H   -0.000008   0.022612   0.246693   0.010434  -0.118871  -0.088779
    34  H    0.000300   0.000012  -0.000012   0.000022   0.000000   0.000125
    35  H    0.000002   0.235088   0.117568  -0.089908  -0.323830  -0.015312
    36  H    0.000008   0.000021  -0.000046   0.000014   0.000001  -0.000234
              19         20         21         22         23         24
     1  C   -0.005656  -0.006313   0.027834  -0.045147  -0.002296   0.008866
     2  C   -0.000492  -0.018507   0.007766   0.030884  -0.006151   0.012993
     3  C    0.029602   0.071830  -0.059935   0.078149   0.000383   0.022326
     4  C   -0.120242  -0.059847   0.036102  -0.133983   0.003509  -0.097373
     5  H    0.001733   0.000969  -0.001072   0.000343  -0.000020   0.000697
     6  C   -0.068029   0.123663  -0.110851   0.207807  -0.003084   0.111842
     7  C    0.010441   0.074001  -0.039103  -0.149166  -0.083043  -0.135319
     8  H    0.005985   0.011454   0.011887   0.014988  -0.003071   0.004997
     9  C    0.001383  -0.033189  -0.032286   0.171788   0.062288  -0.121307
    10  C    0.000783  -0.519162  -0.320768  -1.150884   0.074367  -0.229329
    11  H    0.000028   0.030929  -0.011255  -0.068435  -0.023665  -0.013786
    12  C    0.301086  -0.005591  -0.007387  -0.019768   0.001182  -0.050317
    13  O    0.000007   0.003389  -0.001689  -0.001307  -0.000726  -0.000886
    14  C   -0.077784  -0.000060  -0.000056  -0.000210  -0.000024   0.000078
    15  C    0.268012  -0.000059  -0.000317   0.000270   0.000005  -0.001057
    16  N    0.036886   0.000197   0.000216   0.001363  -0.000061   0.002779
    17  H    0.030493  -0.000008  -0.000008  -0.000006  -0.000002  -0.000048
    18  N   -0.231983   0.001906  -0.004732   0.004324  -0.000002   0.001563
    19  H    1.449146   0.000011   0.000056   0.000090  -0.000001  -0.000090
    20  C    0.000011   4.428321   0.381747   0.315019   0.210190   0.084802
    21  C    0.000056   0.381747   4.560772   0.192248   0.028505   0.304338
    22  N    0.000090   0.315019   0.192248   7.922397  -0.098799   0.065846
    23  H   -0.000001   0.210190   0.028505  -0.098799   1.379215  -0.006785
    24  N   -0.000090   0.084802   0.304338   0.065846  -0.006785   7.627234
    25  H    0.000000   0.086622   0.197477  -0.028585   0.089855  -0.103726
    26  H    0.000003  -0.094396   0.023271   0.235483   0.035141  -0.019634
    27  H    0.000164   0.023740   0.020753   0.088707   0.001018  -0.002283
    28  H   -0.000003   0.009371  -0.095724  -0.052156   0.005492   0.214374
    29  H   -0.002932   0.000307  -0.000175  -0.000340   0.000017   0.000316
    30  H   -0.043498  -0.000077  -0.000365  -0.000291   0.000009  -0.000058
    31  H    0.001417  -0.000352   0.000190  -0.000511   0.000008  -0.001060
    32  H   -0.000131  -0.000786   0.000713   0.001530  -0.000089   0.000513
    33  H   -0.279117   0.000019  -0.000018   0.000139   0.000011   0.000038
    34  H   -0.000001   0.332474  -0.183226  -0.181927  -0.300121   0.061933
    35  H   -0.113814  -0.000016  -0.000019  -0.000041  -0.000000   0.000031
    36  H    0.000003  -0.104020   0.385396   0.056393  -0.113094  -0.118248
              25         26         27         28         29         30
     1  C   -0.001578  -0.013131   0.047101  -0.004173   0.017777   0.005287
     2  C    0.000122  -0.001838  -0.000648   0.000924  -0.000450   0.000482
     3  C   -0.002264  -0.011369  -0.005666  -0.001265   0.042509  -0.057671
     4  C    0.003516   0.024039  -0.100980   0.032996   0.025662   0.047910
     5  H   -0.000057  -0.000068   0.002145   0.000054   0.000659   0.001366
     6  C   -0.003440  -0.082302   0.360402  -0.004934   0.140725  -0.048207
     7  C   -0.016798   0.008394   0.082678   0.034289  -0.008980   0.006185
     8  H    0.000434  -0.000505  -0.076530   0.003601   0.003241  -0.021910
     9  C    0.008781  -0.004660   0.065338   0.097839  -0.007507  -0.005313
    10  C    0.048467   0.220257  -0.674331  -0.108195   0.013294  -0.006739
    11  H   -0.004358  -0.007412   0.020336  -0.004013   0.000525  -0.000127
    12  C   -0.000205  -0.000881  -0.005342   0.000683  -0.256905   0.143217
    13  O   -0.000107  -0.000072   0.000375   0.000994  -0.000088  -0.000026
    14  C   -0.000045   0.000029   0.000712  -0.000084  -0.080408   0.003686
    15  C    0.000027  -0.000036  -0.001081  -0.000052   0.010248  -0.070535
    16  N    0.000025   0.000061  -0.000425   0.000169   0.260019  -0.004362
    17  H   -0.000003  -0.000001  -0.000305  -0.000022  -0.026567  -0.000315
    18  N   -0.000446  -0.000129  -0.002374   0.000268  -0.062995   0.330832
    19  H    0.000000   0.000003   0.000164  -0.000003  -0.002932  -0.043498
    20  C    0.086622  -0.094396   0.023740   0.009371   0.000307  -0.000077
    21  C    0.197477   0.023271   0.020753  -0.095724  -0.000175  -0.000365
    22  N   -0.028585   0.235483   0.088707  -0.052156  -0.000340  -0.000291
    23  H    0.089855   0.035141   0.001018   0.005492   0.000017   0.000009
    24  N   -0.103726  -0.019634  -0.002283   0.214374   0.000316  -0.000058
    25  H    1.358446   0.010476   0.000669   0.026022   0.000003   0.000020
    26  H    0.010476   0.844007  -0.074977  -0.001582  -0.000084  -0.000013
    27  H    0.000669  -0.074977   1.524996   0.011744   0.001659   0.000573
    28  H    0.026022  -0.001582   0.011744   0.780366   0.000147   0.000168
    29  H    0.000003  -0.000084   0.001659   0.000147   0.812313  -0.004252
    30  H    0.000020  -0.000013   0.000573   0.000168  -0.004252   0.775982
    31  H    0.000054   0.000049  -0.002554  -0.000172   0.016639  -0.094770
    32  H    0.000042  -0.000045   0.000229  -0.000142   0.000172   0.000070
    33  H    0.000038   0.000028   0.000083   0.000033   0.007416   0.028798
    34  H   -0.100522  -0.040878  -0.007376  -0.001040   0.000019  -0.000006
    35  H   -0.000001   0.000005   0.000016   0.000011   0.033642   0.008930
    36  H   -0.320615  -0.000999   0.010222  -0.011862  -0.000011  -0.000006
              31         32         33         34         35         36
     1  C    0.016662   0.285699   0.002560   0.003291   0.004583   0.002989
     2  C    0.001873  -0.085802   0.000717   0.000078   0.000550   0.000063
     3  C    0.170045   0.054975  -0.013103   0.004930  -0.013701  -0.004687
     4  C   -0.027570   0.000426   0.003964  -0.004317  -0.009518   0.007418
     5  H   -0.033339  -0.049957  -0.001665   0.000013  -0.000679  -0.000046
     6  C    0.106848  -0.007360   0.068921   0.020460   0.050606  -0.031496
     7  C   -0.006544   0.004608  -0.000937  -0.024872  -0.005643   0.030831
     8  H    0.033037  -0.001695  -0.010078   0.002745  -0.002581  -0.001408
     9  C   -0.018242  -0.044635   0.000700  -0.025379   0.001006  -0.013952
    10  C    0.005540  -0.010797  -0.002576   0.153401  -0.000025   0.001027
    11  H    0.001270   0.005225  -0.000167   0.010666  -0.000022   0.001254
    12  C   -0.446996   0.003366  -0.089805  -0.000432  -0.096710  -0.000962
    13  O   -0.000427  -0.007965  -0.000008   0.000300   0.000002   0.000008
    14  C    0.000970   0.000040   0.022612   0.000012   0.235088   0.000021
    15  C    0.032902   0.000789   0.246693  -0.000012   0.117568  -0.000046
    16  N   -0.014652  -0.000717   0.010434   0.000022  -0.089908   0.000014
    17  H    0.007228   0.000021  -0.118871   0.000000  -0.323830   0.000001
    18  N    0.015894   0.001747  -0.088779   0.000125  -0.015312  -0.000234
    19  H    0.001417  -0.000131  -0.279117  -0.000001  -0.113814   0.000003
    20  C   -0.000352  -0.000786   0.000019   0.332474  -0.000016  -0.104020
    21  C    0.000190   0.000713  -0.000018  -0.183226  -0.000019   0.385396
    22  N   -0.000511   0.001530   0.000139  -0.181927  -0.000041   0.056393
    23  H    0.000008  -0.000089   0.000011  -0.300121  -0.000000  -0.113094
    24  N   -0.001060   0.000513   0.000038   0.061933   0.000031  -0.118248
    25  H    0.000054   0.000042   0.000038  -0.100522  -0.000001  -0.320615
    26  H    0.000049  -0.000045   0.000028  -0.040878   0.000005  -0.000999
    27  H   -0.002554   0.000229   0.000083  -0.007376   0.000016   0.010222
    28  H   -0.000172  -0.000142   0.000033  -0.001040   0.000011  -0.011862
    29  H    0.016639   0.000172   0.007416   0.000019   0.033642  -0.000011
    30  H   -0.094770   0.000070   0.028798  -0.000006   0.008930  -0.000006
    31  H    1.372231   0.002776  -0.002359  -0.000010   0.002052  -0.000071
    32  H    0.002776   1.152980   0.000140  -0.000046   0.000253   0.000000
    33  H   -0.002359   0.000140   1.374807  -0.000010   0.091402  -0.000010
    34  H   -0.000010  -0.000046  -0.000010   1.453422  -0.000000   0.027563
    35  H    0.002052   0.000253   0.091402  -0.000000   1.376054  -0.000001
    36  H   -0.000071   0.000000  -0.000010   0.027563  -0.000001   1.396898
 Mulliken charges:
               1
     1  C    0.437307
     2  C    1.281328
     3  C    0.112096
     4  C    0.986528
     5  H   -0.733101
     6  C    0.642111
     7  C    0.999904
     8  H   -0.832160
     9  C   -0.344900
    10  C    0.507320
    11  H   -0.824374
    12  C    0.662140
    13  O   -0.856786
    14  C    0.661675
    15  C    0.643993
    16  N   -0.628721
    17  H   -0.192498
    18  N   -0.524879
    19  H   -0.193557
    20  C    0.651423
    21  C    0.689713
    22  N   -0.456210
    23  H   -0.250160
    24  N   -0.624258
    25  H   -0.248347
    26  H   -0.046231
    27  H   -0.308788
    28  H    0.065875
    29  H    0.064383
    30  H    0.005023
    31  H   -0.138059
    32  H   -0.306145
    33  H   -0.252050
    34  H   -0.201282
    35  H   -0.249980
    36  H   -0.198334
 Sum of Mulliken charges =   0.00000
 Mulliken charges with hydrogens summed into heavy atoms:
               1
     1  C    0.437307
     2  C    0.975182
     3  C   -0.621006
     4  C    0.986528
     6  C   -0.190049
     7  C    0.999904
     9  C   -1.169274
    10  C    0.198533
    12  C    0.524081
    13  O   -0.856786
    14  C    0.219197
    15  C    0.198386
    16  N   -0.564337
    18  N   -0.519856
    20  C    0.199981
    21  C    0.243032
    22  N   -0.502441
    24  N   -0.558383
 Electronic spatial extent (au):  <R**2>=           5829.9616
 Charge=              0.0000 electrons
 Dipole moment (field-independent basis, Debye):
    X=             -3.4666    Y=             -4.6989    Z=             -0.0383  Tot=              5.8394
 Quadrupole moment (field-independent basis, Debye-Ang):
   XX=            -93.8248   YY=           -119.8104   ZZ=           -104.6065
   XY=            -12.2232   XZ=              4.5172   YZ=             -7.9451
 Traceless Quadrupole moment (field-independent basis, Debye-Ang):
   XX=             12.2557   YY=            -13.7299   ZZ=              1.4741
   XY=            -12.2232   XZ=              4.5172   YZ=             -7.9451
 Octapole moment (field-independent basis, Debye-Ang**2):
  XXX=            -10.6653  YYY=            -55.4604  ZZZ=              7.9279  XYY=            -52.4673
  XXY=            -83.2851  XXZ=            -15.8241  XZZ=             -7.1869  YZZ=             -8.1657
  YYZ=              5.4476  XYZ=             -8.0362
 Hexadecapole moment (field-independent basis, Debye-Ang**3):
 XXXX=          -4881.1282 YYYY=          -2372.0860 ZZZZ=           -343.3916 XXXY=            -11.2557
 XXXZ=             28.8058 YYYX=           -250.9156 YYYZ=            -39.0988 ZZZX=             21.5370
 ZZZY=            -16.7112 XXYY=          -1326.0328 XXZZ=           -873.2606 YYZZ=           -415.5127
 XXYZ=            -45.1542 YYXZ=             46.6712 ZZXY=             18.4172
 N-N= 1.303049829933D+03 E-N=-4.465855381309D+03  KE= 7.950620170220D+02
 Leave Link  601 at Tue Nov  2 18:39:00 2021, MaxMem=  7864320000 cpu:               6.6 elap:               0.3
 (Enter /apps/gaussian/g16-c01-avx/g16/l9999.exe)
 Unable to Open any file for archive entry.
 1\1\GINC-CX3-12-27\SP\RMP2-FC\Aug-CC-pVDZ\C13H18N4O1\ATARZIA\02-Nov-20
 21\0\\#P MP2/aug-cc-pVDZ SP SCF=(YQC,MaxCycle=900) int=(Grid=Superfine
 grid) SCRF=(PCM,Solvent=Dichloromethane)\\_1_alde1_2_ami4_1_opt_dcm_mp
 2\\0,1\C,0,-1.2081,1.2297,-0.1228\C,0,-1.0556,0.6211,1.2033\C,0,-2.476
 6,1.4984,-0.6334\C,0,-2.6146,2.0807,-1.883\H,0,-3.356,1.2484,-0.0576\C
 ,0,-1.4808,2.3881,-2.6243\C,0,-0.2111,2.1285,-2.1253\H,0,-1.6062,2.843
 ,-3.5951\C,0,-0.0782,1.5507,-0.8741\C,0,1.0191,2.5068,-2.9094\H,0,0.90
 04,1.3279,-0.4768\C,0,-3.9923,2.3251,-2.4453\O,0,-0.0081,0.3869,1.7505
 \C,0,-5.5878,1.5264,-3.8781\C,0,-4.9697,2.7665,-4.557\N,0,-4.5833,1.08
 5,-2.9242\H,0,-5.8459,0.7335,-4.5769\N,0,-3.9713,3.2368,-3.5993\H,0,-5
 .7208,3.5229,-4.7941\C,0,3.3462,2.2493,-2.5312\C,0,2.9623,3.7196,-2.78
 84\N,0,2.0961,1.5176,-2.7197\H,0,3.6755,2.1176,-1.4934\N,0,1.5473,3.78
 67,-2.4604\H,0,3.0732,3.9609,-3.8504\H,0,2.1383,0.8664,-3.4915\H,0,0.7
 566,2.6157,-3.9762\H,0,1.4349,3.8507,-1.4519\H,0,-3.8667,0.5472,-3.404
 9\H,0,-4.116,4.1968,-3.3175\H,0,-4.6488,2.7062,-1.6406\H,0,-2.0206,0.3
 83,1.6956\H,0,-4.4578,2.4838,-5.4847\H,0,4.1404,1.9011,-3.1931\H,0,-6.
 4823,1.8097,-3.3146\H,0,3.5392,4.4302,-2.2002\\Version=ES64L-G16RevC.0
 1\State=1-A\HF=-795.5062317\MP2=-798.2021049\RMSD=9.447e-09\PG=C01 [X(
 C13H18N4O1)]\\@
 The archive entry for this job was punched.


 THE VALUE OF PHILOSOPHY IS, IN FACT, TO BE SOUGHT LARGELY IN ITS
 VERY UNCERTAINTY.  THE MAN WHO HAS NO TINCTURE OF PHILOSOPHY GOES
 THROUGH LIFE IMPRISONED IN THE PREJUDICES DERIVED FROM COMMON SENSE,
 FROM THE HABITUAL BELIEFS OF HIS AGE OR HIS NATION, AND FROM
 CONVICTIONS WHICH HAVE GROWN UP IN HIS MIND WITHOUT THE CO-OPERATION
 OR CONSENT OF HIS DELIBERATE REASON.  TO SUCH A MAN THE WORLD TENDS
 TO BE DEFINITE, FINITE, OBVIOUS; COMMON OBJECTS ROUSE NO QUESTIONS,
 AND UNFAMILIAR POSSIBILITIES ARE CONTEMPTUOUSLY REJECTED.

                             -- BERTRAND RUSSELL
 Job cpu time:       0 days  6 hours  8 minutes 31.5 seconds.
 Elapsed time:       0 days  0 hours 11 minutes 38.1 seconds.
 File lengths (MBytes):  RWF=  95040 Int=      0 D2E=      0 Chk=     32 Scr=     16
 Normal termination of Gaussian 16 at Tue Nov  2 18:39:00 2021.
