 Entering Gaussian System, Link 0=g16
 Initial command:
 /apps/gaussian/g16-c01-avx/g16/l1.exe "/rds/general/ephemeral/user/atarzia/ephemeral/xtb_spe_DFT/Gau-1758714.inp" -scrdir="/rds/general/ephemeral/user/atarzia/ephemeral/xtb_spe_DFT/"
 Entering Link 1 = /apps/gaussian/g16-c01-avx/g16/l1.exe PID=   1758716.
  
 Copyright (c) 1988-2019, Gaussian, Inc.  All Rights Reserved.
  
 This is part of the Gaussian(R) 16 program.  It is based on
 the Gaussian(R) 09 system (copyright 2009, Gaussian, Inc.),
 the Gaussian(R) 03 system (copyright 2003, Gaussian, Inc.),
 the Gaussian(R) 98 system (copyright 1998, Gaussian, Inc.),
 the Gaussian(R) 94 system (copyright 1995, Gaussian, Inc.),
 the Gaussian 92(TM) system (copyright 1992, Gaussian, Inc.),
 the Gaussian 90(TM) system (copyright 1990, Gaussian, Inc.),
 the Gaussian 88(TM) system (copyright 1988, Gaussian, Inc.),
 the Gaussian 86(TM) system (copyright 1986, Carnegie Mellon
 University), and the Gaussian 82(TM) system (copyright 1983,
 Carnegie Mellon University). Gaussian is a federally registered
 trademark of Gaussian, Inc.
  
 This software contains proprietary and confidential information,
 including trade secrets, belonging to Gaussian, Inc.
  
 This software is provided under written license and may be
 used, copied, transmitted, or stored only in accord with that
 written license.
  
 The following legend is applicable only to US Government
 contracts under FAR:
  
                    RESTRICTED RIGHTS LEGEND
  
 Use, reproduction and disclosure by the US Government is
 subject to restrictions as set forth in subparagraphs (a)
 and (c) of the Commercial Computer Software - Restricted
 Rights clause in FAR 52.227-19.
  
 Gaussian, Inc.
 340 Quinnipiac St., Bldg. 40, Wallingford CT 06492
  
  
 ---------------------------------------------------------------
 Warning -- This program may not be used in any manner that
 competes with the business of Gaussian, Inc. or will provide
 assistance to any competitor of Gaussian, Inc.  The licensee
 of this program is prohibited from giving any competitor of
 Gaussian, Inc. access to this program.  By using this program,
 the user acknowledges that Gaussian, Inc. is engaged in the
 business of creating and licensing software in the field of
 computational chemistry and represents and warrants to the
 licensee that it is not a competitor of Gaussian, Inc. and that
 it will not use this program in any manner prohibited above.
 ---------------------------------------------------------------
  

 Cite this work as:
 Gaussian 16, Revision C.01,
 M. J. Frisch, G. W. Trucks, H. B. Schlegel, G. E. Scuseria, 
 M. A. Robb, J. R. Cheeseman, G. Scalmani, V. Barone, 
 G. A. Petersson, H. Nakatsuji, X. Li, M. Caricato, A. V. Marenich, 
 J. Bloino, B. G. Janesko, R. Gomperts, B. Mennucci, H. P. Hratchian, 
 J. V. Ortiz, A. F. Izmaylov, J. L. Sonnenberg, D. Williams-Young, 
 F. Ding, F. Lipparini, F. Egidi, J. Goings, B. Peng, A. Petrone, 
 T. Henderson, D. Ranasinghe, V. G. Zakrzewski, J. Gao, N. Rega, 
 G. Zheng, W. Liang, M. Hada, M. Ehara, K. Toyota, R. Fukuda, 
 J. Hasegawa, M. Ishida, T. Nakajima, Y. Honda, O. Kitao, H. Nakai, 
 T. Vreven, K. Throssell, J. A. Montgomery, Jr., J. E. Peralta, 
 F. Ogliaro, M. J. Bearpark, J. J. Heyd, E. N. Brothers, K. N. Kudin, 
 V. N. Staroverov, T. A. Keith, R. Kobayashi, J. Normand, 
 K. Raghavachari, A. P. Rendell, J. C. Burant, S. S. Iyengar, 
 J. Tomasi, M. Cossi, J. M. Millam, M. Klene, C. Adamo, R. Cammi, 
 J. W. Ochterski, R. L. Martin, K. Morokuma, O. Farkas, 
 J. B. Foresman, and D. J. Fox, Gaussian, Inc., Wallingford CT, 2019.
 
 ******************************************
 Gaussian 16:  ES64L-G16RevC.01  3-Jul-2019
                25-Oct-2021 
 ******************************************
 %chk=_2_alde1_4_ami2_2_opt_dcm_mp2.chk
 %mem=60000mb
 %nprocshared=32
 Will use up to   32 processors via shared memory.
 ----------------------------------------------------------------------
 #P MP2/aug-cc-pVDZ SP SCF=(YQC,MaxCycle=900) int=(Grid=Superfinegrid) 
 SCRF=(PCM,Solvent=Dichloromethane)
 ----------------------------------------------------------------------
 1/38=1,172=1/1;
 2/12=2,17=6,18=5,40=1/2;
 3/5=16,7=10,11=9,25=1,30=1,70=2201,72=9,75=-7/1,2,3;
 4//1;
 5/5=2,7=900,8=4,13=1,38=1,53=9/8,2,8;
 8/10=1/1;
 9/16=-3/6;
 6/7=2,8=2,9=2,10=2/1;
 99/5=1,9=1/99;
 Leave Link    1 at Mon Oct 25 18:37:26 2021, MaxMem=  7864320000 cpu:               6.2 elap:               0.2
 (Enter /apps/gaussian/g16-c01-avx/g16/l101.exe)
 -----------------------------
 _2_alde1_4_ami2_2_opt_dcm_mp2
 -----------------------------
 Symbolic Z-matrix:
 Charge =  0 Multiplicity = 1
 C                    -3.9992   -2.1149   -1.8823 
 C                    -4.1306   -2.469    -0.4756 
 C                    -3.4057   -2.9911   -2.7828 
 C                    -3.1976   -2.6134   -4.1104 
 H                    -3.1006   -3.9799   -2.4758 
 C                    -3.5438   -1.3293   -4.5177 
 C                    -4.1394   -0.4397   -3.6249 
 H                    -3.3553   -0.9962   -5.527 
 C                    -4.3917   -0.8517   -2.3218 
 C                    -4.4218    0.937    -3.9985 
 H                    -4.8637   -0.19     -1.6133 
 C                    -2.6049   -3.543    -5.0609 
 H                    -4.99      1.5183   -3.2571 
 H                    -3.5407   -3.3392   -0.1479 
 C                    -2.2111    1.0061    0.174 
 C                    -3.3986    0.585     0.9064 
 C                    -2.3574    1.6889   -1.0278 
 C                    -1.2483    2.0022   -1.8122 
 H                    -3.3328    1.9664   -1.3946 
 C                     0.0206    1.6711   -1.3532 
 C                     0.1879    1.0263   -0.1266 
 H                     0.9015    1.9033   -1.9327 
 C                    -0.9319    0.6788    0.6208 
 C                     1.521     0.7078    0.363 
 H                    -0.8364    0.1483    1.5561 
 C                    -1.4195    2.6003   -3.1327 
 H                     1.5603    0.1623    1.3206 
 H                    -0.5175    2.5857   -3.7562 
 C                    -4.5057   -0.7687    2.4967 
 C                    -4.8181   -2.0806    1.7184 
 N                    -3.3266   -0.2152    1.8787 
 N                    -4.8378   -1.7956    0.322 
 C                    -1.6983   -5.6026   -5.6827 
 C                    -0.2942   -6.055    -5.1824 
 N                    -2.2916   -4.7211   -4.7356 
 N                    -0.3476   -6.611    -3.8417 
 C                    -4.147     2.8657   -5.2344 
 C                    -2.8102    3.554    -4.8253 
 N                    -3.9956    1.4561   -5.0675 
 N                    -2.534     3.0531   -3.5051 
 C                     4.4987    2.1112    0.7527 
 C                     3.848     0.7776    0.2692 
 N                     3.7257    2.7465    1.8048 
 N                     2.5607    1.0358   -0.2738 
 H                    -0.7395   -5.9216   -3.209 
 H                    -0.9548   -7.4236   -3.8223 
 H                     2.8011    2.991     1.4665 
 H                     3.6185    2.1247    2.5991 
 H                    -1.61     -5.1562   -6.6874 
 H                    -2.3391   -6.4894   -5.7452 
 H                    -5.8122   -2.4237    2.019 
 H                    -4.0762   -2.8523    1.9785 
 H                     3.8156    0.0719    1.119 
 H                     4.469     0.3571   -0.5251 
 C                     4.5952    3.0873   -0.4191 
 H                     5.2625    2.6998   -1.1836 
 H                     4.9737    4.0417   -0.0638 
 H                     3.612     3.236    -0.8572 
 C                     5.8897    1.8054    1.3093 
 H                     6.3383    2.7246    1.6753 
 H                     6.527     1.3807    0.5386 
 H                     5.8267    1.1007    2.1361 
 C                     0.6499   -4.8514   -5.1563 
 H                     1.615    -5.1591   -4.7643 
 H                     0.2481   -4.0706   -4.5139 
 H                     0.7843   -4.4474   -6.1565 
 C                     0.2476   -7.1273   -6.1284 
 H                    -0.4206   -7.9854   -6.1585 
 H                     1.2191   -7.4604   -5.7744 
 H                     0.3531   -6.7338   -7.136 
 C                    -1.7477    3.2669   -5.8901 
 H                    -1.5898    2.1944   -5.9755 
 H                    -0.8068    3.7552   -5.644 
 H                    -2.0862    3.6474   -6.85 
 H                    -4.3541    3.0785   -6.2848 
 H                    -4.9508    3.2739   -4.603 
 C                    -3.0435    5.0642   -4.7028 
 H                    -2.1062    5.5644   -4.4691 
 H                    -3.7514    5.2692   -3.9038 
 H                    -3.4337    5.4616   -5.6362 
 C                    -5.7467    0.132     2.469 
 H                    -5.4879    1.1394    2.7901 
 H                    -6.4983   -0.2668    3.1456 
 H                    -6.1712    0.1689    1.4695 
 C                    -4.1323   -1.1131    3.9405 
 H                    -3.1982   -1.6679    3.9562 
 H                    -4.9114   -1.7108    4.4071 
 H                    -3.9982   -0.1982    4.5125 
 H                    -2.4611   -3.1566   -6.082 
 H                    -4.3388    0.9862    0.5135 
 
 ITRead=  0  0  0  0  0  0  0  0  0  0  0  0  0  0  0  0  0  0  0  0
 ITRead=  0  0  0  0  0  0  0  0  0  0  0  0  0  0  0  0  0  0  0  0
 ITRead=  0  0  0  0  0  0  0  0  0  0  0  0  0  0  0  0  0  0  0  0
 ITRead=  0  0  0  0  0  0  0  0  0  0  0  0  0  0  0  0  0  0  0  0
 ITRead=  0  0  0  0  0  0  0  0  0  0
 MicOpt= -1 -1 -1 -1 -1 -1 -1 -1 -1 -1 -1 -1 -1 -1 -1 -1 -1 -1 -1 -1
 MicOpt= -1 -1 -1 -1 -1 -1 -1 -1 -1 -1 -1 -1 -1 -1 -1 -1 -1 -1 -1 -1
 MicOpt= -1 -1 -1 -1 -1 -1 -1 -1 -1 -1 -1 -1 -1 -1 -1 -1 -1 -1 -1 -1
 MicOpt= -1 -1 -1 -1 -1 -1 -1 -1 -1 -1 -1 -1 -1 -1 -1 -1 -1 -1 -1 -1
 MicOpt= -1 -1 -1 -1 -1 -1 -1 -1 -1 -1
 NAtoms=     90 NQM=       90 NQMF=       0 NMMI=      0 NMMIF=      0
                NMic=       0 NMicF=      0.
                    Isotopes and Nuclear Properties:
 (Nuclear quadrupole moments (NQMom) in fm**2, nuclear magnetic moments (NMagM)
  in nuclear magnetons)

  Atom         1           2           3           4           5           6           7           8           9          10
 IAtWgt=          12          12          12          12           1          12          12           1          12          12
 AtmWgt=  12.0000000  12.0000000  12.0000000  12.0000000   1.0078250  12.0000000  12.0000000   1.0078250  12.0000000  12.0000000
 NucSpn=           0           0           0           0           1           0           0           1           0           0
 AtZEff=  -0.0000000  -0.0000000  -0.0000000  -0.0000000  -0.0000000  -0.0000000  -0.0000000  -0.0000000  -0.0000000  -0.0000000
 NQMom=    0.0000000   0.0000000   0.0000000   0.0000000   0.0000000   0.0000000   0.0000000   0.0000000   0.0000000   0.0000000
 NMagM=    0.0000000   0.0000000   0.0000000   0.0000000   2.7928460   0.0000000   0.0000000   2.7928460   0.0000000   0.0000000
 AtZNuc=   6.0000000   6.0000000   6.0000000   6.0000000   1.0000000   6.0000000   6.0000000   1.0000000   6.0000000   6.0000000

  Atom        11          12          13          14          15          16          17          18          19          20
 IAtWgt=           1          12           1           1          12          12          12          12           1          12
 AtmWgt=   1.0078250  12.0000000   1.0078250   1.0078250  12.0000000  12.0000000  12.0000000  12.0000000   1.0078250  12.0000000
 NucSpn=           1           0           1           1           0           0           0           0           1           0
 AtZEff=  -0.0000000  -0.0000000  -0.0000000  -0.0000000  -0.0000000  -0.0000000  -0.0000000  -0.0000000  -0.0000000  -0.0000000
 NQMom=    0.0000000   0.0000000   0.0000000   0.0000000   0.0000000   0.0000000   0.0000000   0.0000000   0.0000000   0.0000000
 NMagM=    2.7928460   0.0000000   2.7928460   2.7928460   0.0000000   0.0000000   0.0000000   0.0000000   2.7928460   0.0000000
 AtZNuc=   1.0000000   6.0000000   1.0000000   1.0000000   6.0000000   6.0000000   6.0000000   6.0000000   1.0000000   6.0000000

  Atom        21          22          23          24          25          26          27          28          29          30
 IAtWgt=          12           1          12          12           1          12           1           1          12          12
 AtmWgt=  12.0000000   1.0078250  12.0000000  12.0000000   1.0078250  12.0000000   1.0078250   1.0078250  12.0000000  12.0000000
 NucSpn=           0           1           0           0           1           0           1           1           0           0
 AtZEff=  -0.0000000  -0.0000000  -0.0000000  -0.0000000  -0.0000000  -0.0000000  -0.0000000  -0.0000000  -0.0000000  -0.0000000
 NQMom=    0.0000000   0.0000000   0.0000000   0.0000000   0.0000000   0.0000000   0.0000000   0.0000000   0.0000000   0.0000000
 NMagM=    0.0000000   2.7928460   0.0000000   0.0000000   2.7928460   0.0000000   2.7928460   2.7928460   0.0000000   0.0000000
 AtZNuc=   6.0000000   1.0000000   6.0000000   6.0000000   1.0000000   6.0000000   1.0000000   1.0000000   6.0000000   6.0000000

  Atom        31          32          33          34          35          36          37          38          39          40
 IAtWgt=          14          14          12          12          14          14          12          12          14          14
 AtmWgt=  14.0030740  14.0030740  12.0000000  12.0000000  14.0030740  14.0030740  12.0000000  12.0000000  14.0030740  14.0030740
 NucSpn=           2           2           0           0           2           2           0           0           2           2
 AtZEff=  -0.0000000  -0.0000000  -0.0000000  -0.0000000  -0.0000000  -0.0000000  -0.0000000  -0.0000000  -0.0000000  -0.0000000
 NQMom=    2.0440000   2.0440000   0.0000000   0.0000000   2.0440000   2.0440000   0.0000000   0.0000000   2.0440000   2.0440000
 NMagM=    0.4037610   0.4037610   0.0000000   0.0000000   0.4037610   0.4037610   0.0000000   0.0000000   0.4037610   0.4037610
 AtZNuc=   7.0000000   7.0000000   6.0000000   6.0000000   7.0000000   7.0000000   6.0000000   6.0000000   7.0000000   7.0000000

  Atom        41          42          43          44          45          46          47          48          49          50
 IAtWgt=          12          12          14          14           1           1           1           1           1           1
 AtmWgt=  12.0000000  12.0000000  14.0030740  14.0030740   1.0078250   1.0078250   1.0078250   1.0078250   1.0078250   1.0078250
 NucSpn=           0           0           2           2           1           1           1           1           1           1
 AtZEff=  -0.0000000  -0.0000000  -0.0000000  -0.0000000  -0.0000000  -0.0000000  -0.0000000  -0.0000000  -0.0000000  -0.0000000
 NQMom=    0.0000000   0.0000000   2.0440000   2.0440000   0.0000000   0.0000000   0.0000000   0.0000000   0.0000000   0.0000000
 NMagM=    0.0000000   0.0000000   0.4037610   0.4037610   2.7928460   2.7928460   2.7928460   2.7928460   2.7928460   2.7928460
 AtZNuc=   6.0000000   6.0000000   7.0000000   7.0000000   1.0000000   1.0000000   1.0000000   1.0000000   1.0000000   1.0000000

  Atom        51          52          53          54          55          56          57          58          59          60
 IAtWgt=           1           1           1           1          12           1           1           1          12           1
 AtmWgt=   1.0078250   1.0078250   1.0078250   1.0078250  12.0000000   1.0078250   1.0078250   1.0078250  12.0000000   1.0078250
 NucSpn=           1           1           1           1           0           1           1           1           0           1
 AtZEff=  -0.0000000  -0.0000000  -0.0000000  -0.0000000  -0.0000000  -0.0000000  -0.0000000  -0.0000000  -0.0000000  -0.0000000
 NQMom=    0.0000000   0.0000000   0.0000000   0.0000000   0.0000000   0.0000000   0.0000000   0.0000000   0.0000000   0.0000000
 NMagM=    2.7928460   2.7928460   2.7928460   2.7928460   0.0000000   2.7928460   2.7928460   2.7928460   0.0000000   2.7928460
 AtZNuc=   1.0000000   1.0000000   1.0000000   1.0000000   6.0000000   1.0000000   1.0000000   1.0000000   6.0000000   1.0000000

  Atom        61          62          63          64          65          66          67          68          69          70
 IAtWgt=           1           1          12           1           1           1          12           1           1           1
 AtmWgt=   1.0078250   1.0078250  12.0000000   1.0078250   1.0078250   1.0078250  12.0000000   1.0078250   1.0078250   1.0078250
 NucSpn=           1           1           0           1           1           1           0           1           1           1
 AtZEff=  -0.0000000  -0.0000000  -0.0000000  -0.0000000  -0.0000000  -0.0000000  -0.0000000  -0.0000000  -0.0000000  -0.0000000
 NQMom=    0.0000000   0.0000000   0.0000000   0.0000000   0.0000000   0.0000000   0.0000000   0.0000000   0.0000000   0.0000000
 NMagM=    2.7928460   2.7928460   0.0000000   2.7928460   2.7928460   2.7928460   0.0000000   2.7928460   2.7928460   2.7928460
 AtZNuc=   1.0000000   1.0000000   6.0000000   1.0000000   1.0000000   1.0000000   6.0000000   1.0000000   1.0000000   1.0000000

  Atom        71          72          73          74          75          76          77          78          79          80
 IAtWgt=          12           1           1           1           1           1          12           1           1           1
 AtmWgt=  12.0000000   1.0078250   1.0078250   1.0078250   1.0078250   1.0078250  12.0000000   1.0078250   1.0078250   1.0078250
 NucSpn=           0           1           1           1           1           1           0           1           1           1
 AtZEff=  -0.0000000  -0.0000000  -0.0000000  -0.0000000  -0.0000000  -0.0000000  -0.0000000  -0.0000000  -0.0000000  -0.0000000
 NQMom=    0.0000000   0.0000000   0.0000000   0.0000000   0.0000000   0.0000000   0.0000000   0.0000000   0.0000000   0.0000000
 NMagM=    0.0000000   2.7928460   2.7928460   2.7928460   2.7928460   2.7928460   0.0000000   2.7928460   2.7928460   2.7928460
 AtZNuc=   6.0000000   1.0000000   1.0000000   1.0000000   1.0000000   1.0000000   6.0000000   1.0000000   1.0000000   1.0000000

  Atom        81          82          83          84          85          86          87          88          89          90
 IAtWgt=          12           1           1           1          12           1           1           1           1           1
 AtmWgt=  12.0000000   1.0078250   1.0078250   1.0078250  12.0000000   1.0078250   1.0078250   1.0078250   1.0078250   1.0078250
 NucSpn=           0           1           1           1           0           1           1           1           1           1
 AtZEff=  -0.0000000  -0.0000000  -0.0000000  -0.0000000  -0.0000000  -0.0000000  -0.0000000  -0.0000000  -0.0000000  -0.0000000
 NQMom=    0.0000000   0.0000000   0.0000000   0.0000000   0.0000000   0.0000000   0.0000000   0.0000000   0.0000000   0.0000000
 NMagM=    0.0000000   2.7928460   2.7928460   2.7928460   0.0000000   2.7928460   2.7928460   2.7928460   2.7928460   2.7928460
 AtZNuc=   6.0000000   1.0000000   1.0000000   1.0000000   6.0000000   1.0000000   1.0000000   1.0000000   1.0000000   1.0000000
 Leave Link  101 at Mon Oct 25 18:37:27 2021, MaxMem=  7864320000 cpu:               2.8 elap:               0.1
 (Enter /apps/gaussian/g16-c01-avx/g16/l202.exe)
 Stoichiometry    C34H48N8
 Framework group  C1[X(C34H48N8)]
 Deg. of freedom   264
 Full point group                 C1      NOp   1
 Largest Abelian subgroup         C1      NOp   1
 Largest concise Abelian subgroup C1      NOp   1
                         Standard orientation:                         
 ---------------------------------------------------------------------
 Center     Atomic      Atomic             Coordinates (Angstroms)
 Number     Number       Type             X           Y           Z
 ---------------------------------------------------------------------
      1          6           0       -2.436857   -1.447134   -1.149762
      2          6           0       -1.973667   -1.793561   -2.486512
      3          6           0       -3.241430   -0.333160   -0.943384
      4          6           0       -3.608179    0.049707    0.347892
      5          1           0       -3.602408    0.252354   -1.775207
      6          6           0       -3.119935   -0.664627    1.436931
      7          6           0       -2.311421   -1.783813    1.244715
      8          1           0       -3.352684   -0.365675    2.447687
      9          6           0       -2.002881   -2.184914   -0.049654
     10          6           0       -1.710595   -2.488837    2.365688
     11          1           0       -1.391223   -3.054571   -0.229024
     12          6           0       -4.476987    1.197937    0.561527
     13          1           0       -1.182431   -3.418833    2.107648
     14          1           0       -2.104582   -1.012519   -3.251661
     15          6           0        1.685618   -1.695475   -0.818341
     16          6           0        1.224038   -2.758695   -1.701743
     17          6           0        1.425004   -1.779670    0.544353
     18          6           0        1.746549   -0.727495    1.400553
     19          1           0        0.942903   -2.647378    0.965797
     20          6           0        2.384232    0.394040    0.884865
     21          6           0        2.694538    0.474600   -0.473636
     22          1           0        2.652021    1.224870    1.520265
     23          6           0        2.324209   -0.563219   -1.321635
     24          6           0        3.388590    1.639025   -1.003459
     25          1           0        2.518768   -0.514110   -2.382329
     26          6           0        1.351099   -0.767523    2.805106
     27          1           0        3.557918    1.639114   -2.093157
     28          1           0        1.436253    0.193452    3.326495
     29          6           0        0.632425   -3.602517   -3.828991
     30          6           0       -0.841135   -3.136927   -4.019446
     31          7           0        1.243019   -2.630762   -2.956392
     32          7           0       -1.418977   -2.897408   -2.738713
     33          6           0       -5.787223    2.990785   -0.159228
     34          6           0       -5.144582    4.268688   -0.776025
     35          7           0       -4.953459    1.862418   -0.399377
     36          7           0       -4.817845    4.089847   -2.179849
     37          6           0       -0.934285   -2.700291    4.527972
     38          6           0        0.406091   -1.918967    4.673160
     39          7           0       -1.733896   -2.041421    3.546004
     40          7           0        0.918597   -1.826397    3.331935
     41          6           0        6.000433    3.570989   -0.344758
     42          6           0        4.509665    3.670921   -0.795642
     43          7           0        6.636368    2.357194   -0.824692
     44          7           0        3.767323    2.585209   -0.258227
     45          1           0       -4.189962    3.299228   -2.279103
     46          1           0       -5.656417    3.882761   -2.712107
     47          1           0        6.171827    1.539685   -0.443912
     48          1           0        6.593460    2.303584   -1.836781
     49          1           0       -5.988400    3.154986    0.912713
     50          1           0       -6.737542    2.806195   -0.672809
     51          1           0       -1.391913   -3.947506   -4.505160
     52          1           0       -0.868176   -2.244827   -4.665212
     53          1           0        4.475863    3.701921   -1.899779
     54          1           0        4.088073    4.596065   -0.395963
     55          6           0        6.074141    3.572351    1.181598
     56          1           0        5.713781    4.516679    1.579456
     57          1           0        7.103959    3.422115    1.493500
     58          1           0        5.461216    2.768994    1.581180
     59          6           0        6.767772    4.763051   -0.917800
     60          1           0        7.813245    4.685530   -0.633012
     61          1           0        6.364085    5.697862   -0.538768
     62          1           0        6.707295    4.773014   -2.004268
     63          6           0       -3.850923    4.599927   -0.029442
     64          1           0       -3.380679    5.464142   -0.489621
     65          1           0       -3.160015    3.761043   -0.081319
     66          1           0       -4.056357    4.820421    1.015000
     67          6           0       -6.133119    5.429001   -0.654548
     68          1           0       -7.059344    5.200187   -1.177505
     69          1           0       -5.697923    6.319230   -1.099723
     70          1           0       -6.363746    5.630445    0.388267
     71          6           0        0.141254   -0.589628    5.385795
     72          1           0       -0.562577    0.005635    4.808937
     73          1           0        1.064430   -0.030101    5.523535
     74          1           0       -0.286771   -0.783949    6.365491
     75          1           0       -1.462958   -2.687646    5.482886
     76          1           0       -0.698486   -3.736910    4.243002
     77          6           0        1.393097   -2.767347    5.483227
     78          1           0        2.315893   -2.212484    5.637891
     79          1           0        1.627883   -3.682460    4.945647
     80          1           0        0.966127   -3.020793    6.450120
     81          6           0        0.633501   -5.045316   -3.308955
     82          1           0        1.623023   -5.312592   -2.942422
     83          1           0        0.367338   -5.721463   -4.117481
     84          1           0       -0.092714   -5.165127   -2.509693
     85          6           0        1.366489   -3.521269   -5.169568
     86          1           0        1.447089   -2.483785   -5.482175
     87          1           0        0.836232   -4.084933   -5.933157
     88          1           0        2.369621   -3.927012   -5.063224
     89          1           0       -4.701338    1.439351    1.612248
     90          1           0        0.829280   -3.638764   -1.183137
 ---------------------------------------------------------------------
 Rotational constants (GHZ):           0.0620367           0.0480603           0.0444789
 Leave Link  202 at Mon Oct 25 18:37:27 2021, MaxMem=  7864320000 cpu:               0.3 elap:               0.0
 (Enter /apps/gaussian/g16-c01-avx/g16/l301.exe)
 Standard basis: Aug-CC-pVDZ (5D, 7F)
 Ernie: Thresh=  0.10000D-02 Tol=  0.10000D-05 Strict=F.
 Ernie:  84 primitive shells out of 1386 were deleted.
 There are  1482 symmetry adapted cartesian basis functions of A   symmetry.
 There are  1398 symmetry adapted basis functions of A   symmetry.
  1398 basis functions,  2334 primitive gaussians,  1482 cartesian basis functions
   154 alpha electrons      154 beta electrons
       nuclear repulsion energy      4870.6874585152 Hartrees.
 IExCor=    0 DFT=F Ex=HF Corr=None ExCW=0 ScaHFX=  1.000000
 ScaDFX=  1.000000  1.000000  1.000000  1.000000 ScalE2=  1.000000  1.000000
 IRadAn=      7 IRanWt=     -1 IRanGd=            0 ICorTp=0 IEmpDi=  4
 NAtoms=   90 NActive=   90 NUniq=   90 SFac= 1.00D+00 NAtFMM=   60 NAOKFM=T Big=T
 Integral buffers will be    131072 words long.
 Raffenetti 1 integral format.
 Two-electron integral symmetry is turned on.
 ------------------------------------------------------------------------------
 Polarizable Continuum Model (PCM)
 =================================
 Model                : PCM.
 Atomic radii         : UFF (Universal Force Field).
 Polarization charges : Total charges.
 Charge compensation  : None.
 Solution method      : On-the-fly selection.
 Cavity type          : Scaled VdW (van der Waals Surface) (Alpha=1.100).
 Cavity algorithm     : GePol (No added spheres)
                        Default sphere list used, NSphG=   90.
                        Lebedev-Laikov grids with approx.  5.0 points / Ang**2.
                        Smoothing algorithm: York/Karplus (Gamma=1.0000).
                        Polarization charges: spherical gaussians, with
                                              point-specific exponents (IZeta= 3).
                        Self-potential: point-specific (ISelfS= 7).
                        Self-field    : sphere-specific E.n sum rule (ISelfD= 2).
 Solvent              : Dichloromethane, Eps=   8.930000 Eps(inf)=   2.028346
 ------------------------------------------------------------------------------
 GePol: Number of generator spheres                  =      90
 GePol: Total number of spheres                      =      90
 GePol: Number of exposed spheres                    =      90 (100.00%)
 GePol: Number of points                             =    5494
 GePol: Average weight of points                     =       0.13
 GePol: Minimum weight of points                     =   0.11D-11
 GePol: Maximum weight of points                     =    0.20577
 GePol: Number of points with low weight             =     404
 GePol: Fraction of low-weight points (<1% of avg)   =       7.35%
 GePol: Cavity surface area                          =    729.053 Ang**2
 GePol: Cavity volume                                =    854.470 Ang**3
 Leave Link  301 at Mon Oct 25 18:37:28 2021, MaxMem=  7864320000 cpu:               4.3 elap:               0.2
 (Enter /apps/gaussian/g16-c01-avx/g16/l302.exe)
 NPDir=0 NMtPBC=     1 NCelOv=     1 NCel=       1 NClECP=     1 NCelD=      1
         NCelK=      1 NCelE2=     1 NClLst=     1 CellRange=     0.0.
 One-electron integrals computed using PRISM.
 One-electron integral symmetry used in STVInt
 NBasis=  1398 RedAO= T EigKep=  1.01D-06  NBF=  1398
 NBsUse=  1391 1.00D-06 EigRej=  8.23D-07 NBFU=  1391
 Leave Link  302 at Mon Oct 25 18:37:33 2021, MaxMem=  7864320000 cpu:             116.3 elap:               3.7
 (Enter /apps/gaussian/g16-c01-avx/g16/l303.exe)
 DipDrv:  MaxL=1.
 Leave Link  303 at Mon Oct 25 18:37:33 2021, MaxMem=  7864320000 cpu:              14.6 elap:               0.6
 (Enter /apps/gaussian/g16-c01-avx/g16/l401.exe)
 ExpMin= 2.97D-02 ExpMax= 9.05D+03 ExpMxC= 3.09D+02 IAcc=3 IRadAn=         7 AccDes= 0.00D+00
 Harris functional with IExCor=  205 and IRadAn=       7 diagonalized for initial guess.
 HarFok:  IExCor=  205 AccDes= 0.00D+00 IRadAn=         7 IDoV= 1 UseB2=F ITyADJ=14
 ICtDFT=  3500011 ScaDFX=  1.000000  1.000000  1.000000  1.000000
 FoFCou: FMM=F IPFlag=           0 FMFlag=      100000 FMFlg1=        2001
         NFxFlg=           0 DoJE=T BraDBF=F KetDBF=T FulRan=T
         wScrn=  0.000000 ICntrl=       500 IOpCl=  0 I1Cent=   200000004 NGrid=           0
         NMat0=    1 NMatS0=      1 NMatT0=    0 NMatD0=    1 NMtDS0=    0 NMtDT0=    0
 Petite list used in FoFCou.
 Harris En= -1753.91470480129    
 JPrj=0 DoOrth=F DoCkMO=F.
 Leave Link  401 at Mon Oct 25 18:37:51 2021, MaxMem=  7864320000 cpu:             563.4 elap:              17.7
 (Enter /apps/gaussian/g16-c01-avx/g16/l508.exe)
 Integral symmetry usage will be decided dynamically.
 Tight linear equation convergence will be used.
 RHF wavefunction.
 Linear searches until partial convergence.
 Full line searches.
 Fock matrices will be formed incrementally for  20 cycles.
 Inv3:  Mode=1 IEnd=    90552108.
 Iteration    1 A*A^-1 deviation from unit magnitude is 1.20D-14 for   5493.
 Iteration    1 A*A^-1 deviation from orthogonality  is 4.06D-15 for   4460   4062.
 Iteration    1 A^-1*A deviation from unit magnitude is 1.20D-14 for   5493.
 Iteration    1 A^-1*A deviation from orthogonality  is 1.29D-12 for   5097   5071.
 FoFJK:  IHMeth= 1 ICntrl=       0 DoSepK=F KAlg= 0 I1Cent=           0 FoldK=F
 IRaf= 990000000 NMat=       1 IRICut=       1 DoRegI=T DoRafI=F ISym2E= 1 IDoP0=0 IntGTp=1.
 Iteration   1 EE= -1749.49746295071                                    Grad=2.058D+00 Max rot=    2.3836 deg.
 Gradient too large for Newton-Raphson -- use scaled steepest descent instead.
 Alpha Gap=     0.413 HL deriv= 1.47D-03
     ILin= 1 X=0.000D+00 Y=-1.749497462951D+03 DE= 0.00D+00 F= -5.31D+00
 RMSU=  8.08D-03    CP:  7.97D-01
     ILin= 2 X=3.000D-01 Y=-1.750693260641D+03 DE=-1.20D+00 F= -2.66D+00 OKLS=F
 RMSU=  1.53D-03    CP:  6.87D-01  1.51D+00
     ILin= 3 X=5.000D-01 Y=-1.751047123189D+03 DE=-1.55D+00 F= -8.80D-01
 RMSU=  3.66D-03    CP:  5.30D-01  2.15D+00  3.00D+00
     ILin= 4 X=9.000D-01 Y=-1.750692019099D+03 DE=-1.19D+00 F=  2.64D+00
     An  expanding polynomial of degree  4 produced  0.5997
 RMSU=  3.84D-06    CP:  6.40D-01  1.72D+00  1.80D+00  1.27D-05
 Iteration   2 EE= -1751.09075776912     Delta-E=       -1.593294818416 Grad=6.743D-01 Max rot=    1.0266 deg.
 Gradient too large for Newton-Raphson -- use scaled steepest descent instead.
 Alpha Gap=     0.441 HL deriv= 1.42D-03
     ILin= 1 X=0.000D+00 Y=-1.751090757769D+03 DE= 0.00D+00 F= -2.51D-01
 RMSU=  1.73D-03    CP:  5.79D-01  1.85D+00  3.00D+00  2.40D-03  3.00D+00
     ILin= 2 X=4.000D-01 Y=-1.751167287150D+03 DE=-7.65D-02 F= -1.32D-01 OKLS=F
 RMSU=  3.05D-04    CP:  5.28D-01  1.94D+00  3.00D+00  6.28D-01  3.00D+00
                    CP:  1.94D+00
     ILin= 3 X=8.000D-01 Y=-1.751196198267D+03 DE=-1.05D-01 F= -1.29D-02
 RMSU=  1.89D-03    CP:  4.47D-01  2.02D+00  3.00D+00  2.47D+00  3.00D+00
                    CP:  3.00D+00  3.00D+00
     ILin= 4 X=1.700D+00 Y=-1.751088065004D+03 DE= 2.69D-03 F=  2.53D-01
     An  expanding polynomial of degree  4 produced  0.8435
     Minimum is close to point  3 DX=  4.35D-02 DF= -2.81D-04 DXR=  5.16D-02 DFR=  2.66D-03 which will be used.
 Iteration   3 EE= -1751.19619826740     Delta-E=       -0.105440498275 Grad=1.912D-01 Max rot=    0.2989 deg.
 Gradient too large for Newton-Raphson -- use scaled steepest descent instead.
 Alpha Gap=     0.433 HL deriv= 1.15D-03
     ILin= 1 X=0.000D+00 Y=-1.751196198267D+03 DE= 0.00D+00 F= -3.39D-02
 RMSU=  8.45D-04    CP:  5.05D-01  1.94D+00  3.00D+00  9.50D-01  3.00D+00
                    CP:  2.25D+00  1.67D+00 -2.49D-03
     ILin= 2 X=7.000D-01 Y=-1.751208695217D+03 DE=-1.25D-02 F= -1.76D-03 OKLS=T
     Reject lnstep IMin12=  1  2 Big=T Turn=F Min= 1.290D+00 FVal=-1.751209475951D+03 Lims=  0.00D+00  7.00D-01
 RMSU=  8.86D-05    CP:  4.84D-01  1.93D+00  3.00D+00  1.29D+00 -3.00D+00
                    CP:  2.55D+00  2.47D+00 -4.23D-03  1.94D+00
     ILin= 3 X=1.400D+00 Y=-1.751198664505D+03 DE=-2.47D-03 F=  3.04D-02
     An  expanding polynomial of degree  3 produced  0.7383
     Minimum is close to point  2 DX=  3.83D-02 DF= -3.37D-05 DXR=  5.19D-02 DFR=  2.70D-03 which will be used.
 Iteration   4 EE= -1751.20869521741     Delta-E=       -0.012496950009 Grad=7.290D-02 Max rot=    0.1910 deg.
 Gradient too large for Newton-Raphson -- use scaled steepest descent instead.
 Alpha Gap=     0.440 HL deriv= 3.95D-04
     ILin= 1 X=0.000D+00 Y=-1.751208695217D+03 DE= 0.00D+00 F= -5.40D-03
 RMSU=  3.03D-04    CP:  4.93D-01  1.93D+00  3.00D+00  1.05D+00  3.00D+00
                    CP:  2.43D+00  2.00D+00 -2.30D-03  1.29D+00  9.01D-01
     ILin= 2 X=8.000D-01 Y=-1.751211003904D+03 DE=-2.31D-03 F= -3.73D-04 OKLS=T
     Reject lnstep IMin12=  1  2 Big=T Turn=F Min= 1.005D+00 FVal=-1.751211046386D+03 Lims=  0.00D+00  8.00D-01
 RMSU=  1.74D-05    CP:  4.81D-01  1.91D+00  3.00D+00  1.15D+00  3.00D+00
                    CP:  2.60D+00  2.38D+00 -2.04D-03  1.57D+00  1.93D+00
                    CP:  1.99D+00
     ILin= 3 X=1.600D+00 Y=-1.751209297428D+03 DE=-6.02D-04 F=  4.64D-03
     An  expanding polynomial of degree  3 produced  0.8600
     Minimum is close to point  2 DX=  6.00D-02 DF= -1.13D-05 DXR=  6.98D-02 DFR=  4.89D-03 which will be used.
 Iteration   5 EE= -1751.21100390442     Delta-E=       -0.002308687011 Grad=2.890D-02 Max rot=    0.0990 deg.
 Gradient too large for Newton-Raphson -- use scaled steepest descent instead.
 Alpha Gap=     0.439 HL deriv= 2.06D-04
     ILin= 1 X=0.000D+00 Y=-1.751211003904D+03 DE= 0.00D+00 F= -1.28D-03
 RMSU=  7.92D-05    CP:  4.89D-01  1.92D+00  3.00D+00  1.08D+00  3.00D+00
                    CP:  2.48D+00  2.13D+00 -2.51D-03  1.55D+00  1.31D+00
                    CP:  1.20D+00 -2.95D-01
     ILin= 2 X=8.000D-01 Y=-1.751211492873D+03 DE=-4.89D-04 F=  5.79D-05 OKLS=T
     Accept linear search using points  1 and  2.
     An  expanding polynomial of degree  2 produced  0.7354
     Minimum is close to point  2 DX= -6.46D-02 DF= -2.38D-06 DXR=  8.78D-02 DFR=  4.87D-03 which will be used.
 Iteration   6 EE= -1751.21149287334     Delta-E=       -0.000488968916 Grad=1.431D-02 Max rot=    0.0603 deg.
 Gradient too large for Newton-Raphson -- use scaled steepest descent instead.
 Alpha Gap=     0.441 HL deriv= 2.80D-04
     ILin= 1 X=0.000D+00 Y=-1.751211492873D+03 DE= 0.00D+00 F= -3.85D-04
 RMSU=  2.68D-05    CP:  4.88D-01  1.91D+00  3.00D+00  1.08D+00  3.00D+00
                    CP:  2.49D+00  2.15D+00 -2.44D-03  1.61D+00  1.52D+00
                    CP:  1.49D+00 -4.12D-01  1.24D+00
     ILin= 2 X=8.000D-01 Y=-1.751211624455D+03 DE=-1.32D-04 F=  5.60D-05 OKLS=T
     Accept linear search using points  1 and  2.
     An  expanding polynomial of degree  2 produced  0.6450
 RMSU=  4.61D-08    CP:  4.88D-01  1.91D+00  3.00D+00  1.08D+00  3.00D+00
                    CP:  2.49D+00  2.15D+00 -2.46D-03  1.59D+00  1.48D+00
                    CP:  1.44D+00 -3.94D-01  1.19D+00  8.07D-01
 Iteration   7 EE= -1751.21162651872     Delta-E=       -0.000133645389 Grad=6.537D-03 Max rot=    0.0352 deg.
 SCF Done:  E(RHF) =  -1751.21162652     a.u. after    7 cycles
            Convg  =    0.6537D-02                    15 Fock formations.
              S**2 =  0.0000                  -V/T =  2.0003
 Leave Link  508 at Mon Oct 25 19:14:27 2021, MaxMem=  7864320000 cpu:           69551.8 elap:            2195.6
 (Enter /apps/gaussian/g16-c01-avx/g16/l502.exe)
 Integral symmetry usage will be decided dynamically.
 Closed shell SCF:
 Using DIIS extrapolation, IDIIS=  1040.
 NGot=  7864320000 LenX=  7859863994 LenY=  7857666188
 Requested convergence on RMS density matrix=1.00D-08 within 128 cycles.
 Requested convergence on MAX density matrix=1.00D-06.
 Requested convergence on             energy=1.00D-06.
 No special actions if energy rises.
 Fock matrices will be formed incrementally for  20 cycles.

 Cycle   1  Pass 1  IDiag  1:
 FoFJK:  IHMeth= 1 ICntrl=       0 DoSepK=F KAlg= 0 I1Cent=           0 FoldK=F
 IRaf= 990000000 NMat=       1 IRICut=       1 DoRegI=T DoRafI=F ISym2E= 0 IDoP0=0 IntGTp=1.
 FoFCou: FMM=T IPFlag=           0 FMFlag=      100000 FMFlg1=        2001
         NFxFlg=           0 DoJE=F BraDBF=F KetDBF=F FulRan=T
         wScrn=  0.000000 ICntrl=         0 IOpCl=  0 I1Cent=           0 NGrid=           0
         NMat0=    1 NMatS0=      1 NMatT0=    0 NMatD0=    1 NMtDS0=    0 NMtDT0=    0
 Symmetry not used in FoFCou.
 FMM levels:  10  Number of levels for PrismC:   9
 E= -1751.21162651233    
 DIIS: error= 6.42D-05 at cycle   1 NSaved=   1.
 NSaved= 1 IEnMin= 1 EnMin= -1751.21162651233     IErMin= 1 ErrMin= 6.42D-05
 ErrMax= 6.42D-05  0.00D+00 EMaxC= 1.00D-01 BMatC= 2.14D-05 BMatP= 2.14D-05
 IDIUse=1 WtCom= 1.00D+00 WtEn= 0.00D+00
 Coeff-Com:  0.100D+01
 Coeff:      0.100D+01
 Gap=     0.440 Goal=   None    Shift=    0.000
 RMSDP=1.19D-04 MaxDP=2.59D-02              OVMax= 2.00D-03

 Cycle   2  Pass 1  IDiag  1:
 RMSU=  1.03D-04    CP:  9.99D-01
 E= -1751.21167757850     Delta-E=       -0.000051066166 Rises=F Damp=F
 DIIS: error= 2.73D-05 at cycle   2 NSaved=   2.
 NSaved= 2 IEnMin= 2 EnMin= -1751.21167757850     IErMin= 2 ErrMin= 2.73D-05
 ErrMax= 2.73D-05  0.00D+00 EMaxC= 1.00D-01 BMatC= 5.52D-06 BMatP= 2.14D-05
 IDIUse=1 WtCom= 1.00D+00 WtEn= 0.00D+00
 Coeff-Com:  0.189D+00 0.811D+00
 Coeff:      0.189D+00 0.811D+00
 Gap=     0.351 Goal=   None    Shift=    0.000
 RMSDP=2.97D-05 MaxDP=5.59D-03 DE=-5.11D-05 OVMax= 9.16D-04

 Cycle   3  Pass 1  IDiag  1:
 RMSU=  1.93D-05    CP:  9.98D-01  1.15D+00
 E= -1751.21168898554     Delta-E=       -0.000011407036 Rises=F Damp=F
 DIIS: error= 1.90D-05 at cycle   3 NSaved=   3.
 NSaved= 3 IEnMin= 3 EnMin= -1751.21168898554     IErMin= 3 ErrMin= 1.90D-05
 ErrMax= 1.90D-05  0.00D+00 EMaxC= 1.00D-01 BMatC= 1.79D-06 BMatP= 5.52D-06
 IDIUse=1 WtCom= 1.00D+00 WtEn= 0.00D+00
 Coeff-Com: -0.244D+00 0.155D+00 0.109D+01
 Coeff:     -0.244D+00 0.155D+00 0.109D+01
 Gap=     0.351 Goal=   None    Shift=    0.000
 RMSDP=2.32D-05 MaxDP=4.31D-03 DE=-1.14D-05 OVMax= 9.83D-04

 Cycle   4  Pass 1  IDiag  1:
 RMSU=  1.34D-05    CP:  9.98D-01  1.32D+00  1.36D+00
 E= -1751.21169504189     Delta-E=       -0.000006056353 Rises=F Damp=F
 DIIS: error= 7.89D-06 at cycle   4 NSaved=   4.
 NSaved= 4 IEnMin= 4 EnMin= -1751.21169504189     IErMin= 4 ErrMin= 7.89D-06
 ErrMax= 7.89D-06  0.00D+00 EMaxC= 1.00D-01 BMatC= 2.12D-07 BMatP= 1.79D-06
 IDIUse=1 WtCom= 1.00D+00 WtEn= 0.00D+00
 Coeff-Com:  0.513D-01-0.933D-01-0.342D+00 0.138D+01
 Coeff:      0.513D-01-0.933D-01-0.342D+00 0.138D+01
 Gap=     0.351 Goal=   None    Shift=    0.000
 RMSDP=1.07D-05 MaxDP=1.54D-03 DE=-6.06D-06 OVMax= 5.91D-04

 Cycle   5  Pass 1  IDiag  1:
 RMSU=  4.77D-06    CP:  9.98D-01  1.34D+00  1.59D+00  1.59D+00
 E= -1751.21169643497     Delta-E=       -0.000001393081 Rises=F Damp=F
 DIIS: error= 4.10D-06 at cycle   5 NSaved=   5.
 NSaved= 5 IEnMin= 5 EnMin= -1751.21169643497     IErMin= 5 ErrMin= 4.10D-06
 ErrMax= 4.10D-06  0.00D+00 EMaxC= 1.00D-01 BMatC= 8.33D-08 BMatP= 2.12D-07
 IDIUse=1 WtCom= 1.00D+00 WtEn= 0.00D+00
 Coeff-Com:  0.921D-01-0.622D-01-0.461D+00 0.377D+00 0.105D+01
 Coeff:      0.921D-01-0.622D-01-0.461D+00 0.377D+00 0.105D+01
 Gap=     0.351 Goal=   None    Shift=    0.000
 RMSDP=7.67D-06 MaxDP=9.19D-04 DE=-1.39D-06 OVMax= 3.55D-04

 Cycle   6  Pass 1  IDiag  1:
 RMSU=  2.58D-06    CP:  9.98D-01  1.34D+00  1.66D+00  2.03D+00  1.62D+00
 E= -1751.21169686283     Delta-E=       -0.000000427856 Rises=F Damp=F
 DIIS: error= 1.53D-06 at cycle   6 NSaved=   6.
 NSaved= 6 IEnMin= 6 EnMin= -1751.21169686283     IErMin= 6 ErrMin= 1.53D-06
 ErrMax= 1.53D-06  0.00D+00 EMaxC= 1.00D-01 BMatC= 9.05D-09 BMatP= 8.33D-08
 IDIUse=1 WtCom= 1.00D+00 WtEn= 0.00D+00
 Coeff-Com: -0.283D-01 0.377D-01 0.152D+00-0.354D+00-0.312D+00 0.150D+01
 Coeff:     -0.283D-01 0.377D-01 0.152D+00-0.354D+00-0.312D+00 0.150D+01
 Gap=     0.351 Goal=   None    Shift=    0.000
 RMSDP=3.90D-06 MaxDP=4.47D-04 DE=-4.28D-07 OVMax= 1.86D-04

 Cycle   7  Pass 1  IDiag  1:
 RMSU=  8.86D-07    CP:  9.98D-01  1.35D+00  1.68D+00  2.22D+00  2.03D+00
                    CP:  1.59D+00
 E= -1751.21169693102     Delta-E=       -0.000000068192 Rises=F Damp=F
 DIIS: error= 4.60D-07 at cycle   7 NSaved=   7.
 NSaved= 7 IEnMin= 7 EnMin= -1751.21169693102     IErMin= 7 ErrMin= 4.60D-07
 ErrMax= 4.60D-07  0.00D+00 EMaxC= 1.00D-01 BMatC= 7.65D-10 BMatP= 9.05D-09
 IDIUse=1 WtCom= 1.00D+00 WtEn= 0.00D+00
 Coeff-Com: -0.119D-01 0.131D-01 0.613D-01-0.960D-01-0.145D+00 0.372D+00
 Coeff-Com:  0.807D+00
 Coeff:     -0.119D-01 0.131D-01 0.613D-01-0.960D-01-0.145D+00 0.372D+00
 Coeff:      0.807D+00
 Gap=     0.351 Goal=   None    Shift=    0.000
 RMSDP=3.63D-07 MaxDP=5.89D-05 DE=-6.82D-08 OVMax= 1.49D-05

 Cycle   8  Pass 1  IDiag  1:
 RMSU=  2.30D-07    CP:  9.98D-01  1.35D+00  1.68D+00  2.23D+00  2.04D+00
                    CP:  1.65D+00  1.11D+00
 E= -1751.21169693215     Delta-E=       -0.000000001127 Rises=F Damp=F
 DIIS: error= 2.03D-07 at cycle   8 NSaved=   8.
 NSaved= 8 IEnMin= 8 EnMin= -1751.21169693215     IErMin= 8 ErrMin= 2.03D-07
 ErrMax= 2.03D-07  0.00D+00 EMaxC= 1.00D-01 BMatC= 1.60D-10 BMatP= 7.65D-10
 IDIUse=1 WtCom= 1.00D+00 WtEn= 0.00D+00
 Coeff-Com:  0.487D-02-0.631D-02-0.278D-01 0.683D-01 0.414D-01-0.275D+00
 Coeff-Com:  0.986D-01 0.110D+01
 Coeff:      0.487D-02-0.631D-02-0.278D-01 0.683D-01 0.414D-01-0.275D+00
 Coeff:      0.986D-01 0.110D+01
 Gap=     0.351 Goal=   None    Shift=    0.000
 RMSDP=2.70D-07 MaxDP=4.15D-05 DE=-1.13D-09 OVMax= 1.11D-05

 Cycle   9  Pass 1  IDiag  1:
 RMSU=  1.12D-07    CP:  9.98D-01  1.35D+00  1.68D+00  2.25D+00  2.04D+00
                    CP:  1.67D+00  1.25D+00  1.24D+00
 E= -1751.21169693297     Delta-E=       -0.000000000829 Rises=F Damp=F
 DIIS: error= 1.17D-07 at cycle   9 NSaved=   9.
 NSaved= 9 IEnMin= 9 EnMin= -1751.21169693297     IErMin= 9 ErrMin= 1.17D-07
 ErrMax= 1.17D-07  0.00D+00 EMaxC= 1.00D-01 BMatC= 2.54D-11 BMatP= 1.60D-10
 IDIUse=1 WtCom= 1.00D+00 WtEn= 0.00D+00
 Coeff-Com:  0.110D-02-0.840D-03-0.627D-02 0.775D-02 0.103D-01-0.223D-01
 Coeff-Com: -0.967D-01-0.112D+00 0.122D+01
 Coeff:      0.110D-02-0.840D-03-0.627D-02 0.775D-02 0.103D-01-0.223D-01
 Coeff:     -0.967D-01-0.112D+00 0.122D+01
 Gap=     0.351 Goal=   None    Shift=    0.000
 RMSDP=1.06D-07 MaxDP=1.32D-05 DE=-8.29D-10 OVMax= 5.32D-06

 Cycle  10  Pass 1  IDiag  1:
 RMSU=  4.68D-08    CP:  9.98D-01  1.35D+00  1.68D+00  2.25D+00  2.05D+00
                    CP:  1.68D+00  1.26D+00  1.35D+00  1.39D+00
 E= -1751.21169693291     Delta-E=        0.000000000062 Rises=F Damp=F
 DIIS: error= 5.13D-08 at cycle  10 NSaved=  10.
 NSaved=10 IEnMin= 9 EnMin= -1751.21169693297     IErMin=10 ErrMin= 5.13D-08
 ErrMax= 5.13D-08  0.00D+00 EMaxC= 1.00D-01 BMatC= 5.58D-12 BMatP= 2.54D-11
 IDIUse=1 WtCom= 1.00D+00 WtEn= 0.00D+00
 Coeff-Com: -0.133D-02 0.191D-02 0.752D-02-0.177D-01-0.123D-01 0.783D-01
 Coeff-Com: -0.185D-01-0.300D+00-0.693D-01 0.133D+01
 Coeff:     -0.133D-02 0.191D-02 0.752D-02-0.177D-01-0.123D-01 0.783D-01
 Coeff:     -0.185D-01-0.300D+00-0.693D-01 0.133D+01
 Gap=     0.351 Goal=   None    Shift=    0.000
 RMSDP=4.49D-08 MaxDP=5.56D-06 DE= 6.18D-11 OVMax= 4.09D-06

 Cycle  11  Pass 1  IDiag  1:
 RMSU=  2.27D-08    CP:  9.98D-01  1.35D+00  1.68D+00  2.25D+00  2.05D+00
                    CP:  1.68D+00  1.26D+00  1.39D+00  1.63D+00  1.47D+00
 E= -1751.21169693318     Delta-E=       -0.000000000266 Rises=F Damp=F
 DIIS: error= 1.72D-08 at cycle  11 NSaved=  11.
 NSaved=11 IEnMin=11 EnMin= -1751.21169693318     IErMin=11 ErrMin= 1.72D-08
 ErrMax= 1.72D-08  0.00D+00 EMaxC= 1.00D-01 BMatC= 5.72D-13 BMatP= 5.58D-12
 IDIUse=1 WtCom= 1.00D+00 WtEn= 0.00D+00
 Coeff-Com: -0.135D-03 0.958D-04 0.778D-03-0.915D-03-0.151D-02 0.207D-02
 Coeff-Com:  0.149D-01 0.198D-01-0.181D+00 0.161D-01 0.113D+01
 Coeff:     -0.135D-03 0.958D-04 0.778D-03-0.915D-03-0.151D-02 0.207D-02
 Coeff:      0.149D-01 0.198D-01-0.181D+00 0.161D-01 0.113D+01
 Gap=     0.351 Goal=   None    Shift=    0.000
 RMSDP=1.94D-08 MaxDP=2.23D-06 DE=-2.66D-10 OVMax= 9.96D-07

 Cycle  12  Pass 1  IDiag  1:
 RMSU=  9.81D-09    CP:  9.98D-01  1.35D+00  1.68D+00  2.25D+00  2.05D+00
                    CP:  1.68D+00  1.26D+00  1.39D+00  1.66D+00  1.59D+00
                    CP:  1.32D+00
 E= -1751.21169693290     Delta-E=        0.000000000281 Rises=F Damp=F
 DIIS: error= 3.95D-09 at cycle  12 NSaved=  12.
 NSaved=12 IEnMin=11 EnMin= -1751.21169693318     IErMin=12 ErrMin= 3.95D-09
 ErrMax= 3.95D-09  0.00D+00 EMaxC= 1.00D-01 BMatC= 8.34D-14 BMatP= 5.72D-13
 IDIUse=1 WtCom= 1.00D+00 WtEn= 0.00D+00
 Coeff-Com:  0.149D-03-0.244D-03-0.823D-03 0.214D-02 0.135D-02-0.988D-02
 Coeff-Com:  0.581D-02 0.428D-01-0.306D-01-0.164D+00 0.186D+00 0.967D+00
 Coeff:      0.149D-03-0.244D-03-0.823D-03 0.214D-02 0.135D-02-0.988D-02
 Coeff:      0.581D-02 0.428D-01-0.306D-01-0.164D+00 0.186D+00 0.967D+00
 Gap=     0.351 Goal=   None    Shift=    0.000
 RMSDP=8.30D-09 MaxDP=7.31D-07 DE= 2.81D-10 OVMax= 2.94D-07

 Error on total polarization charges =  0.02501
 SCF Done:  E(RHF) =  -1751.21169693     A.U. after   12 cycles
            NFock= 12  Conv=0.83D-08     -V/T= 2.0003
 KE= 1.750731798489D+03 PE=-1.382585592601D+04 EE= 5.453224972071D+03
 Leave Link  502 at Mon Oct 25 19:40:09 2021, MaxMem=  7864320000 cpu:           48876.8 elap:            1540.9
 (Enter /apps/gaussian/g16-c01-avx/g16/l508.exe)
 QCSCF skips out because SCF is already converged.
 Leave Link  508 at Mon Oct 25 19:40:10 2021, MaxMem=  7864320000 cpu:               0.1 elap:               0.0
 (Enter /apps/gaussian/g16-c01-avx/g16/l801.exe)
 ExpMin= 2.97D-02 ExpMax= 9.05D+03 ExpMxC= 3.09D+02 IAcc=3 IRadAn=         7 AccDes= 0.00D+00
 HarFok:  IExCor=  205 AccDes= 0.00D+00 IRadAn=         7 IDoV=-2 UseB2=F ITyADJ=14
 ICtDFT= 12500011 ScaDFX=  1.000000  1.000000  1.000000  1.000000
 GSVD:  LWork=       -2100 too small for GESVD, short by        9450 words or        9450 for optimal perf.
 Largest valence mixing into a core orbital is  1.12D-04
 Largest core mixing into a valence orbital is  4.64D-05
 Range of M.O.s used for correlation:    43  1391
 NBasis=  1398 NAE=   154 NBE=   154 NFC=    42 NFV=     0
 NROrb=   1349 NOA=   112 NOB=   112 NVA=  1237 NVB=  1237

 **** Warning!!: The largest alpha MO coefficient is  0.16010804D+03

 Leave Link  801 at Mon Oct 25 19:40:12 2021, MaxMem=  7864320000 cpu:              22.2 elap:               0.7
 (Enter /apps/gaussian/g16-c01-avx/g16/l906.exe)
 FulOut=F Deriv=F AODrv=F NAtomX=    90
   MMem=           1  MDisk=         112 MDiskD=         112
  W3Min=   205322208 MinDsk=   190098423 NBas6D=        1482
 NBas2D=     1100829    NTT=     1098903    LW2=     2000000
    MDV=  7853769750 MDiskM=       73584 NBas2p=      762429
 Disk-based method using OVN memory for112 occupieds at a time.
 Estimated scratch disk usage=324746218426 words.
 IMap=   1   2   3   4   5   6   7   8   9  10  11  12  13  14  15  16  17  18  19  20
 IMap=  21  22  23  24  25  26  27  28  29  30  31  32  33  34  35  36  37  38  39  40
 IMap=  41  42  43  44  45  46  47  48  49  50  51  52  53  54  55  56  57  58  59  60
 IMap=  61  62  63  64  65  66  67  68  69  70  71  72  73  74  75  76  77  78  79  80
 IMap=  81  82  83  84  85  86  87  88  89  90  91  92  93  94  95  96  97  98  99 100
 IMap= 101 102 103 104 105 106 107 108 109 110 111 112
 Actual    scratch disk usage=316904881128 words.
 JobTyp=1 Pass  1:  I=   1 to 112 NPSUse= 32 ParTrn=T ParDer=T DoDerP=F.
 Spin components of T(2) and E(2):
     alpha-alpha T2 =       0.3002856420D+00 E2=     -0.8073205628D+00
     alpha-beta  T2 =       0.1601122154D+01 E2=     -0.4592025723D+01
     beta-beta   T2 =       0.3002856420D+00 E2=     -0.8073205628D+00
 The integrals were generated   1 times.
 ANorm=    0.1789327650D+01
 E2 =    -0.6206666849D+01 EUMP2 =    -0.17574183637815D+04
 Leave Link  906 at Tue Oct 26 04:29:21 2021, MaxMem=  7864320000 cpu:          981732.8 elap:           31748.9
 (Enter /apps/gaussian/g16-c01-avx/g16/l601.exe)
 Copying SCF densities to generalized density rwf, IOpCl= 0 IROHF=0.

 **********************************************************************

            Population analysis using the SCF Density.

 **********************************************************************

 Orbital symmetries:
       Occupied  (A) (A) (A) (A) (A) (A) (A) (A) (A) (A) (A) (A)
                 (A) (A) (A) (A) (A) (A) (A) (A) (A) (A) (A) (A)
                 (A) (A) (A) (A) (A) (A) (A) (A) (A) (A) (A) (A)
                 (A) (A) (A) (A) (A) (A) (A) (A) (A) (A) (A) (A)
                 (A) (A) (A) (A) (A) (A) (A) (A) (A) (A) (A) (A)
                 (A) (A) (A) (A) (A) (A) (A) (A) (A) (A) (A) (A)
                 (A) (A) (A) (A) (A) (A) (A) (A) (A) (A) (A) (A)
                 (A) (A) (A) (A) (A) (A) (A) (A) (A) (A) (A) (A)
                 (A) (A) (A) (A) (A) (A) (A) (A) (A) (A) (A) (A)
                 (A) (A) (A) (A) (A) (A) (A) (A) (A) (A) (A) (A)
                 (A) (A) (A) (A) (A) (A) (A) (A) (A) (A) (A) (A)
                 (A) (A) (A) (A) (A) (A) (A) (A) (A) (A) (A) (A)
                 (A) (A) (A) (A) (A) (A) (A) (A) (A) (A)
       Virtual   (A) (A) (A) (A) (A) (A) (A) (A) (A) (A) (A) (A)
                 (A) (A) (A) (A) (A) (A) (A) (A) (A) (A) (A) (A)
                 (A) (A) (A) (A) (A) (A) (A) (A) (A) (A) (A) (A)
                 (A) (A) (A) (A) (A) (A) (A) (A) (A) (A) (A) (A)
                 (A) (A) (A) (A) (A) (A) (A) (A) (A) (A) (A) (A)
                 (A) (A) (A) (A) (A) (A) (A) (A) (A) (A) (A) (A)
                 (A) (A) (A) (A) (A) (A) (A) (A) (A) (A) (A) (A)
                 (A) (A) (A) (A) (A) (A) (A) (A) (A) (A) (A) (A)
                 (A) (A) (A) (A) (A) (A) (A) (A) (A) (A) (A) (A)
                 (A) (A) (A) (A) (A) (A) (A) (A) (A) (A) (A) (A)
                 (A) (A) (A) (A) (A) (A) (A) (A) (A) (A) (A) (A)
                 (A) (A) (A) (A) (A) (A) (A) (A) (A) (A) (A) (A)
                 (A) (A) (A) (A) (A) (A) (A) (A) (A) (A) (A) (A)
                 (A) (A) (A) (A) (A) (A) (A) (A) (A) (A) (A) (A)
                 (A) (A) (A) (A) (A) (A) (A) (A) (A) (A) (A) (A)
                 (A) (A) (A) (A) (A) (A) (A) (A) (A) (A) (A) (A)
                 (A) (A) (A) (A) (A) (A) (A) (A) (A) (A) (A) (A)
                 (A) (A) (A) (A) (A) (A) (A) (A) (A) (A) (A) (A)
                 (A) (A) (A) (A) (A) (A) (A) (A) (A) (A) (A) (A)
                 (A) (A) (A) (A) (A) (A) (A) (A) (A) (A) (A) (A)
                 (A) (A) (A) (A) (A) (A) (A) (A) (A) (A) (A) (A)
                 (A) (A) (A) (A) (A) (A) (A) (A) (A) (A) (A) (A)
                 (A) (A) (A) (A) (A) (A) (A) (A) (A) (A) (A) (A)
                 (A) (A) (A) (A) (A) (A) (A) (A) (A) (A) (A) (A)
                 (A) (A) (A) (A) (A) (A) (A) (A) (A) (A) (A) (A)
                 (A) (A) (A) (A) (A) (A) (A) (A) (A) (A) (A) (A)
                 (A) (A) (A) (A) (A) (A) (A) (A) (A) (A) (A) (A)
                 (A) (A) (A) (A) (A) (A) (A) (A) (A) (A) (A) (A)
                 (A) (A) (A) (A) (A) (A) (A) (A) (A) (A) (A) (A)
                 (A) (A) (A) (A) (A) (A) (A) (A) (A) (A) (A) (A)
                 (A) (A) (A) (A) (A) (A) (A) (A) (A) (A) (A) (A)
                 (A) (A) (A) (A) (A) (A) (A) (A) (A) (A) (A) (A)
                 (A) (A) (A) (A) (A) (A) (A) (A) (A) (A) (A) (A)
                 (A) (A) (A) (A) (A) (A) (A) (A) (A) (A) (A) (A)
                 (A) (A) (A) (A) (A) (A) (A) (A) (A) (A) (A) (A)
                 (A) (A) (A) (A) (A) (A) (A) (A) (A) (A) (A) (A)
                 (A) (A) (A) (A) (A) (A) (A) (A) (A) (A) (A) (A)
                 (A) (A) (A) (A) (A) (A) (A) (A) (A) (A) (A) (A)
                 (A) (A) (A) (A) (A) (A) (A) (A) (A) (A) (A) (A)
                 (A) (A) (A) (A) (A) (A) (A) (A) (A) (A) (A) (A)
                 (A) (A) (A) (A) (A) (A) (A) (A) (A) (A) (A) (A)
                 (A) (A) (A) (A) (A) (A) (A) (A) (A) (A) (A) (A)
                 (A) (A) (A) (A) (A) (A) (A) (A) (A) (A) (A) (A)
                 (A) (A) (A) (A) (A) (A) (A) (A) (A) (A) (A) (A)
                 (A) (A) (A) (A) (A) (A) (A) (A) (A) (A) (A) (A)
                 (A) (A) (A) (A) (A) (A) (A) (A) (A) (A) (A) (A)
                 (A) (A) (A) (A) (A) (A) (A) (A) (A) (A) (A) (A)
                 (A) (A) (A) (A) (A) (A) (A) (A) (A) (A) (A) (A)
                 (A) (A) (A) (A) (A) (A) (A) (A) (A) (A) (A) (A)
                 (A) (A) (A) (A) (A) (A) (A) (A) (A) (A) (A) (A)
                 (A) (A) (A) (A) (A) (A) (A) (A) (A) (A) (A) (A)
                 (A) (A) (A) (A) (A) (A) (A) (A) (A) (A) (A) (A)
                 (A) (A) (A) (A) (A) (A) (A) (A) (A) (A) (A) (A)
                 (A) (A) (A) (A) (A) (A) (A) (A) (A) (A) (A) (A)
                 (A) (A) (A) (A) (A) (A) (A) (A) (A) (A) (A) (A)
                 (A) (A) (A) (A) (A) (A) (A) (A) (A) (A) (A) (A)
                 (A) (A) (A) (A) (A) (A) (A) (A) (A) (A) (A) (A)
                 (A) (A) (A) (A) (A) (A) (A) (A) (A) (A) (A) (A)
                 (A) (A) (A) (A) (A) (A) (A) (A) (A) (A) (A) (A)
                 (A) (A) (A) (A) (A) (A) (A) (A) (A) (A) (A) (A)
                 (A) (A) (A) (A) (A) (A) (A) (A) (A) (A) (A) (A)
                 (A) (A) (A) (A) (A) (A) (A) (A) (A) (A) (A) (A)
                 (A) (A) (A) (A) (A) (A) (A) (A) (A) (A) (A) (A)
                 (A) (A) (A) (A) (A) (A) (A) (A) (A) (A) (A) (A)
                 (A) (A) (A) (A) (A) (A) (A) (A) (A) (A) (A) (A)
                 (A) (A) (A) (A) (A) (A) (A) (A) (A) (A) (A) (A)
                 (A) (A) (A) (A) (A) (A) (A) (A) (A) (A) (A) (A)
                 (A) (A) (A) (A) (A) (A) (A) (A) (A) (A) (A) (A)
                 (A) (A) (A) (A) (A) (A) (A) (A) (A) (A) (A) (A)
                 (A) (A) (A) (A) (A) (A) (A) (A) (A) (A) (A) (A)
                 (A) (A) (A) (A) (A) (A) (A) (A) (A) (A) (A) (A)
                 (A) (A) (A) (A) (A) (A) (A) (A) (A) (A) (A) (A)
                 (A) (A) (A) (A) (A) (A) (A) (A) (A) (A) (A) (A)
                 (A) (A) (A) (A) (A) (A) (A) (A) (A) (A) (A) (A)
                 (A) (A) (A) (A) (A) (A) (A) (A) (A) (A) (A) (A)
                 (A) (A) (A) (A) (A) (A) (A) (A) (A) (A) (A) (A)
                 (A) (A) (A) (A) (A) (A) (A) (A) (A) (A) (A) (A)
                 (A) (A) (A) (A) (A) (A) (A) (A) (A) (A) (A) (A)
                 (A) (A) (A) (A) (A) (A) (A) (A) (A) (A) (A) (A)
                 (A) (A) (A) (A) (A) (A) (A) (A) (A) (A) (A) (A)
                 (A) (A) (A) (A) (A) (A) (A) (A) (A) (A) (A) (A)
                 (A) (A) (A) (A) (A) (A) (A) (A) (A) (A) (A) (A)
                 (A) (A) (A) (A) (A) (A) (A) (A) (A) (A) (A) (A)
                 (A) (A) (A) (A) (A) (A) (A) (A) (A) (A) (A) (A)
                 (A) (A) (A) (A) (A) (A) (A) (A) (A) (A) (A) (A)
                 (A) (A) (A) (A) (A) (A) (A) (A) (A) (A) (A) (A)
                 (A) (A) (A) (A) (A) (A) (A) (A) (A) (A) (A) (A)
                 (A) (A) (A) (A) (A) (A) (A) (A) (A) (A) (A) (A)
                 (A) (A) (A) (A) (A) (A) (A) (A) (A) (A) (A) (A)
                 (A) (A) (A) (A) (A) (A) (A) (A) (A) (A) (A) (A)
                 (A) (A) (A) (A) (A) (A) (A) (A) (A) (A) (A) (A)
                 (A) (A) (A) (A) (A) (A) (A) (A) (A) (A) (A) (A)
                 (A) (A) (A) (A) (A) (A) (A) (A) (A) (A) (A) (A)
                 (A) (A) (A) (A) (A) (A) (A) (A) (A) (A) (A) (A)
                 (A) (A) (A) (A) (A) (A) (A) (A) (A) (A) (A) (A)
                 (A) (A) (A) (A) (A) (A) (A) (A) (A) (A) (A) (A)
                 (A) (A) (A) (A) (A) (A) (A) (A) (A) (A) (A) (A)
                 (A) (A) (A) (A) (A) (A) (A) (A) (A) (A) (A) (A)
                 (A) (A) (A) (A) (A) (A) (A) (A) (A) (A) (A) (A)
                 (A) (A) (A) (A) (A) (A) (A) (A) (A) (A) (A) (A)
                 (A) (A) (A) (A) (A) (A) (A) (A) (A) (A) (A) (A)
                 (A) (A) (A) (A) (A) (A) (A) (A) (A) (A) (A) (A)
                 (A) (A) (A) (A) (A) (A) (A) (A) (A) (A) (A) (A)
                 (A)
 The electronic state is 1-A.
 Alpha  occ. eigenvalues --  -15.56364 -15.56340 -15.56184 -15.55960 -15.55884
 Alpha  occ. eigenvalues --  -15.55498 -15.54347 -15.54076 -11.28861 -11.28826
 Alpha  occ. eigenvalues --  -11.28812 -11.28571 -11.28536 -11.28411 -11.26886
 Alpha  occ. eigenvalues --  -11.26635 -11.26250 -11.26195 -11.25588 -11.25537
 Alpha  occ. eigenvalues --  -11.25497 -11.25474 -11.25313 -11.25277 -11.25264
 Alpha  occ. eigenvalues --  -11.25247 -11.25246 -11.25180 -11.25170 -11.25098
 Alpha  occ. eigenvalues --  -11.25057 -11.25036 -11.24985 -11.24963 -11.21792
 Alpha  occ. eigenvalues --  -11.21474 -11.21457 -11.21369 -11.21363 -11.21336
 Alpha  occ. eigenvalues --  -11.21060 -11.20850  -1.26690  -1.26476  -1.25453
 Alpha  occ. eigenvalues --   -1.25410  -1.23555  -1.23089  -1.19335  -1.19260
 Alpha  occ. eigenvalues --   -1.17515  -1.16758  -1.09414  -1.08177  -1.06271
 Alpha  occ. eigenvalues --   -1.05790  -1.04803  -1.02836  -1.02489  -1.02437
 Alpha  occ. eigenvalues --   -0.95389  -0.94801  -0.94687  -0.94477  -0.94048
 Alpha  occ. eigenvalues --   -0.93924  -0.93585  -0.93544  -0.89758  -0.88957
 Alpha  occ. eigenvalues --   -0.86876  -0.86808  -0.85258  -0.82757  -0.80259
 Alpha  occ. eigenvalues --   -0.77854  -0.76060  -0.75580  -0.75066  -0.74446
 Alpha  occ. eigenvalues --   -0.73291  -0.71994  -0.71125  -0.70875  -0.69316
 Alpha  occ. eigenvalues --   -0.67672  -0.66890  -0.66710  -0.66574  -0.66106
 Alpha  occ. eigenvalues --   -0.65729  -0.64871  -0.64523  -0.64298  -0.63493
 Alpha  occ. eigenvalues --   -0.63263  -0.62615  -0.62253  -0.62165  -0.61904
 Alpha  occ. eigenvalues --   -0.61521  -0.60954  -0.60454  -0.60089  -0.59914
 Alpha  occ. eigenvalues --   -0.59401  -0.57292  -0.56680  -0.56017  -0.55638
 Alpha  occ. eigenvalues --   -0.55401  -0.54925  -0.54536  -0.54334  -0.53820
 Alpha  occ. eigenvalues --   -0.53571  -0.53425  -0.53151  -0.52991  -0.52833
 Alpha  occ. eigenvalues --   -0.52743  -0.52708  -0.52272  -0.51729  -0.51391
 Alpha  occ. eigenvalues --   -0.51062  -0.50839  -0.50432  -0.49850  -0.49341
 Alpha  occ. eigenvalues --   -0.49168  -0.48523  -0.48202  -0.47695  -0.46969
 Alpha  occ. eigenvalues --   -0.46791  -0.45527  -0.45451  -0.45062  -0.44224
 Alpha  occ. eigenvalues --   -0.41255  -0.40842  -0.40620  -0.40447  -0.40375
 Alpha  occ. eigenvalues --   -0.40211  -0.39462  -0.39267  -0.38252  -0.38068
 Alpha  occ. eigenvalues --   -0.32919  -0.32663  -0.32364  -0.31845
 Alpha virt. eigenvalues --    0.03229   0.03608   0.03631   0.03865   0.04336
 Alpha virt. eigenvalues --    0.04412   0.04425   0.04465   0.04603   0.05033
 Alpha virt. eigenvalues --    0.05451   0.05506   0.05590   0.05610   0.05655
 Alpha virt. eigenvalues --    0.05722   0.06185   0.06477   0.06563   0.06614
 Alpha virt. eigenvalues --    0.06745   0.06979   0.07024   0.07181   0.07225
 Alpha virt. eigenvalues --    0.07400   0.07680   0.07745   0.08033   0.08083
 Alpha virt. eigenvalues --    0.08277   0.08306   0.08609   0.08722   0.09024
 Alpha virt. eigenvalues --    0.09410   0.09770   0.09878   0.10075   0.10170
 Alpha virt. eigenvalues --    0.10547   0.10621   0.10727   0.10837   0.11035
 Alpha virt. eigenvalues --    0.11311   0.11879   0.11985   0.12146   0.12232
 Alpha virt. eigenvalues --    0.12817   0.13002   0.13181   0.13292   0.13403
 Alpha virt. eigenvalues --    0.13593   0.13756   0.14058   0.14274   0.14340
 Alpha virt. eigenvalues --    0.14435   0.14608   0.14698   0.14976   0.15075
 Alpha virt. eigenvalues --    0.15370   0.15402   0.15586   0.15777   0.15877
 Alpha virt. eigenvalues --    0.16021   0.16063   0.16241   0.16259   0.16635
 Alpha virt. eigenvalues --    0.16759   0.16772   0.16925   0.17045   0.17270
 Alpha virt. eigenvalues --    0.17363   0.17482   0.17659   0.17831   0.17892
 Alpha virt. eigenvalues --    0.18014   0.18258   0.18334   0.18609   0.18670
 Alpha virt. eigenvalues --    0.18819   0.18880   0.19093   0.19232   0.19311
 Alpha virt. eigenvalues --    0.19358   0.19673   0.19864   0.19905   0.20038
 Alpha virt. eigenvalues --    0.20248   0.20377   0.20590   0.20736   0.20845
 Alpha virt. eigenvalues --    0.20891   0.21099   0.21243   0.21425   0.21473
 Alpha virt. eigenvalues --    0.21695   0.21749   0.22066   0.22188   0.22384
 Alpha virt. eigenvalues --    0.22420   0.22597   0.22761   0.22840   0.23039
 Alpha virt. eigenvalues --    0.23203   0.23290   0.23419   0.23563   0.23768
 Alpha virt. eigenvalues --    0.23929   0.24050   0.24244   0.24513   0.24614
 Alpha virt. eigenvalues --    0.24828   0.24896   0.25104   0.25223   0.25383
 Alpha virt. eigenvalues --    0.25601   0.25702   0.26045   0.26167   0.26332
 Alpha virt. eigenvalues --    0.26424   0.26765   0.26821   0.26887   0.26983
 Alpha virt. eigenvalues --    0.27299   0.27406   0.27439   0.27829   0.28063
 Alpha virt. eigenvalues --    0.28157   0.28373   0.28649   0.28829   0.28992
 Alpha virt. eigenvalues --    0.29045   0.29584   0.29696   0.29923   0.30095
 Alpha virt. eigenvalues --    0.30205   0.30495   0.30605   0.30795   0.30933
 Alpha virt. eigenvalues --    0.31168   0.31642   0.31771   0.31841   0.32011
 Alpha virt. eigenvalues --    0.32163   0.32330   0.32736   0.32873   0.32930
 Alpha virt. eigenvalues --    0.33173   0.33386   0.33584   0.33698   0.33947
 Alpha virt. eigenvalues --    0.34205   0.34380   0.34433   0.34563   0.34906
 Alpha virt. eigenvalues --    0.35085   0.35111   0.35439   0.35570   0.35684
 Alpha virt. eigenvalues --    0.36006   0.36184   0.36404   0.36493   0.36527
 Alpha virt. eigenvalues --    0.36625   0.36828   0.36895   0.36985   0.37147
 Alpha virt. eigenvalues --    0.37325   0.37400   0.37592   0.37662   0.37932
 Alpha virt. eigenvalues --    0.38086   0.38183   0.38342   0.38571   0.38645
 Alpha virt. eigenvalues --    0.38851   0.38856   0.39077   0.39169   0.39393
 Alpha virt. eigenvalues --    0.39551   0.39665   0.39861   0.40082   0.40251
 Alpha virt. eigenvalues --    0.40485   0.40613   0.40699   0.40793   0.41009
 Alpha virt. eigenvalues --    0.41068   0.41259   0.41367   0.41462   0.41556
 Alpha virt. eigenvalues --    0.41757   0.41814   0.41957   0.42090   0.42269
 Alpha virt. eigenvalues --    0.42442   0.42591   0.42780   0.42881   0.42958
 Alpha virt. eigenvalues --    0.43142   0.43261   0.43464   0.43514   0.43936
 Alpha virt. eigenvalues --    0.43960   0.44164   0.44216   0.44303   0.44579
 Alpha virt. eigenvalues --    0.44779   0.44842   0.44962   0.45097   0.45443
 Alpha virt. eigenvalues --    0.45579   0.45673   0.45992   0.46149   0.46378
 Alpha virt. eigenvalues --    0.46516   0.46683   0.46787   0.47010   0.47160
 Alpha virt. eigenvalues --    0.47374   0.47589   0.47697   0.47905   0.48152
 Alpha virt. eigenvalues --    0.48313   0.48404   0.48873   0.48927   0.49152
 Alpha virt. eigenvalues --    0.49187   0.49288   0.49456   0.49487   0.49667
 Alpha virt. eigenvalues --    0.49834   0.50167   0.50306   0.50455   0.50601
 Alpha virt. eigenvalues --    0.50676   0.50821   0.50981   0.51245   0.51387
 Alpha virt. eigenvalues --    0.51556   0.51845   0.51998   0.52164   0.52287
 Alpha virt. eigenvalues --    0.52480   0.52537   0.52710   0.52921   0.53074
 Alpha virt. eigenvalues --    0.53349   0.53468   0.53636   0.53796   0.54028
 Alpha virt. eigenvalues --    0.54112   0.54224   0.54417   0.54624   0.54759
 Alpha virt. eigenvalues --    0.54825   0.54966   0.55340   0.55452   0.55504
 Alpha virt. eigenvalues --    0.55802   0.55882   0.56012   0.56295   0.56396
 Alpha virt. eigenvalues --    0.56499   0.56585   0.56864   0.56992   0.57195
 Alpha virt. eigenvalues --    0.57344   0.57619   0.58006   0.58094   0.58442
 Alpha virt. eigenvalues --    0.58609   0.58790   0.58873   0.59134   0.59353
 Alpha virt. eigenvalues --    0.59537   0.59720   0.59884   0.59984   0.60281
 Alpha virt. eigenvalues --    0.60327   0.60454   0.60577   0.60799   0.61026
 Alpha virt. eigenvalues --    0.61247   0.61285   0.61644   0.61971   0.62066
 Alpha virt. eigenvalues --    0.62384   0.62434   0.62488   0.62691   0.63091
 Alpha virt. eigenvalues --    0.63238   0.63424   0.63521   0.63722   0.63802
 Alpha virt. eigenvalues --    0.63862   0.64111   0.64443   0.64576   0.64639
 Alpha virt. eigenvalues --    0.64880   0.64956   0.65281   0.65412   0.65649
 Alpha virt. eigenvalues --    0.65680   0.65791   0.66129   0.66231   0.66411
 Alpha virt. eigenvalues --    0.66538   0.66694   0.66760   0.66980   0.67099
 Alpha virt. eigenvalues --    0.67197   0.67463   0.67705   0.67897   0.67988
 Alpha virt. eigenvalues --    0.68115   0.68182   0.68300   0.68478   0.68930
 Alpha virt. eigenvalues --    0.68985   0.69181   0.69250   0.69489   0.69670
 Alpha virt. eigenvalues --    0.69725   0.70011   0.70358   0.70413   0.70496
 Alpha virt. eigenvalues --    0.70693   0.70739   0.70942   0.71152   0.71411
 Alpha virt. eigenvalues --    0.71534   0.71684   0.71774   0.72005   0.72099
 Alpha virt. eigenvalues --    0.72178   0.72352   0.72488   0.72609   0.72816
 Alpha virt. eigenvalues --    0.73209   0.73327   0.73418   0.73625   0.73774
 Alpha virt. eigenvalues --    0.74037   0.74233   0.74353   0.74585   0.74761
 Alpha virt. eigenvalues --    0.74997   0.75088   0.75174   0.75273   0.75536
 Alpha virt. eigenvalues --    0.75739   0.75828   0.75980   0.76096   0.76241
 Alpha virt. eigenvalues --    0.76430   0.76577   0.76774   0.76928   0.77030
 Alpha virt. eigenvalues --    0.77207   0.77446   0.77723   0.77838   0.78068
 Alpha virt. eigenvalues --    0.78116   0.78219   0.78647   0.78834   0.79015
 Alpha virt. eigenvalues --    0.79091   0.79266   0.79498   0.79624   0.79664
 Alpha virt. eigenvalues --    0.79953   0.80139   0.80179   0.80662   0.80818
 Alpha virt. eigenvalues --    0.80974   0.81138   0.81257   0.81379   0.81612
 Alpha virt. eigenvalues --    0.81709   0.81884   0.82106   0.82278   0.82447
 Alpha virt. eigenvalues --    0.82463   0.82696   0.82889   0.83206   0.83294
 Alpha virt. eigenvalues --    0.83432   0.83667   0.83862   0.84086   0.84244
 Alpha virt. eigenvalues --    0.84397   0.84498   0.84802   0.85075   0.85352
 Alpha virt. eigenvalues --    0.85566   0.85712   0.85770   0.85950   0.86090
 Alpha virt. eigenvalues --    0.86172   0.86346   0.86679   0.86974   0.87014
 Alpha virt. eigenvalues --    0.87231   0.87415   0.87617   0.87957   0.88005
 Alpha virt. eigenvalues --    0.88288   0.88666   0.88829   0.89023   0.89160
 Alpha virt. eigenvalues --    0.89416   0.89601   0.89791   0.89994   0.90115
 Alpha virt. eigenvalues --    0.90208   0.90272   0.90582   0.90669   0.90840
 Alpha virt. eigenvalues --    0.90979   0.91277   0.91509   0.91786   0.91834
 Alpha virt. eigenvalues --    0.92186   0.92445   0.92539   0.92751   0.92773
 Alpha virt. eigenvalues --    0.92988   0.93129   0.93328   0.93537   0.93637
 Alpha virt. eigenvalues --    0.93771   0.93962   0.94329   0.94603   0.94679
 Alpha virt. eigenvalues --    0.94968   0.95080   0.95331   0.95465   0.95785
 Alpha virt. eigenvalues --    0.95993   0.96228   0.96396   0.96534   0.96613
 Alpha virt. eigenvalues --    0.96869   0.96930   0.97220   0.97622   0.97710
 Alpha virt. eigenvalues --    0.97722   0.97989   0.98430   0.98635   0.98906
 Alpha virt. eigenvalues --    0.99247   0.99542   0.99841   0.99900   1.00271
 Alpha virt. eigenvalues --    1.00483   1.00551   1.00677   1.01076   1.01299
 Alpha virt. eigenvalues --    1.01411   1.01686   1.01991   1.02044   1.02660
 Alpha virt. eigenvalues --    1.02769   1.03025   1.03413   1.03538   1.03608
 Alpha virt. eigenvalues --    1.03796   1.04016   1.04399   1.04621   1.04811
 Alpha virt. eigenvalues --    1.05253   1.05576   1.05704   1.06147   1.06342
 Alpha virt. eigenvalues --    1.06468   1.06714   1.06807   1.07193   1.07382
 Alpha virt. eigenvalues --    1.07847   1.08181   1.08272   1.08371   1.08434
 Alpha virt. eigenvalues --    1.08676   1.09041   1.09240   1.09659   1.09731
 Alpha virt. eigenvalues --    1.09939   1.10319   1.10735   1.10858   1.11011
 Alpha virt. eigenvalues --    1.11405   1.11733   1.12108   1.12298   1.12669
 Alpha virt. eigenvalues --    1.12971   1.13240   1.13577   1.13738   1.14208
 Alpha virt. eigenvalues --    1.14282   1.14643   1.14895   1.15173   1.15290
 Alpha virt. eigenvalues --    1.15689   1.15731   1.15939   1.16503   1.16706
 Alpha virt. eigenvalues --    1.16739   1.17036   1.17342   1.17705   1.17913
 Alpha virt. eigenvalues --    1.18167   1.18316   1.18570   1.18770   1.19423
 Alpha virt. eigenvalues --    1.19633   1.19799   1.20138   1.20363   1.20895
 Alpha virt. eigenvalues --    1.21219   1.21398   1.21773   1.22107   1.22244
 Alpha virt. eigenvalues --    1.22424   1.22925   1.23324   1.23887   1.23971
 Alpha virt. eigenvalues --    1.24806   1.25129   1.25218   1.25363   1.25867
 Alpha virt. eigenvalues --    1.26294   1.26506   1.26917   1.27412   1.27621
 Alpha virt. eigenvalues --    1.27996   1.28140   1.28576   1.28891   1.29193
 Alpha virt. eigenvalues --    1.29796   1.29913   1.30499   1.30831   1.31077
 Alpha virt. eigenvalues --    1.31447   1.32290   1.32771   1.32875   1.33589
 Alpha virt. eigenvalues --    1.33797   1.34256   1.34297   1.34650   1.35060
 Alpha virt. eigenvalues --    1.35419   1.35730   1.36195   1.36616   1.36911
 Alpha virt. eigenvalues --    1.37052   1.37952   1.38053   1.38240   1.39059
 Alpha virt. eigenvalues --    1.39325   1.39576   1.40187   1.40336   1.40690
 Alpha virt. eigenvalues --    1.40836   1.40900   1.41107   1.41585   1.42118
 Alpha virt. eigenvalues --    1.42719   1.43204   1.43451   1.44090   1.44308
 Alpha virt. eigenvalues --    1.44585   1.44987   1.45111   1.45632   1.45970
 Alpha virt. eigenvalues --    1.46535   1.46889   1.47399   1.47703   1.47999
 Alpha virt. eigenvalues --    1.48488   1.48614   1.49777   1.49902   1.50220
 Alpha virt. eigenvalues --    1.50789   1.50994   1.51687   1.52199   1.52532
 Alpha virt. eigenvalues --    1.53017   1.54064   1.54413   1.54792   1.55110
 Alpha virt. eigenvalues --    1.55360   1.55755   1.56238   1.56520   1.56668
 Alpha virt. eigenvalues --    1.56909   1.58151   1.58282   1.58796   1.59636
 Alpha virt. eigenvalues --    1.60163   1.61406   1.61701   1.62237   1.62887
 Alpha virt. eigenvalues --    1.63012   1.63326   1.63883   1.64093   1.64448
 Alpha virt. eigenvalues --    1.64908   1.65576   1.65776   1.65957   1.66908
 Alpha virt. eigenvalues --    1.67269   1.67665   1.67972   1.68442   1.68822
 Alpha virt. eigenvalues --    1.68993   1.69358   1.70076   1.70210   1.70859
 Alpha virt. eigenvalues --    1.70972   1.71383   1.71730   1.72046   1.72395
 Alpha virt. eigenvalues --    1.72883   1.73009   1.73258   1.73535   1.74083
 Alpha virt. eigenvalues --    1.74473   1.74776   1.75133   1.75387   1.75689
 Alpha virt. eigenvalues --    1.75820   1.75989   1.76639   1.76856   1.76893
 Alpha virt. eigenvalues --    1.77331   1.77886   1.78077   1.78314   1.78655
 Alpha virt. eigenvalues --    1.78864   1.79248   1.79492   1.80262   1.80480
 Alpha virt. eigenvalues --    1.80735   1.81050   1.81146   1.81527   1.81890
 Alpha virt. eigenvalues --    1.81996   1.82658   1.82917   1.83124   1.83226
 Alpha virt. eigenvalues --    1.83633   1.83841   1.84490   1.84652   1.84928
 Alpha virt. eigenvalues --    1.85262   1.85792   1.85941   1.86407   1.86630
 Alpha virt. eigenvalues --    1.86931   1.87137   1.87212   1.87732   1.87940
 Alpha virt. eigenvalues --    1.88487   1.88718   1.88824   1.89357   1.89632
 Alpha virt. eigenvalues --    1.89929   1.89992   1.90647   1.90833   1.91149
 Alpha virt. eigenvalues --    1.91289   1.91538   1.91925   1.92494   1.92879
 Alpha virt. eigenvalues --    1.92992   1.93300   1.93674   1.93798   1.94141
 Alpha virt. eigenvalues --    1.94373   1.94511   1.95005   1.95295   1.95375
 Alpha virt. eigenvalues --    1.95793   1.96594   1.96648   1.96891   1.97202
 Alpha virt. eigenvalues --    1.97354   1.97669   1.97879   1.98239   1.98480
 Alpha virt. eigenvalues --    1.98677   1.99307   1.99426   1.99592   2.00143
 Alpha virt. eigenvalues --    2.00483   2.00772   2.00949   2.01132   2.01566
 Alpha virt. eigenvalues --    2.01785   2.02138   2.02486   2.02802   2.03358
 Alpha virt. eigenvalues --    2.03480   2.03723   2.03918   2.04285   2.04915
 Alpha virt. eigenvalues --    2.05013   2.05373   2.06004   2.06467   2.06953
 Alpha virt. eigenvalues --    2.07178   2.07599   2.08187   2.08513   2.08978
 Alpha virt. eigenvalues --    2.09301   2.09482   2.09702   2.10209   2.10804
 Alpha virt. eigenvalues --    2.11016   2.11457   2.11616   2.11850   2.12112
 Alpha virt. eigenvalues --    2.12406   2.12917   2.13293   2.13714   2.13815
 Alpha virt. eigenvalues --    2.14575   2.14675   2.14714   2.15474   2.15708
 Alpha virt. eigenvalues --    2.16061   2.16449   2.16724   2.16929   2.17210
 Alpha virt. eigenvalues --    2.17786   2.18063   2.18598   2.18710   2.19005
 Alpha virt. eigenvalues --    2.19220   2.19716   2.19816   2.20219   2.20507
 Alpha virt. eigenvalues --    2.20804   2.21083   2.21392   2.21710   2.22233
 Alpha virt. eigenvalues --    2.22630   2.22825   2.23456   2.23822   2.24013
 Alpha virt. eigenvalues --    2.24482   2.24644   2.24875   2.25129   2.25653
 Alpha virt. eigenvalues --    2.25806   2.26403   2.26696   2.27028   2.27152
 Alpha virt. eigenvalues --    2.27407   2.27921   2.28478   2.28502   2.28914
 Alpha virt. eigenvalues --    2.29138   2.29365   2.29544   2.29756   2.30276
 Alpha virt. eigenvalues --    2.30616   2.30907   2.31229   2.31814   2.32068
 Alpha virt. eigenvalues --    2.32215   2.32585   2.33276   2.33659   2.33711
 Alpha virt. eigenvalues --    2.33981   2.34658   2.34971   2.35210   2.35738
 Alpha virt. eigenvalues --    2.35954   2.36253   2.36463   2.36839   2.37356
 Alpha virt. eigenvalues --    2.37388   2.37491   2.37906   2.38223   2.38707
 Alpha virt. eigenvalues --    2.38932   2.39176   2.39764   2.39983   2.40093
 Alpha virt. eigenvalues --    2.40745   2.40847   2.41430   2.41700   2.41894
 Alpha virt. eigenvalues --    2.42116   2.42609   2.42715   2.43004   2.43047
 Alpha virt. eigenvalues --    2.43581   2.43879   2.44477   2.44754   2.45286
 Alpha virt. eigenvalues --    2.45486   2.45692   2.46444   2.46513   2.46661
 Alpha virt. eigenvalues --    2.47062   2.47426   2.47663   2.47757   2.48378
 Alpha virt. eigenvalues --    2.48431   2.49009   2.49286   2.49542   2.50006
 Alpha virt. eigenvalues --    2.50521   2.50974   2.51128   2.51298   2.51864
 Alpha virt. eigenvalues --    2.52178   2.52610   2.52993   2.53281   2.53541
 Alpha virt. eigenvalues --    2.53767   2.53959   2.54534   2.54708   2.55193
 Alpha virt. eigenvalues --    2.55468   2.55858   2.56254   2.56387   2.56956
 Alpha virt. eigenvalues --    2.57451   2.57551   2.57739   2.57887   2.58031
 Alpha virt. eigenvalues --    2.58407   2.58736   2.59235   2.59397   2.59884
 Alpha virt. eigenvalues --    2.60123   2.60613   2.60970   2.61083   2.61943
 Alpha virt. eigenvalues --    2.62267   2.62435   2.62828   2.62980   2.63654
 Alpha virt. eigenvalues --    2.64272   2.64406   2.64715   2.65219   2.65808
 Alpha virt. eigenvalues --    2.66124   2.66644   2.66882   2.67279   2.67643
 Alpha virt. eigenvalues --    2.67798   2.68479   2.68864   2.68967   2.69234
 Alpha virt. eigenvalues --    2.69310   2.69793   2.70571   2.70888   2.71360
 Alpha virt. eigenvalues --    2.71557   2.71647   2.71861   2.72635   2.72775
 Alpha virt. eigenvalues --    2.73330   2.73886   2.74361   2.74576   2.75333
 Alpha virt. eigenvalues --    2.75412   2.75538   2.76003   2.76656   2.77023
 Alpha virt. eigenvalues --    2.77292   2.78169   2.78714   2.78852   2.79419
 Alpha virt. eigenvalues --    2.79831   2.80311   2.80724   2.81530   2.82142
 Alpha virt. eigenvalues --    2.82543   2.83539   2.84235   2.84656   2.84887
 Alpha virt. eigenvalues --    2.85183   2.85550   2.86182   2.86570   2.87381
 Alpha virt. eigenvalues --    2.87801   2.89866   2.90066   2.90503   2.90804
 Alpha virt. eigenvalues --    2.91075   2.91920   2.92803   2.93185   2.93537
 Alpha virt. eigenvalues --    2.93995   2.94456   2.94733   2.94956   2.95500
 Alpha virt. eigenvalues --    2.95830   2.96617   2.96889   2.97690   2.98267
 Alpha virt. eigenvalues --    2.98592   2.99110   2.99778   3.00006   3.00462
 Alpha virt. eigenvalues --    3.01224   3.01610   3.02383   3.02673   3.03703
 Alpha virt. eigenvalues --    3.04284   3.05143   3.05187   3.05761   3.06289
 Alpha virt. eigenvalues --    3.06692   3.07069   3.07225   3.07468   3.07693
 Alpha virt. eigenvalues --    3.08276   3.09021   3.09281   3.10968   3.11357
 Alpha virt. eigenvalues --    3.11462   3.12048   3.12271   3.13269   3.13684
 Alpha virt. eigenvalues --    3.14237   3.14855   3.15416   3.15582   3.16237
 Alpha virt. eigenvalues --    3.17167   3.18301   3.18584   3.20637   3.21147
 Alpha virt. eigenvalues --    3.21757   3.21864   3.22387   3.23146   3.23301
 Alpha virt. eigenvalues --    3.24842   3.25310   3.26796   3.28317   3.28787
 Alpha virt. eigenvalues --    3.29297   3.29913   3.30795   3.32194   3.32576
 Alpha virt. eigenvalues --    3.32763   3.34069   3.35192   3.36156   3.37495
 Alpha virt. eigenvalues --    3.39451   3.41010   3.41894   3.42598   3.44373
 Alpha virt. eigenvalues --    3.46342   3.46994   3.47501   3.48788   3.50866
 Alpha virt. eigenvalues --    3.51039   3.53347   3.55150   3.57492   3.58499
 Alpha virt. eigenvalues --    3.59052   3.60902   3.61877   3.64783   3.66101
 Alpha virt. eigenvalues --    3.66971   3.68254   3.69716   3.70860   3.75316
 Alpha virt. eigenvalues --    3.76709   3.77525   3.79396   3.85226   3.86329
 Alpha virt. eigenvalues --    3.87433   3.88315   3.89579   3.90048   3.91372
 Alpha virt. eigenvalues --    3.92684   3.98474   4.00008   4.03428   4.09559
 Alpha virt. eigenvalues --    4.11232   4.12923   4.20662   4.22910   4.27692
 Alpha virt. eigenvalues --    4.29372   4.30700   4.32790   4.41261   4.45036
 Alpha virt. eigenvalues --    4.99038   5.04114
          Condensed to atoms (all electrons):
 Mulliken charges:
               1
     1  C    0.937209
     2  C    0.552416
     3  C    0.110312
     4  C    0.676287
     5  H   -0.849586
     6  C    0.684157
     7  C    0.890623
     8  H   -0.936882
     9  C    0.416400
    10  C    0.753554
    11  H   -0.984755
    12  C    0.627583
    13  H   -0.634149
    14  H   -0.715077
    15  C    1.377160
    16  C    0.424061
    17  C    0.209216
    18  C    0.710370
    19  H   -1.115511
    20  C    0.087581
    21  C    0.934225
    22  H   -0.887868
    23  C    0.388188
    24  C    0.807887
    25  H   -0.922848
    26  C    0.415531
    27  H   -0.700081
    28  H   -0.911127
    29  C   -3.518698
    30  C    1.389498
    31  N   -0.405311
    32  N   -0.491793
    33  C    1.653251
    34  C   -3.672105
    35  N   -0.477351
    36  N   -0.055714
    37  C    1.245965
    38  C   -3.204068
    39  N   -0.723703
    40  N    0.068525
    41  C   -3.642492
    42  C    1.619773
    43  N   -0.090587
    44  N   -0.491787
    45  H    0.026007
    46  H   -0.003300
    47  H    0.029254
    48  H   -0.003533
    49  H   -0.142561
    50  H   -0.257425
    51  H   -0.198704
    52  H   -0.153871
    53  H   -0.175133
    54  H   -0.222203
    55  C    1.427196
    56  H   -0.005294
    57  H    0.013745
    58  H   -0.041232
    59  C    1.455307
    60  H    0.048452
    61  H    0.020738
    62  H   -0.051795
    63  C    1.466555
    64  H   -0.045521
    65  H   -0.026513
    66  H    0.002437
    67  C    1.449265
    68  H   -0.045078
    69  H    0.041694
    70  H    0.011607
    71  C    1.540640
    72  H    0.065551
    73  H    0.044206
    74  H   -0.174424
    75  H   -0.279017
    76  H   -0.123030
    77  C    1.455189
    78  H   -0.067280
    79  H   -0.069426
    80  H    0.014365
    81  C    1.478976
    82  H    0.029010
    83  H   -0.137534
    84  H    0.058373
    85  C    1.509890
    86  H   -0.037770
    87  H    0.000003
    88  H   -0.026057
    89  H   -0.676884
    90  H   -0.773154
 Sum of Mulliken charges =   0.00000
 Mulliken charges with hydrogens summed into heavy atoms:
               1
     1  C    0.937209
     2  C   -0.162662
     3  C   -0.739273
     4  C    0.676287
     6  C   -0.252726
     7  C    0.890623
     9  C   -0.568354
    10  C    0.119404
    12  C   -0.049300
    15  C    1.377160
    16  C   -0.349092
    17  C   -0.906295
    18  C    0.710370
    20  C   -0.800287
    21  C    0.934225
    23  C   -0.534660
    24  C    0.107806
    26  C   -0.495595
    29  C   -3.518698
    30  C    1.036923
    31  N   -0.405311
    32  N   -0.491793
    33  C    1.253265
    34  C   -3.672105
    35  N   -0.477351
    36  N   -0.033006
    37  C    0.843918
    38  C   -3.204068
    39  N   -0.723703
    40  N    0.068525
    41  C   -3.642492
    42  C    1.222436
    43  N   -0.064866
    44  N   -0.491787
    55  C    1.394415
    59  C    1.472702
    63  C    1.396958
    67  C    1.457486
    71  C    1.475974
    77  C    1.332848
    81  C    1.428824
    85  C    1.446067
 Electronic spatial extent (au):  <R**2>=          30726.3979
 Charge=              0.0000 electrons
 Dipole moment (field-independent basis, Debye):
    X=             -2.0611    Y=             -1.0783    Z=              0.3144  Tot=              2.3473
 Quadrupole moment (field-independent basis, Debye-Ang):
   XX=           -274.6167   YY=           -258.2033   ZZ=           -240.2913
   XY=             -2.6622   XZ=             -7.4814   YZ=              6.3136
 Traceless Quadrupole moment (field-independent basis, Debye-Ang):
   XX=            -16.9129   YY=             -0.4996   ZZ=             17.4125
   XY=             -2.6622   XZ=             -7.4814   YZ=              6.3136
 Octapole moment (field-independent basis, Debye-Ang**2):
  XXX=           -278.9057  YYY=            -63.5324  ZZZ=             13.7863  XYY=             40.9127
  XXY=             35.8736  XXZ=            -20.5791  XZZ=             14.0640  YZZ=            -34.2320
  YYZ=             26.0436  XYZ=            -49.9743
 Hexadecapole moment (field-independent basis, Debye-Ang**3):
 XXXX=         -20674.5785 YYYY=         -13056.5561 ZZZZ=          -9980.1819 XXXY=           -770.3329
 XXXZ=            -88.4406 YYYX=            263.1778 YYYZ=            269.3024 ZZZX=             68.7385
 ZZZY=             17.1111 XXYY=          -5459.5542 XXZZ=          -4837.6732 YYZZ=          -3856.7883
 XXYZ=             30.6236 YYXZ=           -229.2988 ZZXY=            125.5169
 N-N= 4.870687458515D+03 E-N=-1.382585592396D+04  KE= 1.750731798489D+03
 Leave Link  601 at Tue Oct 26 04:29:24 2021, MaxMem=  7864320000 cpu:              59.3 elap:               2.3
 (Enter /apps/gaussian/g16-c01-avx/g16/l9999.exe)
 Unable to Open any file for archive entry.
 1\1\GINC-CX3-6-15\SP\RMP2-FC\Aug-CC-pVDZ\C34H48N8\ATARZIA\26-Oct-2021\
 0\\#P MP2/aug-cc-pVDZ SP SCF=(YQC,MaxCycle=900) int=(Grid=Superfinegri
 d) SCRF=(PCM,Solvent=Dichloromethane)\\_2_alde1_4_ami2_2_opt_dcm_mp2\\
 0,1\C,0,-3.9992,-2.1149,-1.8823\C,0,-4.1306,-2.469,-0.4756\C,0,-3.4057
 ,-2.9911,-2.7828\C,0,-3.1976,-2.6134,-4.1104\H,0,-3.1006,-3.9799,-2.47
 58\C,0,-3.5438,-1.3293,-4.5177\C,0,-4.1394,-0.4397,-3.6249\H,0,-3.3553
 ,-0.9962,-5.527\C,0,-4.3917,-0.8517,-2.3218\C,0,-4.4218,0.937,-3.9985\
 H,0,-4.8637,-0.19,-1.6133\C,0,-2.6049,-3.543,-5.0609\H,0,-4.99,1.5183,
 -3.2571\H,0,-3.5407,-3.3392,-0.1479\C,0,-2.2111,1.0061,0.174\C,0,-3.39
 86,0.585,0.9064\C,0,-2.3574,1.6889,-1.0278\C,0,-1.2483,2.0022,-1.8122\
 H,0,-3.3328,1.9664,-1.3946\C,0,0.0206,1.6711,-1.3532\C,0,0.1879,1.0263
 ,-0.1266\H,0,0.9015,1.9033,-1.9327\C,0,-0.9319,0.6788,0.6208\C,0,1.521
 ,0.7078,0.363\H,0,-0.8364,0.1483,1.5561\C,0,-1.4195,2.6003,-3.1327\H,0
 ,1.5603,0.1623,1.3206\H,0,-0.5175,2.5857,-3.7562\C,0,-4.5057,-0.7687,2
 .4967\C,0,-4.8181,-2.0806,1.7184\N,0,-3.3266,-0.2152,1.8787\N,0,-4.837
 8,-1.7956,0.322\C,0,-1.6983,-5.6026,-5.6827\C,0,-0.2942,-6.055,-5.1824
 \N,0,-2.2916,-4.7211,-4.7356\N,0,-0.3476,-6.611,-3.8417\C,0,-4.147,2.8
 657,-5.2344\C,0,-2.8102,3.554,-4.8253\N,0,-3.9956,1.4561,-5.0675\N,0,-
 2.534,3.0531,-3.5051\C,0,4.4987,2.1112,0.7527\C,0,3.848,0.7776,0.2692\
 N,0,3.7257,2.7465,1.8048\N,0,2.5607,1.0358,-0.2738\H,0,-0.7395,-5.9216
 ,-3.209\H,0,-0.9548,-7.4236,-3.8223\H,0,2.8011,2.991,1.4665\H,0,3.6185
 ,2.1247,2.5991\H,0,-1.61,-5.1562,-6.6874\H,0,-2.3391,-6.4894,-5.7452\H
 ,0,-5.8122,-2.4237,2.019\H,0,-4.0762,-2.8523,1.9785\H,0,3.8156,0.0719,
 1.119\H,0,4.469,0.3571,-0.5251\C,0,4.5952,3.0873,-0.4191\H,0,5.2625,2.
 6998,-1.1836\H,0,4.9737,4.0417,-0.0638\H,0,3.612,3.236,-0.8572\C,0,5.8
 897,1.8054,1.3093\H,0,6.3383,2.7246,1.6753\H,0,6.527,1.3807,0.5386\H,0
 ,5.8267,1.1007,2.1361\C,0,0.6499,-4.8514,-5.1563\H,0,1.615,-5.1591,-4.
 7643\H,0,0.2481,-4.0706,-4.5139\H,0,0.7843,-4.4474,-6.1565\C,0,0.2476,
 -7.1273,-6.1284\H,0,-0.4206,-7.9854,-6.1585\H,0,1.2191,-7.4604,-5.7744
 \H,0,0.3531,-6.7338,-7.136\C,0,-1.7477,3.2669,-5.8901\H,0,-1.5898,2.19
 44,-5.9755\H,0,-0.8068,3.7552,-5.644\H,0,-2.0862,3.6474,-6.85\H,0,-4.3
 541,3.0785,-6.2848\H,0,-4.9508,3.2739,-4.603\C,0,-3.0435,5.0642,-4.702
 8\H,0,-2.1062,5.5644,-4.4691\H,0,-3.7514,5.2692,-3.9038\H,0,-3.4337,5.
 4616,-5.6362\C,0,-5.7467,0.132,2.469\H,0,-5.4879,1.1394,2.7901\H,0,-6.
 4983,-0.2668,3.1456\H,0,-6.1712,0.1689,1.4695\C,0,-4.1323,-1.1131,3.94
 05\H,0,-3.1982,-1.6679,3.9562\H,0,-4.9114,-1.7108,4.4071\H,0,-3.9982,-
 0.1982,4.5125\H,0,-2.4611,-3.1566,-6.082\H,0,-4.3388,0.9862,0.5135\\Ve
 rsion=ES64L-G16RevC.01\State=1-A\HF=-1751.2116969\MP2=-1757.4183638\RM
 SD=8.295e-09\PG=C01 [X(C34H48N8)]\\@
 The archive entry for this job was punched.


 One man practicing sportsmanship is far better than 50 preaching it.
 -- Knute K. Rockne
 Job cpu time:      12 days 17 hours 49 minutes 39.1 seconds.
 Elapsed time:       0 days  9 hours 51 minutes 52.3 seconds.
 File lengths (MBytes):  RWF=2419064 Int=      0 D2E=      0 Chk=    144 Scr=     16
 Normal termination of Gaussian 16 at Tue Oct 26 04:29:26 2021.
