 Entering Gaussian System, Link 0=g16
 Initial command:
 /apps/gaussian/g16-c01-avx/g16/l1.exe "/rds/general/ephemeral/user/atarzia/ephemeral/Gau-3440263.inp" -scrdir="/rds/general/ephemeral/user/atarzia/ephemeral/"
 Entering Link 1 = /apps/gaussian/g16-c01-avx/g16/l1.exe PID=   3440264.
  
 Copyright (c) 1988-2019, Gaussian, Inc.  All Rights Reserved.
  
 This is part of the Gaussian(R) 16 program.  It is based on
 the Gaussian(R) 09 system (copyright 2009, Gaussian, Inc.),
 the Gaussian(R) 03 system (copyright 2003, Gaussian, Inc.),
 the Gaussian(R) 98 system (copyright 1998, Gaussian, Inc.),
 the Gaussian(R) 94 system (copyright 1995, Gaussian, Inc.),
 the Gaussian 92(TM) system (copyright 1992, Gaussian, Inc.),
 the Gaussian 90(TM) system (copyright 1990, Gaussian, Inc.),
 the Gaussian 88(TM) system (copyright 1988, Gaussian, Inc.),
 the Gaussian 86(TM) system (copyright 1986, Carnegie Mellon
 University), and the Gaussian 82(TM) system (copyright 1983,
 Carnegie Mellon University). Gaussian is a federally registered
 trademark of Gaussian, Inc.
  
 This software contains proprietary and confidential information,
 including trade secrets, belonging to Gaussian, Inc.
  
 This software is provided under written license and may be
 used, copied, transmitted, or stored only in accord with that
 written license.
  
 The following legend is applicable only to US Government
 contracts under FAR:
  
                    RESTRICTED RIGHTS LEGEND
  
 Use, reproduction and disclosure by the US Government is
 subject to restrictions as set forth in subparagraphs (a)
 and (c) of the Commercial Computer Software - Restricted
 Rights clause in FAR 52.227-19.
  
 Gaussian, Inc.
 340 Quinnipiac St., Bldg. 40, Wallingford CT 06492
  
  
 ---------------------------------------------------------------
 Warning -- This program may not be used in any manner that
 competes with the business of Gaussian, Inc. or will provide
 assistance to any competitor of Gaussian, Inc.  The licensee
 of this program is prohibited from giving any competitor of
 Gaussian, Inc. access to this program.  By using this program,
 the user acknowledges that Gaussian, Inc. is engaged in the
 business of creating and licensing software in the field of
 computational chemistry and represents and warrants to the
 licensee that it is not a competitor of Gaussian, Inc. and that
 it will not use this program in any manner prohibited above.
 ---------------------------------------------------------------
  

 Cite this work as:
 Gaussian 16, Revision C.01,
 M. J. Frisch, G. W. Trucks, H. B. Schlegel, G. E. Scuseria, 
 M. A. Robb, J. R. Cheeseman, G. Scalmani, V. Barone, 
 G. A. Petersson, H. Nakatsuji, X. Li, M. Caricato, A. V. Marenich, 
 J. Bloino, B. G. Janesko, R. Gomperts, B. Mennucci, H. P. Hratchian, 
 J. V. Ortiz, A. F. Izmaylov, J. L. Sonnenberg, D. Williams-Young, 
 F. Ding, F. Lipparini, F. Egidi, J. Goings, B. Peng, A. Petrone, 
 T. Henderson, D. Ranasinghe, V. G. Zakrzewski, J. Gao, N. Rega, 
 G. Zheng, W. Liang, M. Hada, M. Ehara, K. Toyota, R. Fukuda, 
 J. Hasegawa, M. Ishida, T. Nakajima, Y. Honda, O. Kitao, H. Nakai, 
 T. Vreven, K. Throssell, J. A. Montgomery, Jr., J. E. Peralta, 
 F. Ogliaro, M. J. Bearpark, J. J. Heyd, E. N. Brothers, K. N. Kudin, 
 V. N. Staroverov, T. A. Keith, R. Kobayashi, J. Normand, 
 K. Raghavachari, A. P. Rendell, J. C. Burant, S. S. Iyengar, 
 J. Tomasi, M. Cossi, J. M. Millam, M. Klene, C. Adamo, R. Cammi, 
 J. W. Ochterski, R. L. Martin, K. Morokuma, O. Farkas, 
 J. B. Foresman, and D. J. Fox, Gaussian, Inc., Wallingford CT, 2019.
 
 ******************************************
 Gaussian 16:  ES64L-G16RevC.01  3-Jul-2019
                18-Oct-2021 
 ******************************************
 %chk=_2_alde1_3_ami1_2_opt_gas.chk
 %mem=60000mb
 %nprocshared=32
 Will use up to   32 processors via shared memory.
 ----------------------------------------------------------------------
 #P PBE1PBE/Def2TZVP SP SCF=(YQC,MaxCycle=900) int=(Grid=Superfinegrid)
  EmpiricalDispersion=GD3
 ----------------------------------------------------------------------
 1/38=1,172=1/1;
 2/12=2,17=6,18=5,40=1/2;
 3/5=44,7=101,11=2,25=1,30=1,74=-13,75=-7,124=31/1,2,3;
 4//1;
 5/5=2,7=900,8=4,13=1,38=1/8,2,8;
 6/7=2,8=2,9=2,10=2,28=1/1;
 99/5=1,9=1/99;
 Leave Link    1 at Mon Oct 18 16:59:51 2021, MaxMem=  7864320000 cpu:               5.0 elap:               0.2
 (Enter /apps/gaussian/g16-c01-avx/g16/l101.exe)
 -------------------------
 _2_alde1_3_ami1_2_opt_gas
 -------------------------
 Symbolic Z-matrix:
 Charge =  0 Multiplicity = 1
 C                    -3.2487    1.2422    0.4723 
 C                    -2.8764    0.3859    1.5884 
 C                    -2.6988    2.5144    0.3747 
 C                    -2.9145    3.2943   -0.7621 
 H                    -2.0752    2.9115    1.1628 
 C                    -3.6728    2.7908   -1.8111 
 C                    -4.2139    1.508    -1.7363 
 H                    -3.8189    3.3597   -2.7164 
 C                    -4.0145    0.7515   -0.5863 
 C                    -4.7984    0.8974   -2.9216 
 H                    -4.4086   -0.2504   -0.5077 
 C                    -2.2656    4.603    -0.8797 
 H                    -5.0868   -0.1596   -2.8241 
 H                    -2.1651    0.8301    2.3011 
 C                    -0.8156   -0.4704   -1.1102 
 C                    -1.266    -1.5279   -0.2198 
 C                    -1.4382   -0.3177   -2.3433 
 C                    -1.1556    0.7794   -3.1564 
 H                    -2.1776   -1.0268   -2.6825 
 C                    -0.2122    1.709    -2.7352 
 C                     0.4496    1.5513   -1.5165 
 H                     0.0254    2.5714   -3.3396 
 C                     0.1345    0.467    -0.7057 
 C                     1.4741    2.5003   -1.1001 
 H                     0.6076    0.3378    0.2559 
 C                    -1.9191    1.0003   -4.3765 
 H                    -1.7279    1.953    -4.8941 
 C                    -1.5798   -2.5247    1.8499 
 C                    -2.6266   -1.6684    2.6396 
 N                    -0.8843   -1.6247    0.9791 
 H                    -2.1473   -3.2704    1.2679 
 C                    -0.5768   -3.2533    2.7604 
 N                    -3.255    -0.8138    1.6794 
 H                    -2.0676   -1.0768    3.3838 
 C                    -3.6861   -2.5175    3.3631 
 H                    -1.1385   -3.8262    3.5053 
 C                     0.234    -4.2315    1.9099 
 C                    -4.4853   -1.612     4.3006 
 C                    -4.63     -3.2175    2.3893 
 O                    -1.4932    5.0675   -0.0782 
 C                    -5.0816    0.7879   -5.2273 
 C                    -3.6693    0.5209   -5.8488 
 N                    -4.8404    1.5141   -4.0208 
 H                    -5.5377   -0.1942   -5.0166 
 C                    -6.0056    1.5878   -6.1611 
 N                    -2.7946    0.1822   -4.7686 
 H                    -3.3455    1.4532   -6.3425 
 C                    -3.6862   -0.6175   -6.8865 
 H                    -5.9559    1.1408   -7.1597 
 C                    -7.4426    1.4802   -5.6516 
 H                    -4.5358   -0.4549   -7.558 
 C                    -2.3997   -0.5632   -7.7099 
 C                     2.3582    5.8487   -1.3391 
 C                     2.8474    4.3648   -1.4197 
 N                     1.0389    6.0805   -1.8986 
 H                     3.0484    6.4537   -1.9436 
 C                     2.4056    6.4273    0.0895 
 N                     1.7673    3.5093   -1.7944 
 H                     3.2694    4.0654   -0.4451 
 C                     3.976     4.2004   -2.4672 
 H                     1.9004    7.3967    0.0195 
 C                     1.6588    5.5878    1.1247 
 H                     4.7336    4.959    -2.2397 
 C                     4.623     2.8224   -2.3395 
 H                    -2.0363   -2.193    -0.6399 
 H                     0.9494    5.5717   -2.7713 
 H                     1.9913    2.2569   -0.1582 
 H                    -2.5246    5.154    -1.8037 
 C                     0.3623   -2.2855    3.4751 
 H                    -3.1698   -3.2706    3.9671 
 C                    -5.5975    3.0556   -6.2527 
 C                    -3.8253   -1.9891   -6.2318 
 C                     3.8457    6.6685    0.5389 
 C                     3.4679    4.4135   -3.8902 
 H                     0.3255    5.7239   -1.2711 
 H                    -4.1071   -3.9643    1.7977 
 H                    -5.0712   -2.4863    1.7181 
 H                    -5.4243   -3.718     2.9384 
 H                    -0.4189   -4.946     1.4125 
 H                     0.9362   -4.7832    2.5306 
 H                     0.7927   -3.6877    1.1512 
 H                     1.1362   -2.8398    4.0013 
 H                    -0.171    -1.6792    4.2025 
 H                     0.8303   -1.6284    2.748 
 H                    -4.9999   -0.8442    3.7268 
 H                    -3.8307   -1.125     5.0206 
 H                    -5.2256   -2.191     4.8477 
 H                     2.1672    4.6447    1.3142 
 H                     0.6435    5.3761    0.8022 
 H                     1.6062    6.1326    2.065 
 H                     3.8941    2.0394   -2.541 
 H                     5.0224    2.673    -1.3379 
 H                     5.4396    2.7225   -3.051 
 H                     3.8583    7.1315    1.5231 
 H                     4.3608    7.3279   -0.1562 
 H                     4.3997    5.7338    0.5973 
 H                     3.0287    5.401    -4.0032 
 H                     2.7151    3.667    -4.1299 
 H                     4.2897    4.3205   -4.5972 
 H                    -7.769     0.4424   -5.6267 
 H                    -8.1173    2.0361   -6.2982 
 H                    -7.5115    1.8891   -4.6457 
 H                    -1.5359   -0.6936   -7.0613 
 H                    -2.307     0.3922   -8.2224 
 H                    -2.3941   -1.3541   -8.4563 
 H                    -4.7636   -2.076    -5.6908 
 H                    -3.0083   -2.1478   -5.5337 
 H                    -3.7983   -2.7669   -6.9917 
 H                    -5.6128    3.5033   -5.2633 
 H                    -6.2903    3.5936   -6.8957 
 H                    -4.598     3.1637   -6.6648 
 
 ITRead=  0  0  0  0  0  0  0  0  0  0  0  0  0  0  0  0  0  0  0  0
 ITRead=  0  0  0  0  0  0  0  0  0  0  0  0  0  0  0  0  0  0  0  0
 ITRead=  0  0  0  0  0  0  0  0  0  0  0  0  0  0  0  0  0  0  0  0
 ITRead=  0  0  0  0  0  0  0  0  0  0  0  0  0  0  0  0  0  0  0  0
 ITRead=  0  0  0  0  0  0  0  0  0  0  0  0  0  0  0  0  0  0  0  0
 ITRead=  0  0  0  0  0  0  0  0  0  0  0
 MicOpt= -1 -1 -1 -1 -1 -1 -1 -1 -1 -1 -1 -1 -1 -1 -1 -1 -1 -1 -1 -1
 MicOpt= -1 -1 -1 -1 -1 -1 -1 -1 -1 -1 -1 -1 -1 -1 -1 -1 -1 -1 -1 -1
 MicOpt= -1 -1 -1 -1 -1 -1 -1 -1 -1 -1 -1 -1 -1 -1 -1 -1 -1 -1 -1 -1
 MicOpt= -1 -1 -1 -1 -1 -1 -1 -1 -1 -1 -1 -1 -1 -1 -1 -1 -1 -1 -1 -1
 MicOpt= -1 -1 -1 -1 -1 -1 -1 -1 -1 -1 -1 -1 -1 -1 -1 -1 -1 -1 -1 -1
 MicOpt= -1 -1 -1 -1 -1 -1 -1 -1 -1 -1 -1
 NAtoms=    111 NQM=      111 NQMF=       0 NMMI=      0 NMMIF=      0
                NMic=       0 NMicF=      0.
                    Isotopes and Nuclear Properties:
 (Nuclear quadrupole moments (NQMom) in fm**2, nuclear magnetic moments (NMagM)
  in nuclear magnetons)

  Atom         1           2           3           4           5           6           7           8           9          10
 IAtWgt=          12          12          12          12           1          12          12           1          12          12
 AtmWgt=  12.0000000  12.0000000  12.0000000  12.0000000   1.0078250  12.0000000  12.0000000   1.0078250  12.0000000  12.0000000
 NucSpn=           0           0           0           0           1           0           0           1           0           0
 AtZEff=  -0.0000000  -0.0000000  -0.0000000  -0.0000000  -0.0000000  -0.0000000  -0.0000000  -0.0000000  -0.0000000  -0.0000000
 NQMom=    0.0000000   0.0000000   0.0000000   0.0000000   0.0000000   0.0000000   0.0000000   0.0000000   0.0000000   0.0000000
 NMagM=    0.0000000   0.0000000   0.0000000   0.0000000   2.7928460   0.0000000   0.0000000   2.7928460   0.0000000   0.0000000
 AtZNuc=   6.0000000   6.0000000   6.0000000   6.0000000   1.0000000   6.0000000   6.0000000   1.0000000   6.0000000   6.0000000

  Atom        11          12          13          14          15          16          17          18          19          20
 IAtWgt=           1          12           1           1          12          12          12          12           1          12
 AtmWgt=   1.0078250  12.0000000   1.0078250   1.0078250  12.0000000  12.0000000  12.0000000  12.0000000   1.0078250  12.0000000
 NucSpn=           1           0           1           1           0           0           0           0           1           0
 AtZEff=  -0.0000000  -0.0000000  -0.0000000  -0.0000000  -0.0000000  -0.0000000  -0.0000000  -0.0000000  -0.0000000  -0.0000000
 NQMom=    0.0000000   0.0000000   0.0000000   0.0000000   0.0000000   0.0000000   0.0000000   0.0000000   0.0000000   0.0000000
 NMagM=    2.7928460   0.0000000   2.7928460   2.7928460   0.0000000   0.0000000   0.0000000   0.0000000   2.7928460   0.0000000
 AtZNuc=   1.0000000   6.0000000   1.0000000   1.0000000   6.0000000   6.0000000   6.0000000   6.0000000   1.0000000   6.0000000

  Atom        21          22          23          24          25          26          27          28          29          30
 IAtWgt=          12           1          12          12           1          12           1          12          12          14
 AtmWgt=  12.0000000   1.0078250  12.0000000  12.0000000   1.0078250  12.0000000   1.0078250  12.0000000  12.0000000  14.0030740
 NucSpn=           0           1           0           0           1           0           1           0           0           2
 AtZEff=  -0.0000000  -0.0000000  -0.0000000  -0.0000000  -0.0000000  -0.0000000  -0.0000000  -0.0000000  -0.0000000  -0.0000000
 NQMom=    0.0000000   0.0000000   0.0000000   0.0000000   0.0000000   0.0000000   0.0000000   0.0000000   0.0000000   2.0440000
 NMagM=    0.0000000   2.7928460   0.0000000   0.0000000   2.7928460   0.0000000   2.7928460   0.0000000   0.0000000   0.4037610
 AtZNuc=   6.0000000   1.0000000   6.0000000   6.0000000   1.0000000   6.0000000   1.0000000   6.0000000   6.0000000   7.0000000

  Atom        31          32          33          34          35          36          37          38          39          40
 IAtWgt=           1          12          14           1          12           1          12          12          12          16
 AtmWgt=   1.0078250  12.0000000  14.0030740   1.0078250  12.0000000   1.0078250  12.0000000  12.0000000  12.0000000  15.9949146
 NucSpn=           1           0           2           1           0           1           0           0           0           0
 AtZEff=  -0.0000000  -0.0000000  -0.0000000  -0.0000000  -0.0000000  -0.0000000  -0.0000000  -0.0000000  -0.0000000  -0.0000000
 NQMom=    0.0000000   0.0000000   2.0440000   0.0000000   0.0000000   0.0000000   0.0000000   0.0000000   0.0000000   0.0000000
 NMagM=    2.7928460   0.0000000   0.4037610   2.7928460   0.0000000   2.7928460   0.0000000   0.0000000   0.0000000   0.0000000
 AtZNuc=   1.0000000   6.0000000   7.0000000   1.0000000   6.0000000   1.0000000   6.0000000   6.0000000   6.0000000   8.0000000

  Atom        41          42          43          44          45          46          47          48          49          50
 IAtWgt=          12          12          14           1          12          14           1          12           1          12
 AtmWgt=  12.0000000  12.0000000  14.0030740   1.0078250  12.0000000  14.0030740   1.0078250  12.0000000   1.0078250  12.0000000
 NucSpn=           0           0           2           1           0           2           1           0           1           0
 AtZEff=  -0.0000000  -0.0000000  -0.0000000  -0.0000000  -0.0000000  -0.0000000  -0.0000000  -0.0000000  -0.0000000  -0.0000000
 NQMom=    0.0000000   0.0000000   2.0440000   0.0000000   0.0000000   2.0440000   0.0000000   0.0000000   0.0000000   0.0000000
 NMagM=    0.0000000   0.0000000   0.4037610   2.7928460   0.0000000   0.4037610   2.7928460   0.0000000   2.7928460   0.0000000
 AtZNuc=   6.0000000   6.0000000   7.0000000   1.0000000   6.0000000   7.0000000   1.0000000   6.0000000   1.0000000   6.0000000

  Atom        51          52          53          54          55          56          57          58          59          60
 IAtWgt=           1          12          12          12          14           1          12          14           1          12
 AtmWgt=   1.0078250  12.0000000  12.0000000  12.0000000  14.0030740   1.0078250  12.0000000  14.0030740   1.0078250  12.0000000
 NucSpn=           1           0           0           0           2           1           0           2           1           0
 AtZEff=  -0.0000000  -0.0000000  -0.0000000  -0.0000000  -0.0000000  -0.0000000  -0.0000000  -0.0000000  -0.0000000  -0.0000000
 NQMom=    0.0000000   0.0000000   0.0000000   0.0000000   2.0440000   0.0000000   0.0000000   2.0440000   0.0000000   0.0000000
 NMagM=    2.7928460   0.0000000   0.0000000   0.0000000   0.4037610   2.7928460   0.0000000   0.4037610   2.7928460   0.0000000
 AtZNuc=   1.0000000   6.0000000   6.0000000   6.0000000   7.0000000   1.0000000   6.0000000   7.0000000   1.0000000   6.0000000

  Atom        61          62          63          64          65          66          67          68          69          70
 IAtWgt=           1          12           1          12           1           1           1           1          12           1
 AtmWgt=   1.0078250  12.0000000   1.0078250  12.0000000   1.0078250   1.0078250   1.0078250   1.0078250  12.0000000   1.0078250
 NucSpn=           1           0           1           0           1           1           1           1           0           1
 AtZEff=  -0.0000000  -0.0000000  -0.0000000  -0.0000000  -0.0000000  -0.0000000  -0.0000000  -0.0000000  -0.0000000  -0.0000000
 NQMom=    0.0000000   0.0000000   0.0000000   0.0000000   0.0000000   0.0000000   0.0000000   0.0000000   0.0000000   0.0000000
 NMagM=    2.7928460   0.0000000   2.7928460   0.0000000   2.7928460   2.7928460   2.7928460   2.7928460   0.0000000   2.7928460
 AtZNuc=   1.0000000   6.0000000   1.0000000   6.0000000   1.0000000   1.0000000   1.0000000   1.0000000   6.0000000   1.0000000

  Atom        71          72          73          74          75          76          77          78          79          80
 IAtWgt=          12          12          12          12           1           1           1           1           1           1
 AtmWgt=  12.0000000  12.0000000  12.0000000  12.0000000   1.0078250   1.0078250   1.0078250   1.0078250   1.0078250   1.0078250
 NucSpn=           0           0           0           0           1           1           1           1           1           1
 AtZEff=  -0.0000000  -0.0000000  -0.0000000  -0.0000000  -0.0000000  -0.0000000  -0.0000000  -0.0000000  -0.0000000  -0.0000000
 NQMom=    0.0000000   0.0000000   0.0000000   0.0000000   0.0000000   0.0000000   0.0000000   0.0000000   0.0000000   0.0000000
 NMagM=    0.0000000   0.0000000   0.0000000   0.0000000   2.7928460   2.7928460   2.7928460   2.7928460   2.7928460   2.7928460
 AtZNuc=   6.0000000   6.0000000   6.0000000   6.0000000   1.0000000   1.0000000   1.0000000   1.0000000   1.0000000   1.0000000

  Atom        81          82          83          84          85          86          87          88          89          90
 IAtWgt=           1           1           1           1           1           1           1           1           1           1
 AtmWgt=   1.0078250   1.0078250   1.0078250   1.0078250   1.0078250   1.0078250   1.0078250   1.0078250   1.0078250   1.0078250
 NucSpn=           1           1           1           1           1           1           1           1           1           1
 AtZEff=  -0.0000000  -0.0000000  -0.0000000  -0.0000000  -0.0000000  -0.0000000  -0.0000000  -0.0000000  -0.0000000  -0.0000000
 NQMom=    0.0000000   0.0000000   0.0000000   0.0000000   0.0000000   0.0000000   0.0000000   0.0000000   0.0000000   0.0000000
 NMagM=    2.7928460   2.7928460   2.7928460   2.7928460   2.7928460   2.7928460   2.7928460   2.7928460   2.7928460   2.7928460
 AtZNuc=   1.0000000   1.0000000   1.0000000   1.0000000   1.0000000   1.0000000   1.0000000   1.0000000   1.0000000   1.0000000

  Atom        91          92          93          94          95          96          97          98          99         100
 IAtWgt=           1           1           1           1           1           1           1           1           1           1
 AtmWgt=   1.0078250   1.0078250   1.0078250   1.0078250   1.0078250   1.0078250   1.0078250   1.0078250   1.0078250   1.0078250
 NucSpn=           1           1           1           1           1           1           1           1           1           1
 AtZEff=  -0.0000000  -0.0000000  -0.0000000  -0.0000000  -0.0000000  -0.0000000  -0.0000000  -0.0000000  -0.0000000  -0.0000000
 NQMom=    0.0000000   0.0000000   0.0000000   0.0000000   0.0000000   0.0000000   0.0000000   0.0000000   0.0000000   0.0000000
 NMagM=    2.7928460   2.7928460   2.7928460   2.7928460   2.7928460   2.7928460   2.7928460   2.7928460   2.7928460   2.7928460
 AtZNuc=   1.0000000   1.0000000   1.0000000   1.0000000   1.0000000   1.0000000   1.0000000   1.0000000   1.0000000   1.0000000

  Atom       101         102         103         104         105         106         107         108         109         110
 IAtWgt=           1           1           1           1           1           1           1           1           1           1
 AtmWgt=   1.0078250   1.0078250   1.0078250   1.0078250   1.0078250   1.0078250   1.0078250   1.0078250   1.0078250   1.0078250
 NucSpn=           1           1           1           1           1           1           1           1           1           1
 AtZEff=  -0.0000000  -0.0000000  -0.0000000  -0.0000000  -0.0000000  -0.0000000  -0.0000000  -0.0000000  -0.0000000  -0.0000000
 NQMom=    0.0000000   0.0000000   0.0000000   0.0000000   0.0000000   0.0000000   0.0000000   0.0000000   0.0000000   0.0000000
 NMagM=    2.7928460   2.7928460   2.7928460   2.7928460   2.7928460   2.7928460   2.7928460   2.7928460   2.7928460   2.7928460
 AtZNuc=   1.0000000   1.0000000   1.0000000   1.0000000   1.0000000   1.0000000   1.0000000   1.0000000   1.0000000   1.0000000

  Atom       111
 IAtWgt=           1
 AtmWgt=   1.0078250
 NucSpn=           1
 AtZEff=  -0.0000000
 NQMom=    0.0000000
 NMagM=    2.7928460
 AtZNuc=   1.0000000
 Leave Link  101 at Mon Oct 18 16:59:52 2021, MaxMem=  7864320000 cpu:               2.2 elap:               0.1
 (Enter /apps/gaussian/g16-c01-avx/g16/l202.exe)
 Stoichiometry    C42H62N6O
 Framework group  C1[X(C42H62N6O)]
 Deg. of freedom   327
 Full point group                 C1      NOp   1
 Largest Abelian subgroup         C1      NOp   1
 Largest concise Abelian subgroup C1      NOp   1
                         Standard orientation:                         
 ---------------------------------------------------------------------
 Center     Atomic      Atomic             Coordinates (Angstroms)
 Number     Number       Type             X           Y           Z
 ---------------------------------------------------------------------
      1          6           0       -1.064629    1.426067   -1.894340
      2          6           0       -1.152811    2.840950   -1.565912
      3          6           0        0.139457    0.905012   -2.351602
      4          6           0        0.296484   -0.470816   -2.523429
      5          1           0        0.981298    1.550595   -2.557010
      6          6           0       -0.753453   -1.328527   -2.221937
      7          6           0       -1.960803   -0.822049   -1.742619
      8          1           0       -0.641482   -2.398368   -2.308329
      9          6           0       -2.113687    0.553228   -1.601937
     10          6           0       -2.964972   -1.728690   -1.204980
     11          1           0       -3.031882    0.971615   -1.218315
     12          6           0        1.596252   -1.008377   -2.934803
     13          1           0       -3.834084   -1.253047   -0.727133
     14          1           0       -0.225424    3.414162   -1.716192
     15          6           0       -0.509792    1.120698    1.415673
     16          6           0       -1.386649    2.279637    1.459952
     17          6           0       -1.071484   -0.150167    1.445456
     18          6           0       -0.286800   -1.284149    1.238139
     19          1           0       -2.131603   -0.284237    1.596334
     20          6           0        1.079692   -1.133726    1.034079
     21          6           0        1.666120    0.132831    1.038038
     22          1           0        1.713439   -1.991423    0.866128
     23          6           0        0.864263    1.254062    1.217644
     24          6           0        3.106112    0.284441    0.873639
     25          1           0        1.286437    2.247224    1.193378
     26          6           0       -0.911601   -2.594968    1.129741
     27          1           0       -0.243971   -3.419930    0.836804
     28          6           0       -1.947681    4.492313    1.053693
     29          6           0       -2.095472    4.671853   -0.495045
     30          7           0       -0.979212    3.456720    1.257722
     31          1           0       -2.934924    4.184525    1.437705
     32          6           0       -1.503521    5.775306    1.776555
     33          7           0       -2.181362    3.354670   -1.047189
     34          1           0       -1.187532    5.187088   -0.850690
     35          6           0       -3.332117    5.493965   -0.897296
     36          1           0       -2.183017    6.585394    1.492585
     37          6           0       -1.621638    5.552372    3.284524
     38          6           0       -3.237932    5.826746   -2.386572
     39          6           0       -4.636205    4.753828   -0.613069
     40          8           0        2.596156   -0.353858   -3.097782
     41          6           0       -3.589038   -3.795368   -0.340209
     42          6           0       -2.767400   -4.006728    0.975990
     43          7           0       -2.771882   -2.974580   -1.176719
     44          1           0       -4.522837   -3.277175   -0.063739
     45          6           0       -3.931477   -5.115514   -1.051230
     46          7           0       -2.151957   -2.754061    1.290167
     47          1           0       -2.007614   -4.779804    0.768991
     48          6           0       -3.646650   -4.468885    2.153441
     49          1           0       -4.320477   -5.816977   -0.305502
     50          6           0       -5.023367   -4.853930   -2.088287
     51          1           0       -4.293272   -5.278692    1.799514
     52          6           0       -2.749432   -5.014605    3.263939
     53          6           0        5.847009   -1.164662   -0.687808
     54          6           0        5.278880   -0.542911    0.630685
     55          7           0        4.900926   -1.980887   -1.426745
     56          1           0        6.665562   -1.840893   -0.404075
     57          6           0        6.455988   -0.116300   -1.640701
     58          7           0        3.861113   -0.705025    0.681207
     59          1           0        5.557145    0.523647    0.681597
     60          6           0        5.885242   -1.225308    1.881557
     61          1           0        6.667122   -0.663197   -2.566006
     62          6           0        5.510368    1.033004   -1.985681
     63          1           0        6.973913   -1.208671    1.756230
     64          6           0        5.534837   -0.434483    3.140768
     65          1           0       -2.454701    2.049818    1.596524
     66          1           0        4.385186   -2.567257   -0.779693
     67          1           0        3.487515    1.314439    0.960527
     68          1           0        1.607884   -2.106359   -3.071760
     69          6           0       -0.073242    6.172075    1.421283
     70          1           0       -3.320667    6.431621   -0.332309
     71          6           0       -2.712329   -5.735530   -1.728451
     72          6           0       -4.516963   -3.339565    2.697921
     73          6           0        7.774911    0.426181   -1.092812
     74          6           0        5.421115   -2.672111    2.022460
     75          1           0        4.223770   -1.390457   -1.898667
     76          1           0       -4.791416    4.619319    0.454144
     77          1           0       -4.613811    3.777529   -1.088632
     78          1           0       -5.477003    5.319991   -1.007331
     79          1           0       -2.642216    5.293255    3.559249
     80          1           0       -1.339232    6.452778    3.825118
     81          1           0       -0.964712    4.741439    3.591647
     82          1           0        0.248499    7.000859    2.047906
     83          1           0        0.005862    6.484459    0.383363
     84          1           0        0.589991    5.327580    1.583853
     85          1           0       -3.234427    4.910349   -2.972900
     86          1           0       -2.326008    6.379394   -2.603471
     87          1           0       -4.086940    6.432507   -2.694539
     88          1           0        5.335731    1.676590   -1.125962
     89          1           0        4.553551    0.662664   -2.342062
     90          1           0        5.949911    1.641407   -2.773327
     91          1           0        4.456640   -0.412990    3.289148
     92          1           0        5.893842    0.590575    3.067186
     93          1           0        5.992338   -0.894528    4.013751
     94          1           0        8.219486    1.118510   -1.804296
     95          1           0        8.480318   -0.382771   -0.915899
     96          1           0        7.621163    0.956486   -0.155193
     97          1           0        5.687770   -3.254005    1.144328
     98          1           0        4.341911   -2.703870    2.147906
     99          1           0        5.887582   -3.130109    2.892230
    100          1           0       -5.920175   -4.457549   -1.616267
    101          1           0       -5.285908   -5.774688   -2.603664
    102          1           0       -4.671875   -4.133397   -2.823859
    103          1           0       -2.075120   -4.236235    3.615050
    104          1           0       -2.154709   -5.852503    2.905789
    105          1           0       -3.350764   -5.355603    4.103455
    106          1           0       -5.209750   -2.975343    1.944244
    107          1           0       -3.888926   -2.512971    3.017813
    108          1           0       -5.095694   -3.694499    3.547770
    109          1           0       -2.297927   -5.036871   -2.449373
    110          1           0       -2.999411   -6.648687   -2.244778
    111          1           0       -1.940493   -5.982890   -1.004853
 ---------------------------------------------------------------------
 Rotational constants (GHZ):           0.0550867           0.0497134           0.0337256
 Leave Link  202 at Mon Oct 18 16:59:52 2021, MaxMem=  7864320000 cpu:               0.1 elap:               0.0
 (Enter /apps/gaussian/g16-c01-avx/g16/l301.exe)
 Standard basis: def2TZVP (5D, 7F)
 Ernie: Thresh=  0.10000D-02 Tol=  0.10000D-05 Strict=F.
 There are  2136 symmetry adapted cartesian basis functions of A   symmetry.
 There are  1891 symmetry adapted basis functions of A   symmetry.
  1891 basis functions,  2995 primitive gaussians,  2136 cartesian basis functions
   182 alpha electrons      182 beta electrons
       nuclear repulsion energy      6738.7003419740 Hartrees.
 IExCor= 1009 DFT=T Ex+Corr=PBE1PBE ExCW=0 ScaHFX=  0.250000
 ScaDFX=  0.750000  0.750000  1.000000  1.000000 ScalE2=  1.000000  1.000000
 IRadAn=      7 IRanWt=     -1 IRanGd=            0 ICorTp=0 IEmpDi=131
 NAtoms=  111 NActive=  111 NUniq=  111 SFac= 1.00D+00 NAtFMM=   60 NAOKFM=T Big=T
 Integral buffers will be    131072 words long.
 Raffenetti 2 integral format.
 Two-electron integral symmetry is turned on.
 R6Disp:  Grimme-D3 Dispersion energy=       -0.1007964537 Hartrees.
 Nuclear repulsion after empirical dispersion term =     6738.5995455204 Hartrees.
 Leave Link  301 at Mon Oct 18 16:59:52 2021, MaxMem=  7864320000 cpu:               0.8 elap:               0.0
 (Enter /apps/gaussian/g16-c01-avx/g16/l302.exe)
 NPDir=0 NMtPBC=     1 NCelOv=     1 NCel=       1 NClECP=     1 NCelD=      1
         NCelK=      1 NCelE2=     1 NClLst=     1 CellRange=     0.0.
 One-electron integrals computed using PRISM.
 One-electron integral symmetry used in STVInt
   1 Symmetry operations used in ECPInt.
 ECPInt:  NShTT=  310078 NPrTT=  915892 LenC2=  217757 LenP2D=  423814.
 LDataN:  DoStor=T MaxTD1= 6 Len=  172
 NBasis=  1891 RedAO= T EigKep=  4.25D-06  NBF=  1891
 NBsUse=  1891 1.00D-06 EigRej= -1.00D+00 NBFU=  1891
 Precomputing XC quadrature grid using
 IXCGrd= 4 IRadAn=           7 IRanWt=          -1 IRanGd=           0 AccXCQ= 0.00D+00.
 Generated NRdTot=       0 NPtTot=           0 NUsed=           0 NTot=          32
 NSgBfM=  1968  1968  1968  1968  1968 MxSgAt=   111 MxSgA2=   111.
 Leave Link  302 at Mon Oct 18 16:59:59 2021, MaxMem=  7864320000 cpu:             233.6 elap:               7.4
 (Enter /apps/gaussian/g16-c01-avx/g16/l303.exe)
 DipDrv:  MaxL=1.
 Leave Link  303 at Mon Oct 18 17:00:00 2021, MaxMem=  7864320000 cpu:              13.6 elap:               0.5
 (Enter /apps/gaussian/g16-c01-avx/g16/l401.exe)
 ExpMin= 9.52D-02 ExpMax= 2.70D+04 ExpMxC= 9.22D+02 IAcc=3 IRadAn=         7 AccDes= 0.00D+00
 Harris functional with IExCor= 1009 and IRadAn=       7 diagonalized for initial guess.
 HarFok:  IExCor= 1009 AccDes= 0.00D+00 IRadAn=         7 IDoV= 1 UseB2=F ITyADJ=14
 ICtDFT=  3500011 ScaDFX=  1.000000  1.000000  1.000000  1.000000
 FoFCou: FMM=F IPFlag=           0 FMFlag=      100000 FMFlg1=        2001
         NFxFlg=           0 DoJE=T BraDBF=F KetDBF=T FulRan=T
         wScrn=  0.000000 ICntrl=       500 IOpCl=  0 I1Cent=   200000004 NGrid=           0
         NMat0=    1 NMatS0=      1 NMatT0=    0 NMatD0=    1 NMtDS0=    0 NMtDT0=    0
 Petite list used in FoFCou.
 Harris En= -2040.65375363143    
 JPrj=0 DoOrth=F DoCkMO=F.
 Leave Link  401 at Mon Oct 18 17:00:26 2021, MaxMem=  7864320000 cpu:             856.1 elap:              27.0
 (Enter /apps/gaussian/g16-c01-avx/g16/l508.exe)
 Integral symmetry usage will be decided dynamically.
 Tight linear equation convergence will be used.
 RPBE1PBE wavefunction.
 Linear searches until partial convergence.
 Full line searches.
 Fock matrices will be formed incrementally for  20 cycles.
 FoFJK:  IHMeth= 1 ICntrl=       0 DoSepK=F KAlg= 0 I1Cent=           0 FoldK=F
 IRaf= 680000000 NMat=       1 IRICut=       1 DoRegI=T DoRafI=F ISym2E= 1 IDoP0=0 IntGTp=1.
 FoFCou: FMM=T IPFlag=           0 FMFlag=      100000 FMFlg1=        2001
         NFxFlg=           0 DoJE=F BraDBF=F KetDBF=F FulRan=T
         wScrn=  0.000000 ICntrl=         0 IOpCl=  0 I1Cent=           0 NGrid=           0
         NMat0=    1 NMatS0=      1 NMatT0=    0 NMatD0=    1 NMtDS0=    0 NMtDT0=    0
 Petite list used in FoFCou.
 FMM levels:  10  Number of levels for PrismC:   9
 Iteration   1 EE= -2038.51139056343                                    Grad=1.710D+00 Max rot=    2.4180 deg.
 Gradient too large for Newton-Raphson -- use scaled steepest descent instead.
 Alpha Gap=     0.158 HL deriv= 1.40D-03
     ILin= 1 X=0.000D+00 Y=-2.038511390563D+03 DE= 0.00D+00 F= -6.03D+00
 RMSU=  4.96D-04    CP:  9.92D-01
     ILin= 2 X=3.000D-01 Y=-2.039683821309D+03 DE=-1.17D+00 F= -1.77D+00 OKLS=F
 RMSU=  7.64D-05    CP:  9.89D-01  1.71D+00
     ILin= 3 X=5.000D-01 Y=-2.039748745709D+03 DE=-1.24D+00 F=  1.12D+00
     Accept linear search using points  2 and  3.
     An  expanding polynomial of degree  3 produced  0.3955
 RMSU=  5.91D-08    CP:  9.91D-01  1.34D+00  3.78D-01
 Iteration   2 EE= -2039.78671845587     Delta-E=       -1.275327892436 Grad=5.000D-01 Max rot=    1.7210 deg.
 Gradient too large for Newton-Raphson -- use scaled steepest descent instead.
 Alpha Gap=     0.180 HL deriv= 1.40D-02
     ILin= 1 X=0.000D+00 Y=-2.039786718456D+03 DE= 0.00D+00 F= -2.39D-01
 RMSU=  1.06D-04    CP:  9.86D-01  1.46D+00  4.20D-01 -3.00D+00
     ILin= 2 X=3.000D-01 Y=-2.039839569641D+03 DE=-5.29D-02 F= -1.14D-01 OKLS=F
 RMSU=  1.32D-05    CP:  9.80D-01  1.63D+00  6.22D-01 -3.00D+00  2.32D+00
     ILin= 3 X=7.000D-01 Y=-2.039852118280D+03 DE=-6.54D-02 F=  5.09D-02
     Accept linear search using points  2 and  3.
     An  expanding polynomial of degree  3 produced  0.5079
 RMSU=  4.42D-08    CP:  9.82D-01  1.55D+00  5.04D-01 -3.00D+00  1.69D+00
                    CP:  3.77D-01
 Iteration   3 EE= -2039.85431732290     Delta-E=       -0.067598867032 Grad=2.262D-01 Max rot=    0.7704 deg.
 Gradient too large for Newton-Raphson -- use scaled steepest descent instead.
 Alpha Gap=     0.171 HL deriv= 1.34D-02
     ILin= 1 X=0.000D+00 Y=-2.039854317323D+03 DE= 0.00D+00 F= -5.07D-02
 RMSU=  6.98D-05    CP:  9.81D-01  1.70D+00  8.58D-01 -3.00D+00  2.16D+00
                    CP:  6.25D-01  3.00D+00
     ILin= 2 X=4.000D-01 Y=-2.039865252832D+03 DE=-1.09D-02 F= -3.96D-03 OKLS=F
 RMSU=  5.99D-06    CP:  9.80D-01  1.89D+00  1.41D+00 -3.00D+00  2.75D+00
                    CP:  1.29D+00  3.00D+00  2.26D+00
     ILin= 3 X=9.000D-01 Y=-2.039852572027D+03 DE= 1.75D-03 F=  5.47D-02
     An  expanding polynomial of degree  3 produced  0.4334
     Minimum is close to point  2 DX=  3.34D-02 DF= -6.55D-05 DXR=  7.72D-02 DFR=  5.99D-03 which will be used.
 Iteration   4 EE= -2039.86525283192     Delta-E=       -0.010935509019 Grad=1.248D-01 Max rot=    0.4546 deg.
 Gradient too large for Newton-Raphson -- use scaled steepest descent instead.
 Alpha Gap=     0.178 HL deriv= 5.93D-03
     ILin= 1 X=0.000D+00 Y=-2.039865252832D+03 DE= 0.00D+00 F= -1.20D-02
 RMSU=  2.87D-05    CP:  9.79D-01  1.74D+00  9.60D-01 -3.00D+00  2.65D+00
                    CP:  1.10D+00 -3.00D+00  1.14D+00 -3.76D-01
     ILin= 2 X=5.000D-01 Y=-2.039868396182D+03 DE=-3.14D-03 F= -5.86D-04 OKLS=T
     Reject lnstep IMin12=  1  2 Big=T Turn=F Min= 6.132D-01 FVal=-2.039868483181D+03 Lims=  0.00D+00  5.00D-01
 RMSU=  3.86D-06    CP:  9.77D-01  1.78D+00  1.06D+00 -3.00D+00  3.00D+00
                    CP:  1.59D+00 -3.00D+00  1.26D+00 -6.44D-01  1.81D+00
     ILin= 3 X=9.000D-01 Y=-2.039866811574D+03 DE=-1.56D-03 F=  8.50D-03
     An  expanding polynomial of degree  3 produced  0.5260
     Minimum is close to point  2 DX=  2.60D-02 DF= -7.73D-06 DXR=  4.95D-02 DFR=  2.46D-03 which will be used.
 Iteration   5 EE= -2039.86839618244     Delta-E=       -0.003143350521 Grad=6.340D-02 Max rot=    0.2131 deg.
 Gradient too large for Newton-Raphson -- use scaled steepest descent instead.
 Alpha Gap=     0.174 HL deriv= 4.68D-03
     ILin= 1 X=0.000D+00 Y=-2.039868396182D+03 DE= 0.00D+00 F= -4.06D-03
 RMSU=  9.89D-06    CP:  9.78D-01  1.80D+00  1.16D+00 -3.00D+00  2.84D+00
                    CP:  1.42D+00  3.00D+00  1.57D+00 -1.28D-01  1.26D+00
                    CP: -1.21D-02
     ILin= 2 X=5.000D-01 Y=-2.039869184323D+03 DE=-7.88D-04 F=  9.07D-04 OKLS=T
     Accept linear search using points  1 and  2.
     An  expanding polynomial of degree  2 produced  0.2979
 RMSU=  1.10D-07    CP:  9.79D-01  1.78D+00  1.08D+00 -3.00D+00  2.76D+00
                    CP:  1.28D+00  3.00D+00  1.39D+00 -2.43D-01  1.16D+00
                    CP: -6.80D-03  5.94D-01
 Iteration   6 EE= -2039.86916467450     Delta-E=       -0.000768492060 Grad=3.967D-02 Max rot=    0.1454 deg.
 Gradient too large for Newton-Raphson -- use scaled steepest descent instead.
 Alpha Gap=     0.176 HL deriv= 3.13D-04
     ILin= 1 X=0.000D+00 Y=-2.039869164675D+03 DE= 0.00D+00 F= -8.48D-04
 RMSU=  1.84D-06    CP:  9.78D-01  1.81D+00  1.18D+00 -3.00D+00  2.93D+00
                    CP:  1.55D+00 -3.00D+00  1.56D+00 -2.31D-01  1.57D+00
                    CP: -6.30D-03  1.16D+00 -2.54D+00
     ILin= 2 X=5.000D-01 Y=-2.039869479625D+03 DE=-3.15D-04 F= -4.12D-04 OKLS=F
 RMSU=  2.85D-06    CP:  9.78D-01  1.84D+00  1.31D+00 -3.00D+00  3.00D+00
                    CP:  1.90D+00 -3.00D+00  1.75D+00 -1.92D-01  2.08D+00
                    CP:  3.00D+00  1.84D+00 -3.00D+00  2.08D+00
     ILin= 3 X=1.100D+00 Y=-2.039869570156D+03 DE=-4.05D-04 F=  1.10D-04
     Accept linear search using points  2 and  3.
     An  expanding polynomial of degree  3 produced  0.8797
 RMSU=  3.93D-07    CP:  9.78D-01  1.83D+00  1.26D+00 -3.00D+00  3.00D+00
                    CP:  1.77D+00 -3.00D+00  1.68D+00 -2.10D-01  1.89D+00
                    CP:  1.35D+00  1.59D+00 -3.00D+00  1.71D+00  3.45D-01
 Iteration   7 EE= -2039.86957334769     Delta-E=       -0.000408673188 Grad=5.770D-03 Max rot=    0.0135 deg.
 SCF Done:  E(RPBE1PBE) =  -2039.86957335     a.u. after    7 cycles
            Convg  =    0.5770D-02                    16 Fock formations.
              S**2 =  0.0000                  -V/T =  2.0047
 Leave Link  508 at Mon Oct 18 17:38:59 2021, MaxMem=  7864320000 cpu:           73271.7 elap:            2312.3
 (Enter /apps/gaussian/g16-c01-avx/g16/l502.exe)
 Integral symmetry usage will be decided dynamically.
 Closed shell SCF:
 Using DIIS extrapolation, IDIIS=  1040.
 NGot=  7864320000 LenX=  7855105002 LenY=  7850540370
 Requested convergence on RMS density matrix=1.00D-08 within 128 cycles.
 Requested convergence on MAX density matrix=1.00D-06.
 Requested convergence on             energy=1.00D-06.
 No special actions if energy rises.
 Fock matrices will be formed incrementally for  20 cycles.

 Cycle   1  Pass 1  IDiag  1:
 FoFJK:  IHMeth= 1 ICntrl=       0 DoSepK=F KAlg= 0 I1Cent=           0 FoldK=F
 IRaf= 680000000 NMat=       1 IRICut=       1 DoRegI=T DoRafI=F ISym2E= 0 IDoP0=0 IntGTp=1.
 FoFCou: FMM=T IPFlag=           0 FMFlag=      100000 FMFlg1=        2001
         NFxFlg=           0 DoJE=F BraDBF=F KetDBF=F FulRan=T
         wScrn=  0.000000 ICntrl=         0 IOpCl=  0 I1Cent=           0 NGrid=           0
         NMat0=    1 NMatS0=      1 NMatT0=    0 NMatD0=    1 NMtDS0=    0 NMtDT0=    0
 Symmetry not used in FoFCou.
 FMM levels:  10  Number of levels for PrismC:   9
 E= -2039.86957334768    
 DIIS: error= 4.54D-05 at cycle   1 NSaved=   1.
 NSaved= 1 IEnMin= 1 EnMin= -2039.86957334768     IErMin= 1 ErrMin= 4.54D-05
 ErrMax= 4.54D-05  0.00D+00 EMaxC= 1.00D-01 BMatC= 1.66D-05 BMatP= 1.66D-05
 IDIUse=1 WtCom= 1.00D+00 WtEn= 0.00D+00
 Coeff-Com:  0.100D+01
 Coeff:      0.100D+01
 Gap=     0.176 Goal=   None    Shift=    0.000
 RMSDP=2.11D-05 MaxDP=4.12D-03              OVMax= 1.44D-03

 Cycle   2  Pass 1  IDiag  1:
 RMSU=  2.08D-05    CP:  1.00D+00
 E= -2039.86956963162     Delta-E=        0.000003716059 Rises=F Damp=F
 DIIS: error= 8.20D-05 at cycle   2 NSaved=   2.
 NSaved= 2 IEnMin= 1 EnMin= -2039.86957334768     IErMin= 1 ErrMin= 4.54D-05
 ErrMax= 8.20D-05  0.00D+00 EMaxC= 1.00D-01 BMatC= 2.12D-05 BMatP= 1.66D-05
 IDIUse=1 WtCom= 1.00D+00 WtEn= 0.00D+00
 Coeff-Com:  0.541D+00 0.459D+00
 Coeff:      0.541D+00 0.459D+00
 Gap=     0.144 Goal=   None    Shift=    0.000
 RMSDP=5.36D-06 MaxDP=1.27D-03 DE= 3.72D-06 OVMax= 1.44D-03

 Cycle   3  Pass 1  IDiag  1:
 RMSU=  4.86D-06    CP:  1.00D+00  9.04D-01
 E= -2039.86958384080     Delta-E=       -0.000014209176 Rises=F Damp=F
 DIIS: error= 4.38D-05 at cycle   3 NSaved=   3.
 NSaved= 3 IEnMin= 3 EnMin= -2039.86958384080     IErMin= 3 ErrMin= 4.38D-05
 ErrMax= 4.38D-05  0.00D+00 EMaxC= 1.00D-01 BMatC= 5.96D-06 BMatP= 1.66D-05
 IDIUse=1 WtCom= 1.00D+00 WtEn= 0.00D+00
 Coeff-Com: -0.122D-01 0.346D+00 0.666D+00
 Coeff:     -0.122D-01 0.346D+00 0.666D+00
 Gap=     0.144 Goal=   None    Shift=    0.000
 RMSDP=2.09D-06 MaxDP=4.18D-04 DE=-1.42D-05 OVMax= 5.03D-04

 Cycle   4  Pass 1  IDiag  1:
 RMSU=  6.42D-07    CP:  1.00D+00  9.74D-01  7.34D-01
 E= -2039.86958933656     Delta-E=       -0.000005495764 Rises=F Damp=F
 DIIS: error= 1.30D-06 at cycle   4 NSaved=   4.
 NSaved= 4 IEnMin= 4 EnMin= -2039.86958933656     IErMin= 4 ErrMin= 1.30D-06
 ErrMax= 1.30D-06  0.00D+00 EMaxC= 1.00D-01 BMatC= 1.48D-08 BMatP= 5.96D-06
 IDIUse=1 WtCom= 1.00D+00 WtEn= 0.00D+00
 Coeff-Com: -0.792D-02 0.971D-01 0.191D+00 0.719D+00
 Coeff:     -0.792D-02 0.971D-01 0.191D+00 0.719D+00
 Gap=     0.144 Goal=   None    Shift=    0.000
 RMSDP=2.23D-07 MaxDP=4.82D-05 DE=-5.50D-06 OVMax= 4.08D-05

 Cycle   5  Pass 1  IDiag  1:
 RMSU=  1.88D-07    CP:  1.00D+00  9.79D-01  7.43D-01  9.08D-01
 E= -2039.86958933945     Delta-E=       -0.000000002885 Rises=F Damp=F
 DIIS: error= 1.38D-06 at cycle   5 NSaved=   5.
 NSaved= 5 IEnMin= 5 EnMin= -2039.86958933945     IErMin= 4 ErrMin= 1.30D-06
 ErrMax= 1.38D-06  0.00D+00 EMaxC= 1.00D-01 BMatC= 1.26D-08 BMatP= 1.48D-08
 IDIUse=1 WtCom= 1.00D+00 WtEn= 0.00D+00
 Coeff-Com: -0.410D-02 0.237D-01 0.480D-01 0.476D+00 0.457D+00
 Coeff:     -0.410D-02 0.237D-01 0.480D-01 0.476D+00 0.457D+00
 Gap=     0.144 Goal=   None    Shift=    0.000
 RMSDP=1.09D-07 MaxDP=4.05D-05 DE=-2.88D-09 OVMax= 2.86D-05

 Cycle   6  Pass 1  IDiag  1:
 RMSU=  6.49D-08    CP:  1.00D+00  9.79D-01  7.45D-01  9.90D-01  6.34D-01
 E= -2039.86958935118     Delta-E=       -0.000000011736 Rises=F Damp=F
 DIIS: error= 3.05D-07 at cycle   6 NSaved=   6.
 NSaved= 6 IEnMin= 6 EnMin= -2039.86958935118     IErMin= 6 ErrMin= 3.05D-07
 ErrMax= 3.05D-07  0.00D+00 EMaxC= 1.00D-01 BMatC= 6.24D-10 BMatP= 1.26D-08
 IDIUse=1 WtCom= 1.00D+00 WtEn= 0.00D+00
 Coeff-Com: -0.153D-02 0.367D-02 0.796D-02 0.187D+00 0.242D+00 0.560D+00
 Coeff:     -0.153D-02 0.367D-02 0.796D-02 0.187D+00 0.242D+00 0.560D+00
 Gap=     0.144 Goal=   None    Shift=    0.000
 RMSDP=2.63D-08 MaxDP=8.06D-06 DE=-1.17D-08 OVMax= 6.23D-06

 Cycle   7  Pass 1  IDiag  1:
 RMSU=  1.78D-08    CP:  1.00D+00  9.79D-01  7.46D-01  1.00D+00  6.83D-01
                    CP:  7.84D-01
 E= -2039.86958935161     Delta-E=       -0.000000000429 Rises=F Damp=F
 DIIS: error= 1.19D-07 at cycle   7 NSaved=   7.
 NSaved= 7 IEnMin= 7 EnMin= -2039.86958935161     IErMin= 7 ErrMin= 1.19D-07
 ErrMax= 1.19D-07  0.00D+00 EMaxC= 1.00D-01 BMatC= 9.45D-11 BMatP= 6.24D-10
 IDIUse=1 WtCom= 1.00D+00 WtEn= 0.00D+00
 Coeff-Com: -0.719D-04-0.232D-02-0.439D-02 0.236D-01 0.571D-01 0.312D+00
 Coeff-Com:  0.614D+00
 Coeff:     -0.719D-04-0.232D-02-0.439D-02 0.236D-01 0.571D-01 0.312D+00
 Coeff:      0.614D+00
 Gap=     0.144 Goal=   None    Shift=    0.000
 RMSDP=1.14D-08 MaxDP=2.72D-06 DE=-4.29D-10 OVMax= 3.01D-06

 Cycle   8  Pass 1  IDiag  1:
 RMSU=  7.62D-09    CP:  1.00D+00  9.79D-01  7.46D-01  1.01D+00  6.94D-01
                    CP:  8.64D-01  7.02D-01
 E= -2039.86958935179     Delta-E=       -0.000000000176 Rises=F Damp=F
 DIIS: error= 7.96D-08 at cycle   8 NSaved=   8.
 NSaved= 8 IEnMin= 8 EnMin= -2039.86958935179     IErMin= 8 ErrMin= 7.96D-08
 ErrMax= 7.96D-08  0.00D+00 EMaxC= 1.00D-01 BMatC= 1.16D-11 BMatP= 9.45D-11
 IDIUse=1 WtCom= 1.00D+00 WtEn= 0.00D+00
 Coeff-Com:  0.102D-03-0.156D-02-0.312D-02-0.380D-02 0.854D-02 0.120D+00
 Coeff-Com:  0.338D+00 0.542D+00
 Coeff:      0.102D-03-0.156D-02-0.312D-02-0.380D-02 0.854D-02 0.120D+00
 Coeff:      0.338D+00 0.542D+00
 Gap=     0.144 Goal=   None    Shift=    0.000
 RMSDP=4.59D-09 MaxDP=1.69D-06 DE=-1.76D-10 OVMax= 9.90D-07

 Cycle   9  Pass 1  IDiag  1:
 RMSU=  3.41D-09    CP:  1.00D+00  9.79D-01  7.46D-01  1.01D+00  6.96D-01
                    CP:  8.83D-01  8.16D-01  8.21D-01
 E= -2039.86958935175     Delta-E=        0.000000000035 Rises=F Damp=F
 DIIS: error= 2.49D-08 at cycle   9 NSaved=   9.
 NSaved= 9 IEnMin= 8 EnMin= -2039.86958935179     IErMin= 9 ErrMin= 2.49D-08
 ErrMax= 2.49D-08  0.00D+00 EMaxC= 1.00D-01 BMatC= 3.07D-12 BMatP= 1.16D-11
 IDIUse=1 WtCom= 1.00D+00 WtEn= 0.00D+00
 Coeff-Com:  0.704D-04-0.359D-03-0.800D-03-0.831D-02-0.931D-02-0.199D-02
 Coeff-Com:  0.671D-01 0.364D+00 0.590D+00
 Coeff:      0.704D-04-0.359D-03-0.800D-03-0.831D-02-0.931D-02-0.199D-02
 Coeff:      0.671D-01 0.364D+00 0.590D+00
 Gap=     0.144 Goal=   None    Shift=    0.000
 RMSDP=1.90D-09 MaxDP=6.26D-07 DE= 3.46D-11 OVMax= 5.66D-07

 SCF Done:  E(RPBE1PBE) =  -2039.86958935     A.U. after    9 cycles
            NFock=  9  Conv=0.19D-08     -V/T= 2.0047
 KE= 2.030327358091D+03 PE=-1.821611545741D+04 EE= 7.407318964452D+03
 Leave Link  502 at Mon Oct 18 18:00:26 2021, MaxMem=  7864320000 cpu:           40778.5 elap:            1287.1
 (Enter /apps/gaussian/g16-c01-avx/g16/l508.exe)
 QCSCF skips out because SCF is already converged.
 Leave Link  508 at Mon Oct 18 18:00:26 2021, MaxMem=  7864320000 cpu:               0.0 elap:               0.0
 (Enter /apps/gaussian/g16-c01-avx/g16/l601.exe)
 Copying SCF densities to generalized density rwf, IOpCl= 0 IROHF=0.
 Hyperfine terms turned off by default for NAtoms > 100.

 **********************************************************************

            Population analysis using the SCF Density.

 **********************************************************************

 Orbital symmetries:
       Occupied  (A) (A) (A) (A) (A) (A) (A) (A) (A) (A) (A) (A)
                 (A) (A) (A) (A) (A) (A) (A) (A) (A) (A) (A) (A)
                 (A) (A) (A) (A) (A) (A) (A) (A) (A) (A) (A) (A)
                 (A) (A) (A) (A) (A) (A) (A) (A) (A) (A) (A) (A)
                 (A) (A) (A) (A) (A) (A) (A) (A) (A) (A) (A) (A)
                 (A) (A) (A) (A) (A) (A) (A) (A) (A) (A) (A) (A)
                 (A) (A) (A) (A) (A) (A) (A) (A) (A) (A) (A) (A)
                 (A) (A) (A) (A) (A) (A) (A) (A) (A) (A) (A) (A)
                 (A) (A) (A) (A) (A) (A) (A) (A) (A) (A) (A) (A)
                 (A) (A) (A) (A) (A) (A) (A) (A) (A) (A) (A) (A)
                 (A) (A) (A) (A) (A) (A) (A) (A) (A) (A) (A) (A)
                 (A) (A) (A) (A) (A) (A) (A) (A) (A) (A) (A) (A)
                 (A) (A) (A) (A) (A) (A) (A) (A) (A) (A) (A) (A)
                 (A) (A) (A) (A) (A) (A) (A) (A) (A) (A) (A) (A)
                 (A) (A) (A) (A) (A) (A) (A) (A) (A) (A) (A) (A)
                 (A) (A)
       Virtual   (A) (A) (A) (A) (A) (A) (A) (A) (A) (A) (A) (A)
                 (A) (A) (A) (A) (A) (A) (A) (A) (A) (A) (A) (A)
                 (A) (A) (A) (A) (A) (A) (A) (A) (A) (A) (A) (A)
                 (A) (A) (A) (A) (A) (A) (A) (A) (A) (A) (A) (A)
                 (A) (A) (A) (A) (A) (A) (A) (A) (A) (A) (A) (A)
                 (A) (A) (A) (A) (A) (A) (A) (A) (A) (A) (A) (A)
                 (A) (A) (A) (A) (A) (A) (A) (A) (A) (A) (A) (A)
                 (A) (A) (A) (A) (A) (A) (A) (A) (A) (A) (A) (A)
                 (A) (A) (A) (A) (A) (A) (A) (A) (A) (A) (A) (A)
                 (A) (A) (A) (A) (A) (A) (A) (A) (A) (A) (A) (A)
                 (A) (A) (A) (A) (A) (A) (A) (A) (A) (A) (A) (A)
                 (A) (A) (A) (A) (A) (A) (A) (A) (A) (A) (A) (A)
                 (A) (A) (A) (A) (A) (A) (A) (A) (A) (A) (A) (A)
                 (A) (A) (A) (A) (A) (A) (A) (A) (A) (A) (A) (A)
                 (A) (A) (A) (A) (A) (A) (A) (A) (A) (A) (A) (A)
                 (A) (A) (A) (A) (A) (A) (A) (A) (A) (A) (A) (A)
                 (A) (A) (A) (A) (A) (A) (A) (A) (A) (A) (A) (A)
                 (A) (A) (A) (A) (A) (A) (A) (A) (A) (A) (A) (A)
                 (A) (A) (A) (A) (A) (A) (A) (A) (A) (A) (A) (A)
                 (A) (A) (A) (A) (A) (A) (A) (A) (A) (A) (A) (A)
                 (A) (A) (A) (A) (A) (A) (A) (A) (A) (A) (A) (A)
                 (A) (A) (A) (A) (A) (A) (A) (A) (A) (A) (A) (A)
                 (A) (A) (A) (A) (A) (A) (A) (A) (A) (A) (A) (A)
                 (A) (A) (A) (A) (A) (A) (A) (A) (A) (A) (A) (A)
                 (A) (A) (A) (A) (A) (A) (A) (A) (A) (A) (A) (A)
                 (A) (A) (A) (A) (A) (A) (A) (A) (A) (A) (A) (A)
                 (A) (A) (A) (A) (A) (A) (A) (A) (A) (A) (A) (A)
                 (A) (A) (A) (A) (A) (A) (A) (A) (A) (A) (A) (A)
                 (A) (A) (A) (A) (A) (A) (A) (A) (A) (A) (A) (A)
                 (A) (A) (A) (A) (A) (A) (A) (A) (A) (A) (A) (A)
                 (A) (A) (A) (A) (A) (A) (A) (A) (A) (A) (A) (A)
                 (A) (A) (A) (A) (A) (A) (A) (A) (A) (A) (A) (A)
                 (A) (A) (A) (A) (A) (A) (A) (A) (A) (A) (A) (A)
                 (A) (A) (A) (A) (A) (A) (A) (A) (A) (A) (A) (A)
                 (A) (A) (A) (A) (A) (A) (A) (A) (A) (A) (A) (A)
                 (A) (A) (A) (A) (A) (A) (A) (A) (A) (A) (A) (A)
                 (A) (A) (A) (A) (A) (A) (A) (A) (A) (A) (A) (A)
                 (A) (A) (A) (A) (A) (A) (A) (A) (A) (A) (A) (A)
                 (A) (A) (A) (A) (A) (A) (A) (A) (A) (A) (A) (A)
                 (A) (A) (A) (A) (A) (A) (A) (A) (A) (A) (A) (A)
                 (A) (A) (A) (A) (A) (A) (A) (A) (A) (A) (A) (A)
                 (A) (A) (A) (A) (A) (A) (A) (A) (A) (A) (A) (A)
                 (A) (A) (A) (A) (A) (A) (A) (A) (A) (A) (A) (A)
                 (A) (A) (A) (A) (A) (A) (A) (A) (A) (A) (A) (A)
                 (A) (A) (A) (A) (A) (A) (A) (A) (A) (A) (A) (A)
                 (A) (A) (A) (A) (A) (A) (A) (A) (A) (A) (A) (A)
                 (A) (A) (A) (A) (A) (A) (A) (A) (A) (A) (A) (A)
                 (A) (A) (A) (A) (A) (A) (A) (A) (A) (A) (A) (A)
                 (A) (A) (A) (A) (A) (A) (A) (A) (A) (A) (A) (A)
                 (A) (A) (A) (A) (A) (A) (A) (A) (A) (A) (A) (A)
                 (A) (A) (A) (A) (A) (A) (A) (A) (A) (A) (A) (A)
                 (A) (A) (A) (A) (A) (A) (A) (A) (A) (A) (A) (A)
                 (A) (A) (A) (A) (A) (A) (A) (A) (A) (A) (A) (A)
                 (A) (A) (A) (A) (A) (A) (A) (A) (A) (A) (A) (A)
                 (A) (A) (A) (A) (A) (A) (A) (A) (A) (A) (A) (A)
                 (A) (A) (A) (A) (A) (A) (A) (A) (A) (A) (A) (A)
                 (A) (A) (A) (A) (A) (A) (A) (A) (A) (A) (A) (A)
                 (A) (A) (A) (A) (A) (A) (A) (A) (A) (A) (A) (A)
                 (A) (A) (A) (A) (A) (A) (A) (A) (A) (A) (A) (A)
                 (A) (A) (A) (A) (A) (A) (A) (A) (A) (A) (A) (A)
                 (A) (A) (A) (A) (A) (A) (A) (A) (A) (A) (A) (A)
                 (A) (A) (A) (A) (A) (A) (A) (A) (A) (A) (A) (A)
                 (A) (A) (A) (A) (A) (A) (A) (A) (A) (A) (A) (A)
                 (A) (A) (A) (A) (A) (A) (A) (A) (A) (A) (A) (A)
                 (A) (A) (A) (A) (A) (A) (A) (A) (A) (A) (A) (A)
                 (A) (A) (A) (A) (A) (A) (A) (A) (A) (A) (A) (A)
                 (A) (A) (A) (A) (A) (A) (A) (A) (A) (A) (A) (A)
                 (A) (A) (A) (A) (A) (A) (A) (A) (A) (A) (A) (A)
                 (A) (A) (A) (A) (A) (A) (A) (A) (A) (A) (A) (A)
                 (A) (A) (A) (A) (A) (A) (A) (A) (A) (A) (A) (A)
                 (A) (A) (A) (A) (A) (A) (A) (A) (A) (A) (A) (A)
                 (A) (A) (A) (A) (A) (A) (A) (A) (A) (A) (A) (A)
                 (A) (A) (A) (A) (A) (A) (A) (A) (A) (A) (A) (A)
                 (A) (A) (A) (A) (A) (A) (A) (A) (A) (A) (A) (A)
                 (A) (A) (A) (A) (A) (A) (A) (A) (A) (A) (A) (A)
                 (A) (A) (A) (A) (A) (A) (A) (A) (A) (A) (A) (A)
                 (A) (A) (A) (A) (A) (A) (A) (A) (A) (A) (A) (A)
                 (A) (A) (A) (A) (A) (A) (A) (A) (A) (A) (A) (A)
                 (A) (A) (A) (A) (A) (A) (A) (A) (A) (A) (A) (A)
                 (A) (A) (A) (A) (A) (A) (A) (A) (A) (A) (A) (A)
                 (A) (A) (A) (A) (A) (A) (A) (A) (A) (A) (A) (A)
                 (A) (A) (A) (A) (A) (A) (A) (A) (A) (A) (A) (A)
                 (A) (A) (A) (A) (A) (A) (A) (A) (A) (A) (A) (A)
                 (A) (A) (A) (A) (A) (A) (A) (A) (A) (A) (A) (A)
                 (A) (A) (A) (A) (A) (A) (A) (A) (A) (A) (A) (A)
                 (A) (A) (A) (A) (A) (A) (A) (A) (A) (A) (A) (A)
                 (A) (A) (A) (A) (A) (A) (A) (A) (A) (A) (A) (A)
                 (A) (A) (A) (A) (A) (A) (A) (A) (A) (A) (A) (A)
                 (A) (A) (A) (A) (A) (A) (A) (A) (A) (A) (A) (A)
                 (A) (A) (A) (A) (A) (A) (A) (A) (A) (A) (A) (A)
                 (A) (A) (A) (A) (A) (A) (A) (A) (A) (A) (A) (A)
                 (A) (A) (A) (A) (A) (A) (A) (A) (A) (A) (A) (A)
                 (A) (A) (A) (A) (A) (A) (A) (A) (A) (A) (A) (A)
                 (A) (A) (A) (A) (A) (A) (A) (A) (A) (A) (A) (A)
                 (A) (A) (A) (A) (A) (A) (A) (A) (A) (A) (A) (A)
                 (A) (A) (A) (A) (A) (A) (A) (A) (A) (A) (A) (A)
                 (A) (A) (A) (A) (A) (A) (A) (A) (A) (A) (A) (A)
                 (A) (A) (A) (A) (A) (A) (A) (A) (A) (A) (A) (A)
                 (A) (A) (A) (A) (A) (A) (A) (A) (A) (A) (A) (A)
                 (A) (A) (A) (A) (A) (A) (A) (A) (A) (A) (A) (A)
                 (A) (A) (A) (A) (A) (A) (A) (A) (A) (A) (A) (A)
                 (A) (A) (A) (A) (A) (A) (A) (A) (A) (A) (A) (A)
                 (A) (A) (A) (A) (A) (A) (A) (A) (A) (A) (A) (A)
                 (A) (A) (A) (A) (A) (A) (A) (A) (A) (A) (A) (A)
                 (A) (A) (A) (A) (A) (A) (A) (A) (A) (A) (A) (A)
                 (A) (A) (A) (A) (A) (A) (A) (A) (A) (A) (A) (A)
                 (A) (A) (A) (A) (A) (A) (A) (A) (A) (A) (A) (A)
                 (A) (A) (A) (A) (A) (A) (A) (A) (A) (A) (A) (A)
                 (A) (A) (A) (A) (A) (A) (A) (A) (A) (A) (A) (A)
                 (A) (A) (A) (A) (A) (A) (A) (A) (A) (A) (A) (A)
                 (A) (A) (A) (A) (A) (A) (A) (A) (A) (A) (A) (A)
                 (A) (A) (A) (A) (A) (A) (A) (A) (A) (A) (A) (A)
                 (A) (A) (A) (A) (A) (A) (A) (A) (A) (A) (A) (A)
                 (A) (A) (A) (A) (A) (A) (A) (A) (A) (A) (A) (A)
                 (A) (A) (A) (A) (A) (A) (A) (A) (A) (A) (A) (A)
                 (A) (A) (A) (A) (A) (A) (A) (A) (A) (A) (A) (A)
                 (A) (A) (A) (A) (A) (A) (A) (A) (A) (A) (A) (A)
                 (A) (A) (A) (A) (A) (A) (A) (A) (A) (A) (A) (A)
                 (A) (A) (A) (A) (A) (A) (A) (A) (A) (A) (A) (A)
                 (A) (A) (A) (A) (A) (A) (A) (A) (A) (A) (A) (A)
                 (A) (A) (A) (A) (A) (A) (A) (A) (A) (A) (A) (A)
                 (A) (A) (A) (A) (A) (A) (A) (A) (A) (A) (A) (A)
                 (A) (A) (A) (A) (A) (A) (A) (A) (A) (A) (A) (A)
                 (A) (A) (A) (A) (A) (A) (A) (A) (A) (A) (A) (A)
                 (A) (A) (A) (A) (A) (A) (A) (A) (A) (A) (A) (A)
                 (A) (A) (A) (A) (A) (A) (A) (A) (A) (A) (A) (A)
                 (A) (A) (A) (A) (A) (A) (A) (A) (A) (A) (A) (A)
                 (A) (A) (A) (A) (A) (A) (A) (A) (A) (A) (A) (A)
                 (A) (A) (A) (A) (A) (A) (A) (A) (A) (A) (A) (A)
                 (A) (A) (A) (A) (A) (A) (A) (A) (A) (A) (A) (A)
                 (A) (A) (A) (A) (A) (A) (A) (A) (A) (A) (A) (A)
                 (A) (A) (A) (A) (A) (A) (A) (A) (A) (A) (A) (A)
                 (A) (A) (A) (A) (A) (A) (A) (A) (A) (A) (A) (A)
                 (A) (A) (A) (A) (A) (A) (A) (A) (A) (A) (A) (A)
                 (A) (A) (A) (A) (A) (A) (A) (A) (A) (A) (A) (A)
                 (A) (A) (A) (A) (A) (A) (A) (A) (A) (A) (A) (A)
                 (A) (A) (A) (A) (A) (A) (A) (A) (A) (A) (A) (A)
                 (A) (A) (A) (A) (A) (A) (A) (A) (A) (A) (A) (A)
                 (A) (A) (A) (A) (A) (A) (A) (A) (A) (A) (A) (A)
                 (A) (A) (A) (A) (A) (A) (A) (A) (A) (A) (A) (A)
                 (A) (A) (A) (A) (A) (A) (A) (A) (A) (A) (A) (A)
                 (A) (A) (A) (A) (A) (A) (A) (A) (A) (A) (A) (A)
                 (A) (A) (A) (A) (A)
 The electronic state is 1-A.
 Alpha  occ. eigenvalues --  -19.21389 -14.38129 -14.38058 -14.38033 -14.37749
 Alpha  occ. eigenvalues --  -14.37511 -14.33426 -10.31901 -10.27298 -10.27284
 Alpha  occ. eigenvalues --  -10.27171 -10.26921 -10.26575 -10.25843 -10.25795
 Alpha  occ. eigenvalues --  -10.25732 -10.25636 -10.25396 -10.25386 -10.25323
 Alpha  occ. eigenvalues --  -10.25264 -10.25231 -10.25196 -10.24662 -10.24589
 Alpha  occ. eigenvalues --  -10.24565 -10.24179 -10.24147 -10.24135 -10.24035
 Alpha  occ. eigenvalues --  -10.23333 -10.23114 -10.23029 -10.23011 -10.22871
 Alpha  occ. eigenvalues --  -10.22243 -10.21064 -10.20806 -10.20801 -10.20710
 Alpha  occ. eigenvalues --  -10.20578 -10.20400 -10.20350 -10.20336 -10.20190
 Alpha  occ. eigenvalues --  -10.20093 -10.19852 -10.19692 -10.19061  -1.09090
 Alpha  occ. eigenvalues --   -0.98827  -0.98656  -0.96593  -0.95518  -0.95116
 Alpha  occ. eigenvalues --   -0.91555  -0.90400  -0.89252  -0.85567  -0.84713
 Alpha  occ. eigenvalues --   -0.82978  -0.82920  -0.82346  -0.81351  -0.80915
 Alpha  occ. eigenvalues --   -0.80256  -0.80022  -0.79901  -0.75152  -0.74520
 Alpha  occ. eigenvalues --   -0.72530  -0.70875  -0.70800  -0.70572  -0.70445
 Alpha  occ. eigenvalues --   -0.70107  -0.69959  -0.69727  -0.69511  -0.68969
 Alpha  occ. eigenvalues --   -0.67560  -0.67213  -0.65704  -0.64476  -0.63731
 Alpha  occ. eigenvalues --   -0.62773  -0.60521  -0.59844  -0.58613  -0.58358
 Alpha  occ. eigenvalues --   -0.57827  -0.57179  -0.56570  -0.55996  -0.55613
 Alpha  occ. eigenvalues --   -0.55318  -0.54484  -0.54031  -0.52688  -0.52302
 Alpha  occ. eigenvalues --   -0.51339  -0.51065  -0.50773  -0.50479  -0.50164
 Alpha  occ. eigenvalues --   -0.49397  -0.49247  -0.48870  -0.47948  -0.47754
 Alpha  occ. eigenvalues --   -0.47526  -0.47210  -0.47046  -0.46752  -0.45782
 Alpha  occ. eigenvalues --   -0.45683  -0.45532  -0.45097  -0.45056  -0.44821
 Alpha  occ. eigenvalues --   -0.44416  -0.43986  -0.43720  -0.43553  -0.43478
 Alpha  occ. eigenvalues --   -0.43014  -0.42685  -0.42652  -0.42574  -0.42194
 Alpha  occ. eigenvalues --   -0.41093  -0.40971  -0.40723  -0.40547  -0.40457
 Alpha  occ. eigenvalues --   -0.40035  -0.39769  -0.39687  -0.39341  -0.39270
 Alpha  occ. eigenvalues --   -0.39149  -0.39076  -0.38866  -0.38811  -0.38625
 Alpha  occ. eigenvalues --   -0.38260  -0.37921  -0.37393  -0.37332  -0.37032
 Alpha  occ. eigenvalues --   -0.36069  -0.35862  -0.35514  -0.35462  -0.35198
 Alpha  occ. eigenvalues --   -0.35116  -0.34905  -0.34654  -0.34358  -0.34316
 Alpha  occ. eigenvalues --   -0.34253  -0.33845  -0.33690  -0.33596  -0.33442
 Alpha  occ. eigenvalues --   -0.32909  -0.32842  -0.32204  -0.32027  -0.31527
 Alpha  occ. eigenvalues --   -0.29599  -0.28723  -0.28138  -0.27608  -0.27461
 Alpha  occ. eigenvalues --   -0.27272  -0.27093  -0.26667  -0.26516  -0.25454
 Alpha  occ. eigenvalues --   -0.25321  -0.23045
 Alpha virt. eigenvalues --   -0.08612  -0.07552  -0.06052  -0.05516  -0.03838
 Alpha virt. eigenvalues --   -0.01954   0.03486   0.03532   0.03766   0.04154
 Alpha virt. eigenvalues --    0.04352   0.04605   0.04873   0.05236   0.05621
 Alpha virt. eigenvalues --    0.05725   0.05909   0.05962   0.06183   0.06757
 Alpha virt. eigenvalues --    0.06957   0.07330   0.07777   0.07889   0.08221
 Alpha virt. eigenvalues --    0.08354   0.08518   0.08623   0.08879   0.09388
 Alpha virt. eigenvalues --    0.09614   0.09741   0.09841   0.10132   0.10371
 Alpha virt. eigenvalues --    0.10462   0.10732   0.10842   0.11070   0.11323
 Alpha virt. eigenvalues --    0.11628   0.11912   0.12066   0.12205   0.12360
 Alpha virt. eigenvalues --    0.12749   0.12965   0.13043   0.13371   0.13512
 Alpha virt. eigenvalues --    0.13826   0.13951   0.14151   0.14273   0.14693
 Alpha virt. eigenvalues --    0.14987   0.15041   0.15044   0.15218   0.15383
 Alpha virt. eigenvalues --    0.15584   0.15837   0.15875   0.16112   0.16238
 Alpha virt. eigenvalues --    0.16358   0.16462   0.16635   0.16745   0.16969
 Alpha virt. eigenvalues --    0.17109   0.17330   0.17446   0.17593   0.17812
 Alpha virt. eigenvalues --    0.17925   0.18130   0.18484   0.18742   0.18988
 Alpha virt. eigenvalues --    0.19265   0.19399   0.19477   0.19762   0.19920
 Alpha virt. eigenvalues --    0.20138   0.20286   0.20673   0.20775   0.20848
 Alpha virt. eigenvalues --    0.20976   0.21248   0.21303   0.21460   0.21859
 Alpha virt. eigenvalues --    0.21930   0.21990   0.22346   0.22361   0.22535
 Alpha virt. eigenvalues --    0.22553   0.22754   0.22846   0.22917   0.23207
 Alpha virt. eigenvalues --    0.23668   0.23847   0.23980   0.24171   0.24282
 Alpha virt. eigenvalues --    0.24495   0.24594   0.24868   0.24987   0.25322
 Alpha virt. eigenvalues --    0.25434   0.25636   0.25842   0.26035   0.26224
 Alpha virt. eigenvalues --    0.26261   0.26282   0.26773   0.27078   0.27523
 Alpha virt. eigenvalues --    0.27811   0.28270   0.28344   0.28620   0.28995
 Alpha virt. eigenvalues --    0.29178   0.29547   0.29649   0.29810   0.29931
 Alpha virt. eigenvalues --    0.30211   0.30357   0.30534   0.30886   0.30918
 Alpha virt. eigenvalues --    0.30981   0.31127   0.31583   0.31689   0.31846
 Alpha virt. eigenvalues --    0.32013   0.32165   0.32474   0.32718   0.32991
 Alpha virt. eigenvalues --    0.33029   0.33238   0.33695   0.33892   0.34003
 Alpha virt. eigenvalues --    0.34136   0.34341   0.35006   0.35257   0.35426
 Alpha virt. eigenvalues --    0.35578   0.35640   0.35876   0.35948   0.36535
 Alpha virt. eigenvalues --    0.36730   0.36761   0.36873   0.37123   0.37339
 Alpha virt. eigenvalues --    0.37475   0.37531   0.37878   0.38232   0.38411
 Alpha virt. eigenvalues --    0.38606   0.38928   0.39164   0.39357   0.39688
 Alpha virt. eigenvalues --    0.39808   0.40225   0.40345   0.40597   0.40693
 Alpha virt. eigenvalues --    0.40968   0.41128   0.41249   0.41369   0.41618
 Alpha virt. eigenvalues --    0.41776   0.41960   0.42059   0.42332   0.42512
 Alpha virt. eigenvalues --    0.42738   0.42902   0.43021   0.43109   0.43347
 Alpha virt. eigenvalues --    0.43449   0.43758   0.43994   0.44138   0.44248
 Alpha virt. eigenvalues --    0.44371   0.44501   0.44783   0.44893   0.44973
 Alpha virt. eigenvalues --    0.45056   0.45271   0.45304   0.45429   0.45508
 Alpha virt. eigenvalues --    0.45620   0.45933   0.46015   0.46074   0.46207
 Alpha virt. eigenvalues --    0.46419   0.46546   0.46641   0.46714   0.46802
 Alpha virt. eigenvalues --    0.46991   0.47177   0.47308   0.47474   0.47598
 Alpha virt. eigenvalues --    0.47759   0.47857   0.48043   0.48081   0.48292
 Alpha virt. eigenvalues --    0.48446   0.48766   0.48784   0.48856   0.49125
 Alpha virt. eigenvalues --    0.49322   0.49500   0.49776   0.49915   0.50128
 Alpha virt. eigenvalues --    0.50380   0.50456   0.50693   0.50778   0.50862
 Alpha virt. eigenvalues --    0.51321   0.51461   0.51510   0.51713   0.51835
 Alpha virt. eigenvalues --    0.51972   0.52390   0.52631   0.52708   0.52823
 Alpha virt. eigenvalues --    0.53259   0.53448   0.53633   0.53879   0.54053
 Alpha virt. eigenvalues --    0.54375   0.54543   0.54611   0.54827   0.55084
 Alpha virt. eigenvalues --    0.55311   0.55403   0.55708   0.55796   0.56089
 Alpha virt. eigenvalues --    0.56137   0.56480   0.56641   0.56847   0.57201
 Alpha virt. eigenvalues --    0.57351   0.57372   0.57636   0.58123   0.58189
 Alpha virt. eigenvalues --    0.58297   0.58548   0.58745   0.59100   0.59336
 Alpha virt. eigenvalues --    0.59523   0.59855   0.59884   0.60232   0.60836
 Alpha virt. eigenvalues --    0.60925   0.61611   0.61710   0.61881   0.62196
 Alpha virt. eigenvalues --    0.62384   0.62499   0.62723   0.63101   0.63386
 Alpha virt. eigenvalues --    0.63542   0.63701   0.64055   0.64211   0.64483
 Alpha virt. eigenvalues --    0.64500   0.65099   0.65412   0.65567   0.65816
 Alpha virt. eigenvalues --    0.65932   0.66314   0.66522   0.66708   0.66723
 Alpha virt. eigenvalues --    0.67049   0.67406   0.67431   0.67931   0.68095
 Alpha virt. eigenvalues --    0.68365   0.68842   0.69017   0.69046   0.69543
 Alpha virt. eigenvalues --    0.69839   0.70082   0.70409   0.70464   0.70786
 Alpha virt. eigenvalues --    0.71005   0.71207   0.71495   0.71744   0.71944
 Alpha virt. eigenvalues --    0.72294   0.72491   0.72645   0.73055   0.73191
 Alpha virt. eigenvalues --    0.73640   0.74045   0.74115   0.74284   0.74728
 Alpha virt. eigenvalues --    0.74926   0.75004   0.75233   0.75803   0.76327
 Alpha virt. eigenvalues --    0.76838   0.77050   0.77176   0.77318   0.77651
 Alpha virt. eigenvalues --    0.78220   0.78391   0.78788   0.79210   0.79304
 Alpha virt. eigenvalues --    0.79674   0.79757   0.80067   0.80151   0.81029
 Alpha virt. eigenvalues --    0.81181   0.81439   0.81932   0.81993   0.82361
 Alpha virt. eigenvalues --    0.82584   0.83075   0.83466   0.83699   0.83891
 Alpha virt. eigenvalues --    0.84352   0.84612   0.84839   0.85174   0.85447
 Alpha virt. eigenvalues --    0.85849   0.85987   0.86243   0.86571   0.86640
 Alpha virt. eigenvalues --    0.87010   0.87350   0.87576   0.87802   0.88280
 Alpha virt. eigenvalues --    0.88382   0.88730   0.89017   0.89307   0.89404
 Alpha virt. eigenvalues --    0.89765   0.89808   0.90123   0.90349   0.90607
 Alpha virt. eigenvalues --    0.90962   0.91251   0.91466   0.91609   0.91698
 Alpha virt. eigenvalues --    0.92447   0.92647   0.92813   0.93063   0.93490
 Alpha virt. eigenvalues --    0.93985   0.94146   0.94232   0.94317   0.94720
 Alpha virt. eigenvalues --    0.95229   0.95503   0.95593   0.95940   0.96076
 Alpha virt. eigenvalues --    0.96431   0.96522   0.96739   0.96975   0.97621
 Alpha virt. eigenvalues --    0.97903   0.98460   0.98639   0.99173   0.99688
 Alpha virt. eigenvalues --    1.00342   1.00496   1.01093   1.01349   1.01447
 Alpha virt. eigenvalues --    1.01875   1.02343   1.02431   1.02694   1.02903
 Alpha virt. eigenvalues --    1.02991   1.03486   1.03792   1.03868   1.04116
 Alpha virt. eigenvalues --    1.04283   1.04664   1.05246   1.05346   1.05509
 Alpha virt. eigenvalues --    1.05877   1.06276   1.06405   1.07203   1.07458
 Alpha virt. eigenvalues --    1.07890   1.08222   1.08661   1.08971   1.09528
 Alpha virt. eigenvalues --    1.09579   1.10080   1.10123   1.10371   1.10461
 Alpha virt. eigenvalues --    1.10788   1.10933   1.11296   1.11439   1.11642
 Alpha virt. eigenvalues --    1.11867   1.11915   1.12359   1.12642   1.12813
 Alpha virt. eigenvalues --    1.13390   1.13822   1.14281   1.14328   1.14714
 Alpha virt. eigenvalues --    1.15293   1.15440   1.15740   1.16107   1.16306
 Alpha virt. eigenvalues --    1.16535   1.16709   1.16942   1.17438   1.17814
 Alpha virt. eigenvalues --    1.18240   1.18702   1.19022   1.19261   1.19785
 Alpha virt. eigenvalues --    1.20157   1.20568   1.21001   1.21610   1.22092
 Alpha virt. eigenvalues --    1.22474   1.22780   1.22997   1.23287   1.23597
 Alpha virt. eigenvalues --    1.23760   1.24183   1.24746   1.25120   1.25236
 Alpha virt. eigenvalues --    1.25762   1.25834   1.26024   1.26248   1.27107
 Alpha virt. eigenvalues --    1.27313   1.27382   1.27663   1.27859   1.28582
 Alpha virt. eigenvalues --    1.28874   1.29160   1.29399   1.29491   1.30027
 Alpha virt. eigenvalues --    1.30201   1.30803   1.31092   1.31187   1.31683
 Alpha virt. eigenvalues --    1.31878   1.32060   1.32249   1.32851   1.33043
 Alpha virt. eigenvalues --    1.33736   1.34080   1.34620   1.34809   1.35079
 Alpha virt. eigenvalues --    1.35517   1.35987   1.36225   1.36270   1.36712
 Alpha virt. eigenvalues --    1.37457   1.37541   1.37750   1.38216   1.38438
 Alpha virt. eigenvalues --    1.38629   1.39371   1.39824   1.40404   1.40639
 Alpha virt. eigenvalues --    1.41154   1.41454   1.41742   1.42156   1.42319
 Alpha virt. eigenvalues --    1.42597   1.42959   1.43470   1.43606   1.43755
 Alpha virt. eigenvalues --    1.44111   1.44557   1.45361   1.45728   1.45958
 Alpha virt. eigenvalues --    1.46462   1.46801   1.47331   1.47387   1.47671
 Alpha virt. eigenvalues --    1.48287   1.49056   1.49290   1.49798   1.49960
 Alpha virt. eigenvalues --    1.50176   1.50320   1.50963   1.51362   1.51518
 Alpha virt. eigenvalues --    1.52168   1.52607   1.52701   1.53272   1.53484
 Alpha virt. eigenvalues --    1.53597   1.53873   1.54132   1.54474   1.54746
 Alpha virt. eigenvalues --    1.54967   1.55278   1.55583   1.56313   1.56560
 Alpha virt. eigenvalues --    1.56870   1.57333   1.57472   1.57695   1.57809
 Alpha virt. eigenvalues --    1.57967   1.58320   1.58780   1.58834   1.58946
 Alpha virt. eigenvalues --    1.59062   1.59323   1.59673   1.59987   1.60305
 Alpha virt. eigenvalues --    1.60347   1.60572   1.60680   1.60898   1.61131
 Alpha virt. eigenvalues --    1.61498   1.61709   1.61794   1.62246   1.62542
 Alpha virt. eigenvalues --    1.62808   1.62993   1.63035   1.63309   1.63390
 Alpha virt. eigenvalues --    1.63785   1.63814   1.64038   1.64150   1.64558
 Alpha virt. eigenvalues --    1.64798   1.64982   1.65133   1.65209   1.65321
 Alpha virt. eigenvalues --    1.65821   1.65859   1.66124   1.66255   1.66378
 Alpha virt. eigenvalues --    1.66546   1.66835   1.67003   1.67028   1.67607
 Alpha virt. eigenvalues --    1.67752   1.67939   1.68524   1.68574   1.68884
 Alpha virt. eigenvalues --    1.69569   1.69922   1.70113   1.70160   1.70432
 Alpha virt. eigenvalues --    1.70505   1.70932   1.70971   1.71429   1.71659
 Alpha virt. eigenvalues --    1.72084   1.72246   1.72574   1.73033   1.73173
 Alpha virt. eigenvalues --    1.73630   1.73767   1.74166   1.74510   1.74573
 Alpha virt. eigenvalues --    1.74937   1.75432   1.76048   1.76171   1.76691
 Alpha virt. eigenvalues --    1.77097   1.77451   1.77766   1.77971   1.78151
 Alpha virt. eigenvalues --    1.78371   1.78952   1.79253   1.79786   1.80173
 Alpha virt. eigenvalues --    1.80305   1.81091   1.81368   1.81748   1.81857
 Alpha virt. eigenvalues --    1.82369   1.82675   1.83316   1.83684   1.84022
 Alpha virt. eigenvalues --    1.84374   1.84925   1.85014   1.85457   1.85807
 Alpha virt. eigenvalues --    1.86246   1.86402   1.87014   1.87054   1.87349
 Alpha virt. eigenvalues --    1.88041   1.88110   1.88453   1.89000   1.89696
 Alpha virt. eigenvalues --    1.90042   1.90439   1.90862   1.91880   1.92111
 Alpha virt. eigenvalues --    1.92928   1.93108   1.93419   1.93616   1.93772
 Alpha virt. eigenvalues --    1.94178   1.94442   1.95067   1.95209   1.95407
 Alpha virt. eigenvalues --    1.95837   1.95984   1.96134   1.96357   1.96738
 Alpha virt. eigenvalues --    1.97097   1.97410   1.97982   1.98250   1.98345
 Alpha virt. eigenvalues --    1.98898   1.99131   1.99343   1.99757   1.99849
 Alpha virt. eigenvalues --    2.00276   2.00498   2.00594   2.00852   2.00861
 Alpha virt. eigenvalues --    2.01347   2.01620   2.01773   2.02428   2.02552
 Alpha virt. eigenvalues --    2.03055   2.03649   2.04207   2.04530   2.04923
 Alpha virt. eigenvalues --    2.05237   2.05850   2.06237   2.06476   2.06852
 Alpha virt. eigenvalues --    2.07112   2.07696   2.07793   2.08290   2.08699
 Alpha virt. eigenvalues --    2.08944   2.09558   2.10035   2.10181   2.10451
 Alpha virt. eigenvalues --    2.10739   2.11021   2.11633   2.11804   2.12077
 Alpha virt. eigenvalues --    2.12584   2.13215   2.13329   2.13873   2.14055
 Alpha virt. eigenvalues --    2.14250   2.14604   2.14814   2.15190   2.15500
 Alpha virt. eigenvalues --    2.15914   2.16568   2.16668   2.17599   2.18079
 Alpha virt. eigenvalues --    2.18708   2.19064   2.19346   2.19592   2.20210
 Alpha virt. eigenvalues --    2.20354   2.20542   2.20789   2.21014   2.21151
 Alpha virt. eigenvalues --    2.21513   2.21873   2.21968   2.22163   2.22394
 Alpha virt. eigenvalues --    2.22732   2.22778   2.23078   2.23420   2.23601
 Alpha virt. eigenvalues --    2.23981   2.24168   2.24361   2.24947   2.25245
 Alpha virt. eigenvalues --    2.25757   2.26056   2.27021   2.27077   2.27497
 Alpha virt. eigenvalues --    2.27614   2.28298   2.28524   2.29078   2.29596
 Alpha virt. eigenvalues --    2.30218   2.30673   2.30983   2.31303   2.31503
 Alpha virt. eigenvalues --    2.31739   2.32165   2.32397   2.33181   2.33377
 Alpha virt. eigenvalues --    2.33695   2.34009   2.34183   2.34439   2.34806
 Alpha virt. eigenvalues --    2.34921   2.35356   2.35536   2.35652   2.35742
 Alpha virt. eigenvalues --    2.36268   2.36553   2.36908   2.37125   2.37668
 Alpha virt. eigenvalues --    2.37848   2.38041   2.38217   2.38376   2.38516
 Alpha virt. eigenvalues --    2.38827   2.39311   2.39737   2.40199   2.40417
 Alpha virt. eigenvalues --    2.40573   2.41117   2.41251   2.41555   2.41744
 Alpha virt. eigenvalues --    2.41941   2.42796   2.43147   2.43407   2.43641
 Alpha virt. eigenvalues --    2.44094   2.44235   2.44251   2.44610   2.44625
 Alpha virt. eigenvalues --    2.45039   2.45232   2.45925   2.46139   2.46381
 Alpha virt. eigenvalues --    2.47132   2.47419   2.48039   2.48135   2.48543
 Alpha virt. eigenvalues --    2.48765   2.49255   2.49365   2.49596   2.49971
 Alpha virt. eigenvalues --    2.50196   2.50641   2.51111   2.51261   2.51708
 Alpha virt. eigenvalues --    2.51990   2.52328   2.52504   2.52655   2.52806
 Alpha virt. eigenvalues --    2.53571   2.53923   2.54146   2.54754   2.55472
 Alpha virt. eigenvalues --    2.55764   2.55944   2.56089   2.56405   2.56822
 Alpha virt. eigenvalues --    2.57357   2.57695   2.58236   2.58272   2.58562
 Alpha virt. eigenvalues --    2.58755   2.59001   2.59305   2.59581   2.60001
 Alpha virt. eigenvalues --    2.60125   2.60321   2.60758   2.60960   2.61028
 Alpha virt. eigenvalues --    2.61273   2.61437   2.61810   2.61980   2.62109
 Alpha virt. eigenvalues --    2.62481   2.62914   2.63072   2.63206   2.63275
 Alpha virt. eigenvalues --    2.63736   2.63918   2.64152   2.64314   2.64526
 Alpha virt. eigenvalues --    2.64635   2.64996   2.65029   2.65348   2.65421
 Alpha virt. eigenvalues --    2.65507   2.65861   2.66187   2.66688   2.66934
 Alpha virt. eigenvalues --    2.67155   2.67192   2.67598   2.67729   2.67848
 Alpha virt. eigenvalues --    2.68236   2.68301   2.68639   2.69135   2.69363
 Alpha virt. eigenvalues --    2.69616   2.69798   2.70044   2.70399   2.70513
 Alpha virt. eigenvalues --    2.71002   2.71055   2.71597   2.71810   2.72018
 Alpha virt. eigenvalues --    2.72132   2.72593   2.72665   2.73038   2.73753
 Alpha virt. eigenvalues --    2.73957   2.74322   2.74459   2.74545   2.75047
 Alpha virt. eigenvalues --    2.75104   2.75635   2.75757   2.76255   2.76573
 Alpha virt. eigenvalues --    2.76703   2.76976   2.77196   2.77512   2.77653
 Alpha virt. eigenvalues --    2.77887   2.78440   2.78666   2.79294   2.79418
 Alpha virt. eigenvalues --    2.79867   2.79985   2.80136   2.80359   2.80671
 Alpha virt. eigenvalues --    2.80873   2.81150   2.81246   2.81757   2.82113
 Alpha virt. eigenvalues --    2.82525   2.82840   2.83296   2.83635   2.83931
 Alpha virt. eigenvalues --    2.84239   2.84598   2.84983   2.85238   2.85445
 Alpha virt. eigenvalues --    2.85745   2.85972   2.86283   2.86331   2.86684
 Alpha virt. eigenvalues --    2.86942   2.87300   2.87523   2.88017   2.88288
 Alpha virt. eigenvalues --    2.88374   2.88899   2.89137   2.89423   2.89829
 Alpha virt. eigenvalues --    2.90456   2.90609   2.90814   2.91080   2.91683
 Alpha virt. eigenvalues --    2.91821   2.92253   2.92403   2.93209   2.93334
 Alpha virt. eigenvalues --    2.93559   2.93777   2.94266   2.94564   2.94692
 Alpha virt. eigenvalues --    2.95255   2.95318   2.95442   2.96102   2.96469
 Alpha virt. eigenvalues --    2.96777   2.97079   2.97613   2.97723   2.98362
 Alpha virt. eigenvalues --    2.98917   2.99271   2.99505   3.00216   3.00263
 Alpha virt. eigenvalues --    3.00481   3.00757   3.01263   3.01423   3.01823
 Alpha virt. eigenvalues --    3.02042   3.02615   3.02831   3.04421   3.04579
 Alpha virt. eigenvalues --    3.05574   3.05824   3.06210   3.06948   3.07503
 Alpha virt. eigenvalues --    3.07536   3.07771   3.08139   3.08302   3.08888
 Alpha virt. eigenvalues --    3.09010   3.09322   3.09517   3.09699   3.09891
 Alpha virt. eigenvalues --    3.10537   3.10636   3.10983   3.11447   3.11568
 Alpha virt. eigenvalues --    3.11697   3.12185   3.12926   3.13119   3.13342
 Alpha virt. eigenvalues --    3.13391   3.13594   3.13967   3.14658   3.14990
 Alpha virt. eigenvalues --    3.15113   3.15649   3.15676   3.16048   3.16473
 Alpha virt. eigenvalues --    3.16823   3.16975   3.17077   3.17345   3.17566
 Alpha virt. eigenvalues --    3.17836   3.17889   3.18310   3.18565   3.18649
 Alpha virt. eigenvalues --    3.18926   3.19140   3.19326   3.19542   3.19704
 Alpha virt. eigenvalues --    3.20095   3.20416   3.20864   3.20978   3.21185
 Alpha virt. eigenvalues --    3.21412   3.21592   3.21826   3.22189   3.22426
 Alpha virt. eigenvalues --    3.22660   3.22813   3.23149   3.23451   3.23485
 Alpha virt. eigenvalues --    3.23813   3.24123   3.24278   3.24530   3.24756
 Alpha virt. eigenvalues --    3.24915   3.25495   3.25810   3.25846   3.26158
 Alpha virt. eigenvalues --    3.26270   3.26320   3.26796   3.27325   3.27449
 Alpha virt. eigenvalues --    3.27826   3.28236   3.28292   3.28704   3.28820
 Alpha virt. eigenvalues --    3.29339   3.29478   3.29680   3.30012   3.30305
 Alpha virt. eigenvalues --    3.30422   3.30795   3.30911   3.31121   3.31389
 Alpha virt. eigenvalues --    3.31668   3.31787   3.32104   3.32523   3.32841
 Alpha virt. eigenvalues --    3.33259   3.33336   3.33722   3.33984   3.34521
 Alpha virt. eigenvalues --    3.34788   3.35005   3.35227   3.35566   3.35661
 Alpha virt. eigenvalues --    3.35896   3.36398   3.36536   3.36706   3.36943
 Alpha virt. eigenvalues --    3.37428   3.37706   3.38186   3.38293   3.38749
 Alpha virt. eigenvalues --    3.39091   3.39613   3.39864   3.40033   3.40409
 Alpha virt. eigenvalues --    3.40607   3.40752   3.40789   3.41084   3.41266
 Alpha virt. eigenvalues --    3.41461   3.41721   3.41997   3.42393   3.42657
 Alpha virt. eigenvalues --    3.42883   3.43195   3.43366   3.44049   3.44480
 Alpha virt. eigenvalues --    3.44844   3.44892   3.45361   3.45482   3.45813
 Alpha virt. eigenvalues --    3.46053   3.46203   3.46281   3.46825   3.46863
 Alpha virt. eigenvalues --    3.47052   3.47514   3.47802   3.47976   3.48161
 Alpha virt. eigenvalues --    3.48515   3.48737   3.48852   3.49299   3.49492
 Alpha virt. eigenvalues --    3.49718   3.50248   3.50758   3.50856   3.51471
 Alpha virt. eigenvalues --    3.51745   3.51880   3.52191   3.52479   3.52963
 Alpha virt. eigenvalues --    3.53171   3.53641   3.53756   3.54282   3.54598
 Alpha virt. eigenvalues --    3.54744   3.55362   3.55733   3.56077   3.56417
 Alpha virt. eigenvalues --    3.56753   3.56867   3.57098   3.57459   3.57872
 Alpha virt. eigenvalues --    3.58098   3.58358   3.58706   3.58752   3.59362
 Alpha virt. eigenvalues --    3.59615   3.59795   3.59902   3.60179   3.60364
 Alpha virt. eigenvalues --    3.60648   3.60666   3.60858   3.61210   3.61565
 Alpha virt. eigenvalues --    3.61841   3.62051   3.62137   3.62632   3.62854
 Alpha virt. eigenvalues --    3.62948   3.63202   3.63369   3.63911   3.64225
 Alpha virt. eigenvalues --    3.64503   3.64773   3.65182   3.65243   3.65519
 Alpha virt. eigenvalues --    3.66163   3.66248   3.66488   3.66957   3.67384
 Alpha virt. eigenvalues --    3.68220   3.68618   3.68717   3.69264   3.69451
 Alpha virt. eigenvalues --    3.69744   3.70166   3.70213   3.70772   3.71320
 Alpha virt. eigenvalues --    3.71973   3.72364   3.72422   3.72565   3.73225
 Alpha virt. eigenvalues --    3.73331   3.73572   3.73855   3.74610   3.75077
 Alpha virt. eigenvalues --    3.75302   3.75371   3.75904   3.76060   3.76480
 Alpha virt. eigenvalues --    3.76949   3.77375   3.77886   3.78037   3.78171
 Alpha virt. eigenvalues --    3.79006   3.79395   3.79691   3.80012   3.80521
 Alpha virt. eigenvalues --    3.80786   3.81128   3.81433   3.81785   3.82332
 Alpha virt. eigenvalues --    3.83074   3.83434   3.83858   3.84379   3.84637
 Alpha virt. eigenvalues --    3.84780   3.85242   3.85826   3.86345   3.86422
 Alpha virt. eigenvalues --    3.87101   3.88034   3.88581   3.89059   3.89583
 Alpha virt. eigenvalues --    3.90348   3.90439   3.91234   3.91834   3.91960
 Alpha virt. eigenvalues --    3.92379   3.92936   3.94531   3.95161   3.95885
 Alpha virt. eigenvalues --    3.96615   3.97024   3.97544   3.97891   3.98454
 Alpha virt. eigenvalues --    3.99188   4.00121   4.00377   4.00815   4.01144
 Alpha virt. eigenvalues --    4.01649   4.02237   4.02669   4.03109   4.03312
 Alpha virt. eigenvalues --    4.04141   4.04263   4.05017   4.05452   4.05919
 Alpha virt. eigenvalues --    4.06602   4.06922   4.07429   4.07946   4.08283
 Alpha virt. eigenvalues --    4.08686   4.08870   4.09187   4.09739   4.10293
 Alpha virt. eigenvalues --    4.10456   4.10944   4.11226   4.12079   4.12327
 Alpha virt. eigenvalues --    4.12525   4.13148   4.13366   4.13503   4.13728
 Alpha virt. eigenvalues --    4.13956   4.14302   4.14623   4.14979   4.15673
 Alpha virt. eigenvalues --    4.16086   4.16521   4.16537   4.17298   4.17532
 Alpha virt. eigenvalues --    4.17769   4.18087   4.18328   4.18587   4.18942
 Alpha virt. eigenvalues --    4.19098   4.19233   4.20232   4.20358   4.21115
 Alpha virt. eigenvalues --    4.21369   4.21933   4.22239   4.23064   4.23402
 Alpha virt. eigenvalues --    4.23737   4.23813   4.24264   4.25143   4.25279
 Alpha virt. eigenvalues --    4.25912   4.26482   4.26921   4.27261   4.27420
 Alpha virt. eigenvalues --    4.28053   4.28278   4.29186   4.30209   4.30488
 Alpha virt. eigenvalues --    4.30749   4.31580   4.32087   4.32436   4.33173
 Alpha virt. eigenvalues --    4.33743   4.34408   4.35058   4.35215   4.35684
 Alpha virt. eigenvalues --    4.36057   4.36371   4.37412   4.37596   4.37825
 Alpha virt. eigenvalues --    4.38546   4.39576   4.40127   4.40434   4.40897
 Alpha virt. eigenvalues --    4.41471   4.41645   4.42005   4.42659   4.42985
 Alpha virt. eigenvalues --    4.43072   4.43507   4.44019   4.44211   4.44490
 Alpha virt. eigenvalues --    4.44649   4.44916   4.45496   4.45675   4.46125
 Alpha virt. eigenvalues --    4.46641   4.46946   4.47084   4.47344   4.47730
 Alpha virt. eigenvalues --    4.48354   4.48736   4.49332   4.49489   4.49875
 Alpha virt. eigenvalues --    4.51066   4.51532   4.52575   4.52797   4.53667
 Alpha virt. eigenvalues --    4.54904   4.55291   4.57828   4.58508   4.58942
 Alpha virt. eigenvalues --    4.59677   4.60113   4.60412   4.60770   4.61038
 Alpha virt. eigenvalues --    4.61330   4.62073   4.62890   4.63218   4.63306
 Alpha virt. eigenvalues --    4.63935   4.64033   4.65404   4.66739   4.67254
 Alpha virt. eigenvalues --    4.67530   4.68023   4.68446   4.68919   4.69180
 Alpha virt. eigenvalues --    4.69985   4.70757   4.71237   4.71557   4.73232
 Alpha virt. eigenvalues --    4.74109   4.74674   4.75966   4.76775   4.77110
 Alpha virt. eigenvalues --    4.77522   4.78388   4.79354   4.79578   4.80167
 Alpha virt. eigenvalues --    4.80909   4.81942   4.82265   4.83198   4.83783
 Alpha virt. eigenvalues --    4.85956   4.86485   4.87926   4.88624   4.89902
 Alpha virt. eigenvalues --    4.90140   4.90748   4.91209   4.91667   4.91956
 Alpha virt. eigenvalues --    4.92341   4.93172   4.93484   4.93608   4.94496
 Alpha virt. eigenvalues --    4.94865   4.95162   4.95920   4.96366   4.96856
 Alpha virt. eigenvalues --    4.97405   4.98373   4.98699   4.99942   5.00615
 Alpha virt. eigenvalues --    5.00868   5.01439   5.02037   5.03011   5.03245
 Alpha virt. eigenvalues --    5.04022   5.05706   5.07176   5.08145   5.09357
 Alpha virt. eigenvalues --    5.10688   5.12561   5.12921   5.13607   5.14078
 Alpha virt. eigenvalues --    5.16015   5.16533   5.17610   5.18105   5.19486
 Alpha virt. eigenvalues --    5.20156   5.20897   5.22068   5.22786   5.23384
 Alpha virt. eigenvalues --    5.24844   5.26368   5.26710   5.27168   5.28416
 Alpha virt. eigenvalues --    5.28570   5.28896   5.29948   5.31104   5.32691
 Alpha virt. eigenvalues --    5.35033   5.38722   5.39390   5.40017   5.40411
 Alpha virt. eigenvalues --    5.41231   5.42001   5.42881   5.43116   5.43700
 Alpha virt. eigenvalues --    5.43968   5.44282   5.46603   5.47054   5.47111
 Alpha virt. eigenvalues --    5.47809   5.49149   5.49389   5.50273   5.51572
 Alpha virt. eigenvalues --    5.53402   5.54227   5.55653   5.55915   5.57227
 Alpha virt. eigenvalues --    5.57743   5.61461   5.63377   5.67663   5.70588
 Alpha virt. eigenvalues --    5.71438   5.72235   5.73737   5.76100   5.77547
 Alpha virt. eigenvalues --    5.79093   5.79882   5.81178   5.81800   5.83448
 Alpha virt. eigenvalues --    5.86223   5.96392   5.99436   6.00665   6.02102
 Alpha virt. eigenvalues --    6.05634   6.06767   6.07825   6.08971   6.10804
 Alpha virt. eigenvalues --    6.12914   6.13486   6.14836   6.40356   6.43399
 Alpha virt. eigenvalues --    6.51349   6.55168   6.85814   7.04255   7.15928
 Alpha virt. eigenvalues --   22.46084  22.47940  22.49047  22.50244  22.50387
 Alpha virt. eigenvalues --   22.50798  22.50948  22.51045  22.51296  22.51802
 Alpha virt. eigenvalues --   22.52038  22.52667  22.57273  22.72413  22.74487
 Alpha virt. eigenvalues --   22.74757  22.74902  22.75393  22.75608  22.77652
 Alpha virt. eigenvalues --   22.84372  22.89351  22.89463  22.90817  22.91892
 Alpha virt. eigenvalues --   22.92297  22.92721  22.94435  22.94886  22.98577
 Alpha virt. eigenvalues --   23.04883  23.11677  23.14000  23.14144  23.16296
 Alpha virt. eigenvalues --   23.16630  23.18591  23.19483  23.23913  23.27327
 Alpha virt. eigenvalues --   23.51230  23.54527  32.35074  32.80401  32.86603
 Alpha virt. eigenvalues --   32.89986  32.94505  32.96057  44.06391
          Condensed to atoms (all electrons):
 Mulliken charges:
               1
     1  C    0.336348
     2  C   -0.098631
     3  C   -0.347600
     4  C    0.291764
     5  H    0.139477
     6  C   -0.292260
     7  C    0.330914
     8  H    0.146622
     9  C   -0.331267
    10  C   -0.117702
    11  H    0.140012
    12  C    0.041991
    13  H    0.073549
    14  H    0.074142
    15  C    0.336824
    16  C   -0.111531
    17  C   -0.305490
    18  C    0.357084
    19  H    0.135512
    20  C   -0.402970
    21  C    0.426954
    22  H    0.130719
    23  C   -0.369847
    24  C   -0.228322
    25  H    0.134208
    26  C   -0.127610
    27  H    0.070113
    28  C    0.113487
    29  C    0.112762
    30  N   -0.268216
    31  H    0.063452
    32  C   -0.008454
    33  N   -0.268505
    34  H    0.066163
    35  C   -0.016902
    36  H    0.070144
    37  C   -0.384108
    38  C   -0.382819
    39  C   -0.394489
    40  O   -0.312554
    41  C    0.124030
    42  C    0.106349
    43  N   -0.259603
    44  H    0.051849
    45  C   -0.018494
    46  N   -0.254786
    47  H    0.048716
    48  C   -0.018937
    49  H    0.067418
    50  C   -0.381993
    51  H    0.067755
    52  C   -0.380819
    53  C    0.053166
    54  C    0.049163
    55  N   -0.476466
    56  H    0.075564
    57  C   -0.064062
    58  N   -0.217619
    59  H    0.056559
    60  C   -0.006589
    61  H    0.088750
    62  C   -0.384440
    63  H    0.085813
    64  C   -0.389178
    65  H    0.068834
    66  H    0.208645
    67  H    0.068031
    68  H    0.093780
    69  C   -0.397043
    70  H    0.071370
    71  C   -0.385309
    72  C   -0.385751
    73  C   -0.367529
    74  C   -0.409821
    75  H    0.206142
    76  H    0.114105
    77  H    0.134169
    78  H    0.118370
    79  H    0.113344
    80  H    0.122268
    81  H    0.128798
    82  H    0.117413
    83  H    0.113763
    84  H    0.136595
    85  H    0.127015
    86  H    0.115103
    87  H    0.122715
    88  H    0.090928
    89  H    0.162978
    90  H    0.117465
    91  H    0.126242
    92  H    0.114164
    93  H    0.122431
    94  H    0.121688
    95  H    0.120552
    96  H    0.107890
    97  H    0.131017
    98  H    0.128149
    99  H    0.119422
   100  H    0.116093
   101  H    0.122918
   102  H    0.125733
   103  H    0.126565
   104  H    0.116636
   105  H    0.122832
   106  H    0.109722
   107  H    0.134478
   108  H    0.119038
   109  H    0.132166
   110  H    0.119393
   111  H    0.111386
 Sum of Mulliken charges =  -0.00000
 Mulliken charges with hydrogens summed into heavy atoms:
               1
     1  C    0.336348
     2  C   -0.024490
     3  C   -0.208123
     4  C    0.291764
     6  C   -0.145638
     7  C    0.330914
     9  C   -0.191255
    10  C   -0.044153
    12  C    0.135771
    15  C    0.336824
    16  C   -0.042698
    17  C   -0.169978
    18  C    0.357084
    20  C   -0.272251
    21  C    0.426954
    23  C   -0.235639
    24  C   -0.160292
    26  C   -0.057497
    28  C    0.176939
    29  C    0.178925
    30  N   -0.268216
    32  C    0.061690
    33  N   -0.268505
    35  C    0.054468
    37  C   -0.019699
    38  C   -0.017986
    39  C   -0.027845
    40  O   -0.312554
    41  C    0.175879
    42  C    0.155065
    43  N   -0.259603
    45  C    0.048924
    46  N   -0.254786
    48  C    0.048818
    50  C   -0.017249
    52  C   -0.014787
    53  C    0.128730
    54  C    0.105722
    55  N   -0.061679
    57  C    0.024688
    58  N   -0.217619
    60  C    0.079224
    62  C   -0.013068
    64  C   -0.026341
    69  C   -0.029271
    71  C   -0.022363
    72  C   -0.022514
    73  C   -0.017399
    74  C   -0.031233
 Electronic spatial extent (au):  <R**2>=          35578.4464
 Charge=             -0.0000 electrons
 Dipole moment (field-independent basis, Debye):
    X=             -3.6098    Y=              0.7398    Z=              1.6290  Tot=              4.0288
 Quadrupole moment (field-independent basis, Debye-Ang):
   XX=           -306.8123   YY=           -287.1628   ZZ=           -312.3621
   XY=              7.8479   XZ=              7.9174   YZ=             -3.8598
 Traceless Quadrupole moment (field-independent basis, Debye-Ang):
   XX=             -4.6999   YY=             14.9497   ZZ=            -10.2497
   XY=              7.8479   XZ=              7.9174   YZ=             -3.8598
 Octapole moment (field-independent basis, Debye-Ang**2):
  XXX=            -58.6265  YYY=             16.0093  ZZZ=              0.7440  XYY=            -63.9918
  XXY=             18.4379  XXZ=             64.2438  XZZ=            -16.5493  YZZ=              3.1605
  YYZ=             11.0284  XYZ=            -20.6539
 Hexadecapole moment (field-independent basis, Debye-Ang**3):
 XXXX=         -22999.4658 YYYY=         -19533.0108 ZZZZ=          -6609.5987 XXXY=            197.2478
 XXXZ=            188.1536 YYYX=             33.6105 YYYZ=            -15.9355 ZZZX=            -13.8568
 ZZZY=             -3.6523 XXYY=          -7077.8330 XXZZ=          -5020.7216 YYZZ=          -4449.0133
 XXYZ=           -152.5085 YYXZ=            -14.3378 ZZXY=             46.4795
 N-N= 6.738599545520D+03 E-N=-1.821611546801D+04  KE= 2.030327358091D+03
 Leave Link  601 at Mon Oct 18 18:00:27 2021, MaxMem=  7864320000 cpu:              27.5 elap:               1.2
 (Enter /apps/gaussian/g16-c01-avx/g16/l9999.exe)
 Unable to Open any file for archive entry.
 1\1\GINC-CX3-6-18\SP\RPBE1PBE\def2TZVP\C42H62N6O1\ATARZIA\18-Oct-2021\
 0\\#P PBE1PBE/Def2TZVP SP SCF=(YQC,MaxCycle=900) int=(Grid=Superfinegr
 id) EmpiricalDispersion=GD3\\_2_alde1_3_ami1_2_opt_gas\\0,1\C,0,-3.248
 7,1.2422,0.4723\C,0,-2.8764,0.3859,1.5884\C,0,-2.6988,2.5144,0.3747\C,
 0,-2.9145,3.2943,-0.7621\H,0,-2.0752,2.9115,1.1628\C,0,-3.6728,2.7908,
 -1.8111\C,0,-4.2139,1.508,-1.7363\H,0,-3.8189,3.3597,-2.7164\C,0,-4.01
 45,0.7515,-0.5863\C,0,-4.7984,0.8974,-2.9216\H,0,-4.4086,-0.2504,-0.50
 77\C,0,-2.2656,4.603,-0.8797\H,0,-5.0868,-0.1596,-2.8241\H,0,-2.1651,0
 .8301,2.3011\C,0,-0.8156,-0.4704,-1.1102\C,0,-1.266,-1.5279,-0.2198\C,
 0,-1.4382,-0.3177,-2.3433\C,0,-1.1556,0.7794,-3.1564\H,0,-2.1776,-1.02
 68,-2.6825\C,0,-0.2122,1.709,-2.7352\C,0,0.4496,1.5513,-1.5165\H,0,0.0
 254,2.5714,-3.3396\C,0,0.1345,0.467,-0.7057\C,0,1.4741,2.5003,-1.1001\
 H,0,0.6076,0.3378,0.2559\C,0,-1.9191,1.0003,-4.3765\H,0,-1.7279,1.953,
 -4.8941\C,0,-1.5798,-2.5247,1.8499\C,0,-2.6266,-1.6684,2.6396\N,0,-0.8
 843,-1.6247,0.9791\H,0,-2.1473,-3.2704,1.2679\C,0,-0.5768,-3.2533,2.76
 04\N,0,-3.255,-0.8138,1.6794\H,0,-2.0676,-1.0768,3.3838\C,0,-3.6861,-2
 .5175,3.3631\H,0,-1.1385,-3.8262,3.5053\C,0,0.234,-4.2315,1.9099\C,0,-
 4.4853,-1.612,4.3006\C,0,-4.63,-3.2175,2.3893\O,0,-1.4932,5.0675,-0.07
 82\C,0,-5.0816,0.7879,-5.2273\C,0,-3.6693,0.5209,-5.8488\N,0,-4.8404,1
 .5141,-4.0208\H,0,-5.5377,-0.1942,-5.0166\C,0,-6.0056,1.5878,-6.1611\N
 ,0,-2.7946,0.1822,-4.7686\H,0,-3.3455,1.4532,-6.3425\C,0,-3.6862,-0.61
 75,-6.8865\H,0,-5.9559,1.1408,-7.1597\C,0,-7.4426,1.4802,-5.6516\H,0,-
 4.5358,-0.4549,-7.558\C,0,-2.3997,-0.5632,-7.7099\C,0,2.3582,5.8487,-1
 .3391\C,0,2.8474,4.3648,-1.4197\N,0,1.0389,6.0805,-1.8986\H,0,3.0484,6
 .4537,-1.9436\C,0,2.4056,6.4273,0.0895\N,0,1.7673,3.5093,-1.7944\H,0,3
 .2694,4.0654,-0.4451\C,0,3.976,4.2004,-2.4672\H,0,1.9004,7.3967,0.0195
 \C,0,1.6588,5.5878,1.1247\H,0,4.7336,4.959,-2.2397\C,0,4.623,2.8224,-2
 .3395\H,0,-2.0363,-2.193,-0.6399\H,0,0.9494,5.5717,-2.7713\H,0,1.9913,
 2.2569,-0.1582\H,0,-2.5246,5.154,-1.8037\C,0,0.3623,-2.2855,3.4751\H,0
 ,-3.1698,-3.2706,3.9671\C,0,-5.5975,3.0556,-6.2527\C,0,-3.8253,-1.9891
 ,-6.2318\C,0,3.8457,6.6685,0.5389\C,0,3.4679,4.4135,-3.8902\H,0,0.3255
 ,5.7239,-1.2711\H,0,-4.1071,-3.9643,1.7977\H,0,-5.0712,-2.4863,1.7181\
 H,0,-5.4243,-3.718,2.9384\H,0,-0.4189,-4.946,1.4125\H,0,0.9362,-4.7832
 ,2.5306\H,0,0.7927,-3.6877,1.1512\H,0,1.1362,-2.8398,4.0013\H,0,-0.171
 ,-1.6792,4.2025\H,0,0.8303,-1.6284,2.748\H,0,-4.9999,-0.8442,3.7268\H,
 0,-3.8307,-1.125,5.0206\H,0,-5.2256,-2.191,4.8477\H,0,2.1672,4.6447,1.
 3142\H,0,0.6435,5.3761,0.8022\H,0,1.6062,6.1326,2.065\H,0,3.8941,2.039
 4,-2.541\H,0,5.0224,2.673,-1.3379\H,0,5.4396,2.7225,-3.051\H,0,3.8583,
 7.1315,1.5231\H,0,4.3608,7.3279,-0.1562\H,0,4.3997,5.7338,0.5973\H,0,3
 .0287,5.401,-4.0032\H,0,2.7151,3.667,-4.1299\H,0,4.2897,4.3205,-4.5972
 \H,0,-7.769,0.4424,-5.6267\H,0,-8.1173,2.0361,-6.2982\H,0,-7.5115,1.88
 91,-4.6457\H,0,-1.5359,-0.6936,-7.0613\H,0,-2.307,0.3922,-8.2224\H,0,-
 2.3941,-1.3541,-8.4563\H,0,-4.7636,-2.076,-5.6908\H,0,-3.0083,-2.1478,
 -5.5337\H,0,-3.7983,-2.7669,-6.9917\H,0,-5.6128,3.5033,-5.2633\H,0,-6.
 2903,3.5936,-6.8957\H,0,-4.598,3.1637,-6.6648\\Version=ES64L-G16RevC.0
 1\State=1-A\HF=-2039.8695894\RMSD=1.903e-09\Dipole=-0.6392454,-1.43407
 79,-0.2172578\Quadrupole=1.8073339,-12.2680039,10.4606699,-0.1666765,4
 .6429073,-4.5447637\PG=C01 [X(C42H62N6O1)]\\@
 The archive entry for this job was punched.


 SILVERMAN'S PARADOX - IF MURPHY'S LAW CAN GO WRONG, IT WILL.
 Job cpu time:       1 days  7 hours 59 minutes 53.3 seconds.
 Elapsed time:       0 days  1 hours  0 minutes 36.0 seconds.
 File lengths (MBytes):  RWF=   2128 Int=      0 D2E=      0 Chk=    216 Scr=     16
 Normal termination of Gaussian 16 at Mon Oct 18 18:00:27 2021.
