 Entering Gaussian System, Link 0=g16
 Initial command:
 /apps/gaussian/g16-c01-avx/g16/l1.exe "/rds/general/ephemeral/user/atarzia/ephemeral/Gau-287901.inp" -scrdir="/rds/general/ephemeral/user/atarzia/ephemeral/"
 Entering Link 1 = /apps/gaussian/g16-c01-avx/g16/l1.exe PID=    287902.
  
 Copyright (c) 1988-2019, Gaussian, Inc.  All Rights Reserved.
  
 This is part of the Gaussian(R) 16 program.  It is based on
 the Gaussian(R) 09 system (copyright 2009, Gaussian, Inc.),
 the Gaussian(R) 03 system (copyright 2003, Gaussian, Inc.),
 the Gaussian(R) 98 system (copyright 1998, Gaussian, Inc.),
 the Gaussian(R) 94 system (copyright 1995, Gaussian, Inc.),
 the Gaussian 92(TM) system (copyright 1992, Gaussian, Inc.),
 the Gaussian 90(TM) system (copyright 1990, Gaussian, Inc.),
 the Gaussian 88(TM) system (copyright 1988, Gaussian, Inc.),
 the Gaussian 86(TM) system (copyright 1986, Carnegie Mellon
 University), and the Gaussian 82(TM) system (copyright 1983,
 Carnegie Mellon University). Gaussian is a federally registered
 trademark of Gaussian, Inc.
  
 This software contains proprietary and confidential information,
 including trade secrets, belonging to Gaussian, Inc.
  
 This software is provided under written license and may be
 used, copied, transmitted, or stored only in accord with that
 written license.
  
 The following legend is applicable only to US Government
 contracts under FAR:
  
                    RESTRICTED RIGHTS LEGEND
  
 Use, reproduction and disclosure by the US Government is
 subject to restrictions as set forth in subparagraphs (a)
 and (c) of the Commercial Computer Software - Restricted
 Rights clause in FAR 52.227-19.
  
 Gaussian, Inc.
 340 Quinnipiac St., Bldg. 40, Wallingford CT 06492
  
  
 ---------------------------------------------------------------
 Warning -- This program may not be used in any manner that
 competes with the business of Gaussian, Inc. or will provide
 assistance to any competitor of Gaussian, Inc.  The licensee
 of this program is prohibited from giving any competitor of
 Gaussian, Inc. access to this program.  By using this program,
 the user acknowledges that Gaussian, Inc. is engaged in the
 business of creating and licensing software in the field of
 computational chemistry and represents and warrants to the
 licensee that it is not a competitor of Gaussian, Inc. and that
 it will not use this program in any manner prohibited above.
 ---------------------------------------------------------------
  

 Cite this work as:
 Gaussian 16, Revision C.01,
 M. J. Frisch, G. W. Trucks, H. B. Schlegel, G. E. Scuseria, 
 M. A. Robb, J. R. Cheeseman, G. Scalmani, V. Barone, 
 G. A. Petersson, H. Nakatsuji, X. Li, M. Caricato, A. V. Marenich, 
 J. Bloino, B. G. Janesko, R. Gomperts, B. Mennucci, H. P. Hratchian, 
 J. V. Ortiz, A. F. Izmaylov, J. L. Sonnenberg, D. Williams-Young, 
 F. Ding, F. Lipparini, F. Egidi, J. Goings, B. Peng, A. Petrone, 
 T. Henderson, D. Ranasinghe, V. G. Zakrzewski, J. Gao, N. Rega, 
 G. Zheng, W. Liang, M. Hada, M. Ehara, K. Toyota, R. Fukuda, 
 J. Hasegawa, M. Ishida, T. Nakajima, Y. Honda, O. Kitao, H. Nakai, 
 T. Vreven, K. Throssell, J. A. Montgomery, Jr., J. E. Peralta, 
 F. Ogliaro, M. J. Bearpark, J. J. Heyd, E. N. Brothers, K. N. Kudin, 
 V. N. Staroverov, T. A. Keith, R. Kobayashi, J. Normand, 
 K. Raghavachari, A. P. Rendell, J. C. Burant, S. S. Iyengar, 
 J. Tomasi, M. Cossi, J. M. Millam, M. Klene, C. Adamo, R. Cammi, 
 J. W. Ochterski, R. L. Martin, K. Morokuma, O. Farkas, 
 J. B. Foresman, and D. J. Fox, Gaussian, Inc., Wallingford CT, 2019.
 
 ******************************************
 Gaussian 16:  ES64L-G16RevC.01  3-Jul-2019
                18-Oct-2021 
 ******************************************
 %chk=_2_alde1_3_ami2_1_opt_cfm.chk
 %mem=60000mb
 %nprocshared=32
 Will use up to   32 processors via shared memory.
 ----------------------------------------------------------------------
 #P PBE1PBE/Def2TZVP SP SCF=(YQC,MaxCycle=900) int=(Grid=Superfinegrid)
  EmpiricalDispersion=GD3 SCRF=(PCM,Solvent=Chloroform)
 ----------------------------------------------------------------------
 1/38=1,172=1/1;
 2/12=2,17=6,18=5,40=1/2;
 3/5=44,7=101,11=2,25=1,30=1,70=2201,72=7,74=-13,75=-7,124=31/1,2,3;
 4//1;
 5/5=2,7=900,8=4,13=1,38=1,53=7/8,2,8;
 6/7=2,8=2,9=2,10=2,28=1/1;
 99/5=1,9=1/99;
 Leave Link    1 at Mon Oct 18 20:21:39 2021, MaxMem=  7864320000 cpu:               6.0 elap:               0.2
 (Enter /apps/gaussian/g16-c01-avx/g16/l101.exe)
 -------------------------
 _2_alde1_3_ami2_1_opt_cfm
 -------------------------
 Symbolic Z-matrix:
 Charge =  0 Multiplicity = 1
 C                    -4.9557   -2.8067   -0.5931 
 C                    -4.2172   -2.657     0.659 
 C                    -5.8052   -3.8956   -0.7692 
 C                    -6.5142   -4.0522   -1.9577 
 H                    -5.92     -4.6274    0.0195 
 C                    -6.3667   -3.1124   -2.977 
 C                    -5.5212   -2.0199   -2.8147 
 H                    -6.9256   -3.2558   -3.8912 
 C                    -4.8186   -1.8743   -1.6199 
 C                    -5.377    -1.0466   -3.8953 
 H                    -4.1554   -1.0344   -1.4903 
 C                    -7.4118   -5.1971   -2.145 
 H                    -5.922    -1.3007   -4.8149 
 H                    -4.3475   -3.486     1.3695 
 C                     0.2064    1.0476   -0.5491 
 C                    -0.061     0.1672    0.5793 
 C                    -0.5864    0.9747   -1.6895 
 C                    -0.3573    1.8294   -2.7624 
 H                    -1.3882    0.2565   -1.7386 
 C                     0.6781    2.7597   -2.6875 
 C                     1.4828    2.8311   -1.56 
 H                     0.8783    3.4292   -3.5115 
 C                     1.2418    1.9801   -0.4921 
 C                     2.5736    3.8667   -1.4772 
 H                     1.8616    2.0464    0.3912 
 C                    -1.2098    1.7632   -3.9411 
 H                    -1.0241    2.5229   -4.7198 
 C                    -1.2386   -1.5605    1.62 
 C                    -2.7266   -1.4019    2.0409 
 N                    -0.9418   -0.7301    0.5079 
 H                    -1.0875   -2.5984    1.304 
 N                    -3.5078   -1.64      0.8642 
 C                    -2.9899    0.0554    2.4396 
 O                    -8.0668   -5.4183   -3.1319 
 C                    -4.4501    0.9903   -4.7298 
 C                    -2.9674    0.8393   -5.1715 
 N                    -4.6792   -0.0135   -3.7338 
 C                    -5.3394    0.9239   -5.9793 
 N                    -2.1035    0.8822   -4.0464 
 H                    -2.7405    1.6176   -5.9228 
 C                     3.0417    6.1013   -1.3547 
 C                     3.5304    5.6312   -2.7525 
 N                     2.0783    5.1094   -0.9055 
 H                     2.6016    7.0965   -1.3714 
 N                     3.0779    4.238    -2.7998 
 H                     0.547     0.3373    1.4845 
 H                     1.1665    5.3066   -1.3097 
 H                     3.3796    3.5031   -0.8105 
 H                     3.7864    3.6018   -3.1402 
 H                    -7.4497   -5.8808   -1.2722 
 H                    -0.5992   -1.3552    2.4978 
 C                    -2.9957   -2.3288    3.2347 
 C                    -4.6362    2.3399   -4.0255 
 H                    -2.8539   -0.1468   -5.6346 
 H                     3.8775    6.0983   -0.6477 
 C                     2.8305    6.4074   -3.8734 
 H                    -5.1332    1.7777   -6.6195 
 H                    -6.3892    0.9531   -5.694 
 H                    -5.1519    0.0168   -6.5502 
 H                    -2.721    -3.3569    3.007 
 H                    -4.0492   -2.2942    3.506 
 H                    -2.4098   -2.0016    4.0896 
 H                     3.0897    5.9792   -4.8387 
 H                     3.1314    7.452    -3.8596 
 H                     1.7516    6.3475   -3.7522 
 C                     5.0475    5.7621   -2.889 
 H                     5.3492    6.7989   -2.7596 
 H                     5.3682    5.4291   -3.8744 
 H                     5.5515    5.1587   -2.1355 
 H                    -4.0155    0.1653    2.7839 
 H                    -2.8416    0.6954    1.5746 
 H                    -2.315     0.3618    3.2352 
 H                    -4.328     3.1557   -4.6753 
 H                    -4.0387    2.3555   -3.1185 
 H                    -5.6812    2.4766   -3.758 
 
 ITRead=  0  0  0  0  0  0  0  0  0  0  0  0  0  0  0  0  0  0  0  0
 ITRead=  0  0  0  0  0  0  0  0  0  0  0  0  0  0  0  0  0  0  0  0
 ITRead=  0  0  0  0  0  0  0  0  0  0  0  0  0  0  0  0  0  0  0  0
 ITRead=  0  0  0  0  0  0  0  0  0  0  0  0  0  0  0
 MicOpt= -1 -1 -1 -1 -1 -1 -1 -1 -1 -1 -1 -1 -1 -1 -1 -1 -1 -1 -1 -1
 MicOpt= -1 -1 -1 -1 -1 -1 -1 -1 -1 -1 -1 -1 -1 -1 -1 -1 -1 -1 -1 -1
 MicOpt= -1 -1 -1 -1 -1 -1 -1 -1 -1 -1 -1 -1 -1 -1 -1 -1 -1 -1 -1 -1
 MicOpt= -1 -1 -1 -1 -1 -1 -1 -1 -1 -1 -1 -1 -1 -1 -1
 NAtoms=     75 NQM=       75 NQMF=       0 NMMI=      0 NMMIF=      0
                NMic=       0 NMicF=      0.
                    Isotopes and Nuclear Properties:
 (Nuclear quadrupole moments (NQMom) in fm**2, nuclear magnetic moments (NMagM)
  in nuclear magnetons)

  Atom         1           2           3           4           5           6           7           8           9          10
 IAtWgt=          12          12          12          12           1          12          12           1          12          12
 AtmWgt=  12.0000000  12.0000000  12.0000000  12.0000000   1.0078250  12.0000000  12.0000000   1.0078250  12.0000000  12.0000000
 NucSpn=           0           0           0           0           1           0           0           1           0           0
 AtZEff=  -0.0000000  -0.0000000  -0.0000000  -0.0000000  -0.0000000  -0.0000000  -0.0000000  -0.0000000  -0.0000000  -0.0000000
 NQMom=    0.0000000   0.0000000   0.0000000   0.0000000   0.0000000   0.0000000   0.0000000   0.0000000   0.0000000   0.0000000
 NMagM=    0.0000000   0.0000000   0.0000000   0.0000000   2.7928460   0.0000000   0.0000000   2.7928460   0.0000000   0.0000000
 AtZNuc=   6.0000000   6.0000000   6.0000000   6.0000000   1.0000000   6.0000000   6.0000000   1.0000000   6.0000000   6.0000000

  Atom        11          12          13          14          15          16          17          18          19          20
 IAtWgt=           1          12           1           1          12          12          12          12           1          12
 AtmWgt=   1.0078250  12.0000000   1.0078250   1.0078250  12.0000000  12.0000000  12.0000000  12.0000000   1.0078250  12.0000000
 NucSpn=           1           0           1           1           0           0           0           0           1           0
 AtZEff=  -0.0000000  -0.0000000  -0.0000000  -0.0000000  -0.0000000  -0.0000000  -0.0000000  -0.0000000  -0.0000000  -0.0000000
 NQMom=    0.0000000   0.0000000   0.0000000   0.0000000   0.0000000   0.0000000   0.0000000   0.0000000   0.0000000   0.0000000
 NMagM=    2.7928460   0.0000000   2.7928460   2.7928460   0.0000000   0.0000000   0.0000000   0.0000000   2.7928460   0.0000000
 AtZNuc=   1.0000000   6.0000000   1.0000000   1.0000000   6.0000000   6.0000000   6.0000000   6.0000000   1.0000000   6.0000000

  Atom        21          22          23          24          25          26          27          28          29          30
 IAtWgt=          12           1          12          12           1          12           1          12          12          14
 AtmWgt=  12.0000000   1.0078250  12.0000000  12.0000000   1.0078250  12.0000000   1.0078250  12.0000000  12.0000000  14.0030740
 NucSpn=           0           1           0           0           1           0           1           0           0           2
 AtZEff=  -0.0000000  -0.0000000  -0.0000000  -0.0000000  -0.0000000  -0.0000000  -0.0000000  -0.0000000  -0.0000000  -0.0000000
 NQMom=    0.0000000   0.0000000   0.0000000   0.0000000   0.0000000   0.0000000   0.0000000   0.0000000   0.0000000   2.0440000
 NMagM=    0.0000000   2.7928460   0.0000000   0.0000000   2.7928460   0.0000000   2.7928460   0.0000000   0.0000000   0.4037610
 AtZNuc=   6.0000000   1.0000000   6.0000000   6.0000000   1.0000000   6.0000000   1.0000000   6.0000000   6.0000000   7.0000000

  Atom        31          32          33          34          35          36          37          38          39          40
 IAtWgt=           1          14          12          16          12          12          14          12          14           1
 AtmWgt=   1.0078250  14.0030740  12.0000000  15.9949146  12.0000000  12.0000000  14.0030740  12.0000000  14.0030740   1.0078250
 NucSpn=           1           2           0           0           0           0           2           0           2           1
 AtZEff=  -0.0000000  -0.0000000  -0.0000000  -0.0000000  -0.0000000  -0.0000000  -0.0000000  -0.0000000  -0.0000000  -0.0000000
 NQMom=    0.0000000   2.0440000   0.0000000   0.0000000   0.0000000   0.0000000   2.0440000   0.0000000   2.0440000   0.0000000
 NMagM=    2.7928460   0.4037610   0.0000000   0.0000000   0.0000000   0.0000000   0.4037610   0.0000000   0.4037610   2.7928460
 AtZNuc=   1.0000000   7.0000000   6.0000000   8.0000000   6.0000000   6.0000000   7.0000000   6.0000000   7.0000000   1.0000000

  Atom        41          42          43          44          45          46          47          48          49          50
 IAtWgt=          12          12          14           1          14           1           1           1           1           1
 AtmWgt=  12.0000000  12.0000000  14.0030740   1.0078250  14.0030740   1.0078250   1.0078250   1.0078250   1.0078250   1.0078250
 NucSpn=           0           0           2           1           2           1           1           1           1           1
 AtZEff=  -0.0000000  -0.0000000  -0.0000000  -0.0000000  -0.0000000  -0.0000000  -0.0000000  -0.0000000  -0.0000000  -0.0000000
 NQMom=    0.0000000   0.0000000   2.0440000   0.0000000   2.0440000   0.0000000   0.0000000   0.0000000   0.0000000   0.0000000
 NMagM=    0.0000000   0.0000000   0.4037610   2.7928460   0.4037610   2.7928460   2.7928460   2.7928460   2.7928460   2.7928460
 AtZNuc=   6.0000000   6.0000000   7.0000000   1.0000000   7.0000000   1.0000000   1.0000000   1.0000000   1.0000000   1.0000000

  Atom        51          52          53          54          55          56          57          58          59          60
 IAtWgt=           1          12          12           1           1          12           1           1           1           1
 AtmWgt=   1.0078250  12.0000000  12.0000000   1.0078250   1.0078250  12.0000000   1.0078250   1.0078250   1.0078250   1.0078250
 NucSpn=           1           0           0           1           1           0           1           1           1           1
 AtZEff=  -0.0000000  -0.0000000  -0.0000000  -0.0000000  -0.0000000  -0.0000000  -0.0000000  -0.0000000  -0.0000000  -0.0000000
 NQMom=    0.0000000   0.0000000   0.0000000   0.0000000   0.0000000   0.0000000   0.0000000   0.0000000   0.0000000   0.0000000
 NMagM=    2.7928460   0.0000000   0.0000000   2.7928460   2.7928460   0.0000000   2.7928460   2.7928460   2.7928460   2.7928460
 AtZNuc=   1.0000000   6.0000000   6.0000000   1.0000000   1.0000000   6.0000000   1.0000000   1.0000000   1.0000000   1.0000000

  Atom        61          62          63          64          65          66          67          68          69          70
 IAtWgt=           1           1           1           1           1          12           1           1           1           1
 AtmWgt=   1.0078250   1.0078250   1.0078250   1.0078250   1.0078250  12.0000000   1.0078250   1.0078250   1.0078250   1.0078250
 NucSpn=           1           1           1           1           1           0           1           1           1           1
 AtZEff=  -0.0000000  -0.0000000  -0.0000000  -0.0000000  -0.0000000  -0.0000000  -0.0000000  -0.0000000  -0.0000000  -0.0000000
 NQMom=    0.0000000   0.0000000   0.0000000   0.0000000   0.0000000   0.0000000   0.0000000   0.0000000   0.0000000   0.0000000
 NMagM=    2.7928460   2.7928460   2.7928460   2.7928460   2.7928460   0.0000000   2.7928460   2.7928460   2.7928460   2.7928460
 AtZNuc=   1.0000000   1.0000000   1.0000000   1.0000000   1.0000000   6.0000000   1.0000000   1.0000000   1.0000000   1.0000000

  Atom        71          72          73          74          75
 IAtWgt=           1           1           1           1           1
 AtmWgt=   1.0078250   1.0078250   1.0078250   1.0078250   1.0078250
 NucSpn=           1           1           1           1           1
 AtZEff=  -0.0000000  -0.0000000  -0.0000000  -0.0000000  -0.0000000
 NQMom=    0.0000000   0.0000000   0.0000000   0.0000000   0.0000000
 NMagM=    2.7928460   2.7928460   2.7928460   2.7928460   2.7928460
 AtZNuc=   1.0000000   1.0000000   1.0000000   1.0000000   1.0000000
 Leave Link  101 at Mon Oct 18 20:21:40 2021, MaxMem=  7864320000 cpu:               2.4 elap:               0.1
 (Enter /apps/gaussian/g16-c01-avx/g16/l202.exe)
 Stoichiometry    C30H38N6O
 Framework group  C1[X(C30H38N6O)]
 Deg. of freedom   219
 Full point group                 C1      NOp   1
 Largest Abelian subgroup         C1      NOp   1
 Largest concise Abelian subgroup C1      NOp   1
                         Standard orientation:                         
 ---------------------------------------------------------------------
 Center     Atomic      Atomic             Coordinates (Angstroms)
 Number     Number       Type             X           Y           Z
 ---------------------------------------------------------------------
      1          6           0        4.565329    1.026182   -0.050054
      2          6           0        3.990631    2.362203    0.092482
      3          6           0        5.915128    0.883239   -0.359853
      4          6           0        6.476311   -0.383673   -0.500366
      5          1           0        6.537135    1.758635   -0.492314
      6          6           0        5.677098   -1.513775   -0.332793
      7          6           0        4.327046   -1.385635   -0.023428
      8          1           0        6.134195   -2.486577   -0.448608
      9          6           0        3.778344   -0.112080    0.115770
     10          6           0        3.504248   -2.581558    0.145613
     11          1           0        2.730995   -0.005164    0.347488
     12          6           0        7.898657   -0.537265   -0.824256
     13          1           0        4.025418   -3.527257   -0.057592
     14          1           0        4.685188    3.185498   -0.128441
     15          6           0       -1.832403    1.646987   -0.484180
     16          6           0       -0.978796    2.826444   -0.495509
     17          6           0       -1.263213    0.378045   -0.497126
     18          6           0       -2.068177   -0.755394   -0.458894
     19          1           0       -0.191291    0.272858   -0.529108
     20          6           0       -3.453680   -0.609708   -0.411149
     21          6           0       -4.031347    0.651322   -0.411463
     22          1           0       -4.098579   -1.476211   -0.387396
     23          6           0       -3.220392    1.775654   -0.441856
     24          6           0       -5.528187    0.794395   -0.321096
     25          1           0       -3.672112    2.757762   -0.428474
     26          6           0       -1.461676   -2.079199   -0.445883
     27          1           0       -2.154152   -2.931117   -0.333123
     28          6           0        1.111433    3.865156   -0.577773
     29          6           0        2.124162    3.765146    0.597315
     30          7           0        0.270784    2.722128   -0.612651
     31          1           0        1.681989    3.881407   -1.512720
     32          7           0        2.794121    2.507924    0.448533
     33          6           0        1.358203    3.685572    1.923583
     34          8           0        8.474905   -1.586222   -0.964090
     35          6           0        1.401831   -3.583849    0.674529
     36          6           0        0.386718   -3.506480   -0.500144
     37          7           0        2.302981   -2.483580    0.502910
     38          6           0        2.031606   -4.983791    0.682216
     39          7           0       -0.215480   -2.222684   -0.557049
     40          1           0       -0.347107   -4.325497   -0.388795
     41          6           0       -7.372279    0.484720    0.994575
     42          6           0       -7.493729   -0.535756   -0.170562
     43          7           0       -5.968919    0.858303    1.063873
     44          1           0       -7.719826    0.086325    1.945828
     45          7           0       -6.224033   -0.364224   -0.882214
     46          1           0       -1.490560    3.798997   -0.394396
     47          1           0       -5.452869    0.162754    1.596365
     48          1           0       -5.839439    1.741541   -0.803139
     49          1           0       -6.336171   -0.304106   -1.885412
     50          1           0        8.436314    0.426486   -0.937264
     51          1           0        0.551279    4.813072   -0.481878
     52          6           0        3.014029    5.015969    0.580113
     53          6           0        0.668726   -3.331968    1.997860
     54          1           0        0.941811   -3.649897   -1.433439
     55          1           0       -7.946273    1.387035    0.760526
     56          6           0       -7.564184   -1.972786    0.357401
     57          1           0        1.268367   -5.725855    0.901662
     58          1           0        2.801182   -5.044229    1.449308
     59          1           0        2.472903   -5.224036   -0.282902
     60          1           0        3.491886    5.148124   -0.388641
     61          1           0        3.781906    4.940180    1.347762
     62          1           0        2.409836    5.896025    0.784184
     63          1           0       -7.520591   -2.674949   -0.471701
     64          1           0       -8.489129   -2.132861    0.905830
     65          1           0       -6.722316   -2.170472    1.016552
     66          6           0       -8.707083   -0.238331   -1.051852
     67          1           0       -9.620881   -0.289862   -0.464451
     68          1           0       -8.774083   -0.964487   -1.859911
     69          1           0       -8.629391    0.758316   -1.483742
     70          1           0        2.058867    3.666346    2.754954
     71          1           0        0.769119    2.773188    1.942382
     72          1           0        0.699150    4.543069    2.036267
     73          1           0       -0.144570   -4.042631    2.125390
     74          1           0        0.268933   -2.321987    1.998747
     75          1           0        1.361312   -3.434424    2.829784
 ---------------------------------------------------------------------
 Rotational constants (GHZ):           0.1589262           0.0465998           0.0376623
 Leave Link  202 at Mon Oct 18 20:21:40 2021, MaxMem=  7864320000 cpu:               0.1 elap:               0.0
 (Enter /apps/gaussian/g16-c01-avx/g16/l301.exe)
 Standard basis: def2TZVP (5D, 7F)
 Ernie: Thresh=  0.10000D-02 Tol=  0.10000D-05 Strict=F.
 There are  1560 symmetry adapted cartesian basis functions of A   symmetry.
 There are  1375 symmetry adapted basis functions of A   symmetry.
  1375 basis functions,  2191 primitive gaussians,  1560 cartesian basis functions
   134 alpha electrons      134 beta electrons
       nuclear repulsion energy      3863.7084108051 Hartrees.
 IExCor= 1009 DFT=T Ex+Corr=PBE1PBE ExCW=0 ScaHFX=  0.250000
 ScaDFX=  0.750000  0.750000  1.000000  1.000000 ScalE2=  1.000000  1.000000
 IRadAn=      7 IRanWt=     -1 IRanGd=            0 ICorTp=0 IEmpDi=131
 NAtoms=   75 NActive=   75 NUniq=   75 SFac= 1.00D+00 NAtFMM=   60 NAOKFM=T Big=T
 Integral buffers will be    131072 words long.
 Raffenetti 2 integral format.
 Two-electron integral symmetry is turned on.
 R6Disp:  Grimme-D3 Dispersion energy=       -0.0538690558 Hartrees.
 Nuclear repulsion after empirical dispersion term =     3863.6545417493 Hartrees.
 ------------------------------------------------------------------------------
 Polarizable Continuum Model (PCM)
 =================================
 Model                : PCM.
 Atomic radii         : UFF (Universal Force Field).
 Polarization charges : Total charges.
 Charge compensation  : None.
 Solution method      : On-the-fly selection.
 Cavity type          : Scaled VdW (van der Waals Surface) (Alpha=1.100).
 Cavity algorithm     : GePol (No added spheres)
                        Default sphere list used, NSphG=   75.
                        Lebedev-Laikov grids with approx.  5.0 points / Ang**2.
                        Smoothing algorithm: York/Karplus (Gamma=1.0000).
                        Polarization charges: spherical gaussians, with
                                              point-specific exponents (IZeta= 3).
                        Self-potential: point-specific (ISelfS= 7).
                        Self-field    : sphere-specific E.n sum rule (ISelfD= 2).
 Solvent              : Chloroform, Eps=   4.711300 Eps(inf)=   2.090627
 ------------------------------------------------------------------------------
 GePol: Number of generator spheres                  =      75
 GePol: Total number of spheres                      =      75
 GePol: Number of exposed spheres                    =      75 (100.00%)
 GePol: Number of points                             =    4849
 GePol: Average weight of points                     =       0.13
 GePol: Minimum weight of points                     =   0.39D-09
 GePol: Maximum weight of points                     =    0.20577
 GePol: Number of points with low weight             =     338
 GePol: Fraction of low-weight points (<1% of avg)   =       6.97%
 GePol: Cavity surface area                          =    631.701 Ang**2
 GePol: Cavity volume                                =    727.829 Ang**3
 Leave Link  301 at Mon Oct 18 20:21:40 2021, MaxMem=  7864320000 cpu:               1.6 elap:               0.1
 (Enter /apps/gaussian/g16-c01-avx/g16/l302.exe)
 NPDir=0 NMtPBC=     1 NCelOv=     1 NCel=       1 NClECP=     1 NCelD=      1
         NCelK=      1 NCelE2=     1 NClLst=     1 CellRange=     0.0.
 One-electron integrals computed using PRISM.
 One-electron integral symmetry used in STVInt
   1 Symmetry operations used in ECPInt.
 ECPInt:  NShTT=  156520 NPrTT=  469924 LenC2=  110270 LenP2D=  221177.
 LDataN:  DoStor=T MaxTD1= 6 Len=  172
 NBasis=  1375 RedAO= T EigKep=  5.14D-06  NBF=  1375
 NBsUse=  1375 1.00D-06 EigRej= -1.00D+00 NBFU=  1375
 Precomputing XC quadrature grid using
 IXCGrd= 4 IRadAn=           7 IRanWt=          -1 IRanGd=           0 AccXCQ= 0.00D+00.
 Generated NRdTot=       0 NPtTot=           0 NUsed=           0 NTot=          32
 NSgBfM=  1474  1474  1474  1474  1474 MxSgAt=    75 MxSgA2=    75.
 Leave Link  302 at Mon Oct 18 20:21:43 2021, MaxMem=  7864320000 cpu:             109.2 elap:               3.4
 (Enter /apps/gaussian/g16-c01-avx/g16/l303.exe)
 DipDrv:  MaxL=1.
 Leave Link  303 at Mon Oct 18 20:21:43 2021, MaxMem=  7864320000 cpu:               7.1 elap:               0.3
 (Enter /apps/gaussian/g16-c01-avx/g16/l401.exe)
 ExpMin= 9.52D-02 ExpMax= 2.70D+04 ExpMxC= 9.22D+02 IAcc=3 IRadAn=         7 AccDes= 0.00D+00
 Harris functional with IExCor= 1009 and IRadAn=       7 diagonalized for initial guess.
 HarFok:  IExCor= 1009 AccDes= 0.00D+00 IRadAn=         7 IDoV= 1 UseB2=F ITyADJ=14
 ICtDFT=  3500011 ScaDFX=  1.000000  1.000000  1.000000  1.000000
 FoFCou: FMM=F IPFlag=           0 FMFlag=      100000 FMFlg1=        2001
         NFxFlg=           0 DoJE=T BraDBF=F KetDBF=T FulRan=T
         wScrn=  0.000000 ICntrl=       500 IOpCl=  0 I1Cent=   200000004 NGrid=           0
         NMat0=    1 NMatS0=      1 NMatT0=    0 NMatD0=    1 NMtDS0=    0 NMtDT0=    0
 Petite list used in FoFCou.
 Harris En= -1569.00143560060    
 JPrj=0 DoOrth=F DoCkMO=F.
 Leave Link  401 at Mon Oct 18 20:21:57 2021, MaxMem=  7864320000 cpu:             428.6 elap:              13.5
 (Enter /apps/gaussian/g16-c01-avx/g16/l508.exe)
 Integral symmetry usage will be decided dynamically.
 Tight linear equation convergence will be used.
 RPBE1PBE wavefunction.
 Linear searches until partial convergence.
 Full line searches.
 Fock matrices will be formed incrementally for  20 cycles.
 Inv3:  Mode=1 IEnd=    70538403.
 Iteration    1 A*A^-1 deviation from unit magnitude is 7.77D-15 for   4829.
 Iteration    1 A*A^-1 deviation from orthogonality  is 2.53D-15 for   4829   4271.
 Iteration    1 A^-1*A deviation from unit magnitude is 7.77D-15 for   4829.
 Iteration    1 A^-1*A deviation from orthogonality  is 2.91D-15 for   4840   4833.
 FoFJK:  IHMeth= 1 ICntrl=       0 DoSepK=F KAlg= 0 I1Cent=           0 FoldK=F
 IRaf= 690000000 NMat=       1 IRICut=       1 DoRegI=T DoRafI=F ISym2E= 1 IDoP0=0 IntGTp=1.
 Iteration   1 EE= -1567.66825646190                                    Grad=1.390D+00 Max rot=    2.4426 deg.
 Gradient too large for Newton-Raphson -- use scaled steepest descent instead.
 Alpha Gap=     0.134 HL deriv= 2.48D-03
     ILin= 1 X=0.000D+00 Y=-1.567668256462D+03 DE= 0.00D+00 F= -3.68D+00
 RMSU=  7.17D-04    CP:  1.01D+00
     ILin= 2 X=3.000D-01 Y=-1.568396025232D+03 DE=-7.28D-01 F= -1.16D+00 OKLS=F
 RMSU=  1.13D-04    CP:  1.02D+00  1.75D+00
     ILin= 3 X=5.000D-01 Y=-1.568459845987D+03 DE=-7.92D-01 F=  5.26D-01
     Accept linear search using points  2 and  3.
     An  expanding polynomial of degree  3 produced  0.3922
 RMSU=  5.29D-08    CP:  1.01D+00  1.34D+00  3.62D-01
 Iteration   2 EE= -1568.46745908418     Delta-E=       -0.799202622276 Grad=4.362D-01 Max rot=    1.5070 deg.
 Gradient too large for Newton-Raphson -- use scaled steepest descent instead.
 Alpha Gap=     0.176 HL deriv= 1.77D-04
     ILin= 1 X=0.000D+00 Y=-1.568467459084D+03 DE= 0.00D+00 F= -1.87D-01
 RMSU=  1.15D-04    CP:  1.01D+00  1.53D+00  6.53D-01 -3.00D+00
     ILin= 2 X=3.000D-01 Y=-1.568508505591D+03 DE=-4.10D-02 F= -8.70D-02 OKLS=F
 RMSU=  8.88D-06    CP:  1.01D+00  1.74D+00  1.05D+00 -3.00D+00  2.02D+00
     ILin= 3 X=6.000D-01 Y=-1.568519736474D+03 DE=-5.23D-02 F=  1.20D-02
     Accept linear search using points  2 and  3.
     An  expanding polynomial of degree  3 produced  0.4422
 RMSU=  2.57D-08    CP:  1.01D+00  1.63D+00  8.29D-01 -3.00D+00  1.48D+00
                    CP:  3.49D-01
 Iteration   3 EE= -1568.51753589545     Delta-E=       -0.050076811272 Grad=2.124D-01 Max rot=    0.8188 deg.
 Gradient too large for Newton-Raphson -- use scaled steepest descent instead.
 Alpha Gap=     0.168 HL deriv= 1.17D-04
     ILin= 1 X=0.000D+00 Y=-1.568517535895D+03 DE= 0.00D+00 F= -3.28D-02
 RMSU=  6.66D-05    CP:  1.02D+00  1.82D+00  1.27D+00 -3.00D+00  1.99D+00
                    CP:  1.13D-01  3.00D+00
     ILin= 2 X=4.000D-01 Y=-1.568526259381D+03 DE=-8.72D-03 F= -1.08D-02 OKLS=F
 RMSU=  3.39D-06    CP:  1.02D+00  2.03D+00  1.80D+00 -3.00D+00  2.51D+00
                    CP:  2.85D-01  3.00D+00  2.01D+00
     ILin= 3 X=8.000D-01 Y=-1.568526177963D+03 DE=-8.64D-03 F=  1.12D-02
     An  expanding polynomial of degree  3 produced  0.5963
 RMSU=  6.36D-09    CP:  1.02D+00  1.92D+00  1.52D+00 -3.00D+00  2.24D+00
                    CP:  1.46D-01  3.00D+00  1.50D+00  3.66D-01
 Iteration   4 EE= -1568.52732008112     Delta-E=       -0.009784185672 Grad=9.393D-02 Max rot=    0.3496 deg.
 Gradient too large for Newton-Raphson -- use scaled steepest descent instead.
 Alpha Gap=     0.168 HL deriv= 1.90D-04
     ILin= 1 X=0.000D+00 Y=-1.568527320081D+03 DE= 0.00D+00 F= -1.05D-02
 RMSU=  3.93D-05    CP:  1.02D+00  1.94D+00  1.61D+00 -3.00D+00  2.73D+00
                    CP:  1.57D+00 -3.00D+00  1.41D+00 -2.73D+00 -3.00D+00
     ILin= 2 X=5.000D-01 Y=-1.568528996099D+03 DE=-1.68D-03 F=  3.82D-03 OKLS=T
     Accept linear search using points  1 and  2.
     An  expanding polynomial of degree  2 produced  0.2818
 RMSU=  1.82D-07    CP:  1.02D+00  1.93D+00  1.57D+00 -3.00D+00  2.52D+00
                    CP:  9.37D-01  3.00D+00  1.45D+00 -1.38D+00 -3.00D+00
                    CP:  5.64D-01
 Iteration   5 EE= -1568.52914761055     Delta-E=       -0.001827529430 Grad=5.428D-02 Max rot=    0.2250 deg.
 Gradient too large for Newton-Raphson -- use scaled steepest descent instead.
 Alpha Gap=     0.168 HL deriv= 3.42D-05
     ILin= 1 X=0.000D+00 Y=-1.568529147611D+03 DE= 0.00D+00 F= -1.43D-03
 RMSU=  7.99D-06    CP:  1.02D+00  1.99D+00  1.77D+00 -3.00D+00  2.82D+00
                    CP:  1.57D+00 -3.00D+00  1.78D+00 -2.65D+00 -3.00D+00
                    CP:  1.12D+00  3.00D+00
     ILin= 2 X=6.000D-01 Y=-1.568529729575D+03 DE=-5.82D-04 F= -5.07D-04 OKLS=F
 RMSU=  1.56D-05    CP:  1.02D+00  2.05D+00  1.97D+00 -3.00D+00  3.00D+00
                    CP:  2.30D+00 -3.00D+00  2.10D+00 -3.00D+00 -3.00D+00
                    CP:  1.69D+00  3.00D+00  2.01D+00
     ILin= 3 X=1.200D+00 Y=-1.568529755735D+03 DE=-6.08D-04 F=  4.20D-04
     Accept linear search using points  2 and  3.
     An  expanding polynomial of degree  3 produced  0.9113
 RMSU=  9.22D-07    CP:  1.02D+00  2.02D+00  1.87D+00 -3.00D+00  2.98D+00
                    CP:  1.93D+00 -3.00D+00  1.95D+00 -3.00D+00 -3.00D+00
                    CP:  1.42D+00  3.00D+00  1.52D+00  1.08D-02
 Iteration   6 EE= -1568.52981252245     Delta-E=       -0.000664911897 Grad=8.563D-03 Max rot=    0.0379 deg.
 SCF Done:  E(RPBE1PBE) =  -1568.52981252     a.u. after    6 cycles
            Convg  =    0.8563D-02                    15 Fock formations.
              S**2 =  0.0000                  -V/T =  2.0046
 Leave Link  508 at Mon Oct 18 20:37:23 2021, MaxMem=  7864320000 cpu:           29231.1 elap:             926.6
 (Enter /apps/gaussian/g16-c01-avx/g16/l502.exe)
 Integral symmetry usage will be decided dynamically.
 Closed shell SCF:
 Using DIIS extrapolation, IDIIS=  1040.
 NGot=  7864320000 LenX=  7859387370 LenY=  7856952210
 Requested convergence on RMS density matrix=1.00D-08 within 128 cycles.
 Requested convergence on MAX density matrix=1.00D-06.
 Requested convergence on             energy=1.00D-06.
 No special actions if energy rises.
 Fock matrices will be formed incrementally for  20 cycles.

 Cycle   1  Pass 1  IDiag  1:
 FoFJK:  IHMeth= 1 ICntrl=       0 DoSepK=F KAlg= 0 I1Cent=           0 FoldK=F
 IRaf= 690000000 NMat=       1 IRICut=       1 DoRegI=T DoRafI=F ISym2E= 0 IDoP0=0 IntGTp=1.
 FoFCou: FMM=T IPFlag=           0 FMFlag=      100000 FMFlg1=        2001
         NFxFlg=           0 DoJE=F BraDBF=F KetDBF=F FulRan=T
         wScrn=  0.000000 ICntrl=         0 IOpCl=  0 I1Cent=           0 NGrid=           0
         NMat0=    1 NMatS0=      1 NMatT0=    0 NMatD0=    1 NMtDS0=    0 NMtDT0=    0
 Symmetry not used in FoFCou.
 FMM levels:  10  Number of levels for PrismC:   9
 E= -1568.52981252246    
 DIIS: error= 1.08D-04 at cycle   1 NSaved=   1.
 NSaved= 1 IEnMin= 1 EnMin= -1568.52981252246     IErMin= 1 ErrMin= 1.08D-04
 ErrMax= 1.08D-04  0.00D+00 EMaxC= 1.00D-01 BMatC= 3.67D-05 BMatP= 3.67D-05
 IDIUse=3 WtCom= 9.99D-01 WtEn= 1.08D-03
 Coeff-Com:  0.100D+01
 Coeff-En:   0.100D+01
 Coeff:      0.100D+01
 Gap=     0.168 Goal=   None    Shift=    0.000
 RMSDP=4.31D-05 MaxDP=1.05D-02              OVMax= 2.19D-03

 Cycle   2  Pass 1  IDiag  1:
 RMSU=  4.03D-05    CP:  1.00D+00
 E= -1568.52976501437     Delta-E=        0.000047508090 Rises=F Damp=F
 DIIS: error= 2.16D-04 at cycle   2 NSaved=   2.
 NSaved= 2 IEnMin= 1 EnMin= -1568.52981252246     IErMin= 1 ErrMin= 1.08D-04
 ErrMax= 2.16D-04  0.00D+00 EMaxC= 1.00D-01 BMatC= 9.96D-05 BMatP= 3.67D-05
 IDIUse=3 WtCom= 4.05D-01 WtEn= 5.95D-01
 Coeff-Com:  0.637D+00 0.363D+00
 Coeff-En:   0.705D+00 0.295D+00
 Coeff:      0.677D+00 0.323D+00
 Gap=     0.160 Goal=   None    Shift=    0.000
 RMSDP=1.45D-05 MaxDP=5.89D-03 DE= 4.75D-05 OVMax= 1.43D-03

 Cycle   3  Pass 1  IDiag  1:
 RMSU=  9.85D-06    CP:  1.00D+00  7.63D-01
 E= -1568.52984390225     Delta-E=       -0.000078887888 Rises=F Damp=F
 DIIS: error= 1.11D-05 at cycle   3 NSaved=   3.
 NSaved= 3 IEnMin= 3 EnMin= -1568.52984390225     IErMin= 3 ErrMin= 1.11D-05
 ErrMax= 1.11D-05  0.00D+00 EMaxC= 1.00D-01 BMatC= 2.60D-07 BMatP= 3.67D-05
 IDIUse=1 WtCom= 1.00D+00 WtEn= 0.00D+00
 Coeff-Com:  0.241D-01 0.141D-01 0.962D+00
 Coeff:      0.241D-01 0.141D-01 0.962D+00
 Gap=     0.160 Goal=   None    Shift=    0.000
 RMSDP=1.67D-06 MaxDP=3.54D-04 DE=-7.89D-05 OVMax= 2.52D-04

 Cycle   4  Pass 1  IDiag  1:
 RMSU=  1.41D-06    CP:  1.00D+00  7.65D-01  1.09D+00
 E= -1568.52984386434     Delta-E=        0.000000037919 Rises=F Damp=F
 DIIS: error= 1.28D-05 at cycle   4 NSaved=   4.
 NSaved= 4 IEnMin= 3 EnMin= -1568.52984390225     IErMin= 3 ErrMin= 1.11D-05
 ErrMax= 1.28D-05  0.00D+00 EMaxC= 1.00D-01 BMatC= 3.41D-07 BMatP= 2.60D-07
 IDIUse=1 WtCom= 1.00D+00 WtEn= 0.00D+00
 Coeff-Com: -0.800D-02-0.500D-02 0.542D+00 0.471D+00
 Coeff:     -0.800D-02-0.500D-02 0.542D+00 0.471D+00
 Gap=     0.160 Goal=   None    Shift=    0.000
 RMSDP=9.91D-07 MaxDP=2.00D-04 DE= 3.79D-08 OVMax= 1.68D-04

 Cycle   5  Pass 1  IDiag  1:
 RMSU=  5.88D-07    CP:  1.00D+00  7.75D-01  1.11D+00  5.57D-01
 E= -1568.52984415078     Delta-E=       -0.000000286440 Rises=F Damp=F
 DIIS: error= 2.64D-06 at cycle   5 NSaved=   5.
 NSaved= 5 IEnMin= 5 EnMin= -1568.52984415078     IErMin= 5 ErrMin= 2.64D-06
 ErrMax= 2.64D-06  0.00D+00 EMaxC= 1.00D-01 BMatC= 2.82D-08 BMatP= 2.60D-07
 IDIUse=1 WtCom= 1.00D+00 WtEn= 0.00D+00
 Coeff-Com: -0.653D-02-0.381D-02 0.200D+00 0.264D+00 0.546D+00
 Coeff:     -0.653D-02-0.381D-02 0.200D+00 0.264D+00 0.546D+00
 Gap=     0.160 Goal=   None    Shift=    0.000
 RMSDP=2.93D-07 MaxDP=7.24D-05 DE=-2.86D-07 OVMax= 3.46D-05

 Cycle   6  Pass 1  IDiag  1:
 RMSU=  1.56D-07    CP:  1.00D+00  7.77D-01  1.12D+00  6.33D-01  6.59D-01
 E= -1568.52984417207     Delta-E=       -0.000000021292 Rises=F Damp=F
 DIIS: error= 9.39D-07 at cycle   6 NSaved=   6.
 NSaved= 6 IEnMin= 6 EnMin= -1568.52984417207     IErMin= 6 ErrMin= 9.39D-07
 ErrMax= 9.39D-07  0.00D+00 EMaxC= 1.00D-01 BMatC= 3.86D-09 BMatP= 2.82D-08
 IDIUse=1 WtCom= 1.00D+00 WtEn= 0.00D+00
 Coeff-Com: -0.286D-02-0.154D-02 0.443D-01 0.886D-01 0.315D+00 0.556D+00
 Coeff:     -0.286D-02-0.154D-02 0.443D-01 0.886D-01 0.315D+00 0.556D+00
 Gap=     0.160 Goal=   None    Shift=    0.000
 RMSDP=1.19D-07 MaxDP=2.49D-05 DE=-2.13D-08 OVMax= 1.11D-05

 Cycle   7  Pass 1  IDiag  1:
 RMSU=  6.11D-08    CP:  1.00D+00  7.76D-01  1.11D+00  6.53D-01  7.59D-01
                    CP:  6.29D-01
 E= -1568.52984417523     Delta-E=       -0.000000003159 Rises=F Damp=F
 DIIS: error= 2.58D-07 at cycle   7 NSaved=   7.
 NSaved= 7 IEnMin= 7 EnMin= -1568.52984417523     IErMin= 7 ErrMin= 2.58D-07
 ErrMax= 2.58D-07  0.00D+00 EMaxC= 1.00D-01 BMatC= 2.90D-10 BMatP= 3.86D-09
 IDIUse=1 WtCom= 1.00D+00 WtEn= 0.00D+00
 Coeff-Com: -0.971D-03-0.575D-03 0.537D-02 0.218D-01 0.114D+00 0.288D+00
 Coeff-Com:  0.572D+00
 Coeff:     -0.971D-03-0.575D-03 0.537D-02 0.218D-01 0.114D+00 0.288D+00
 Coeff:      0.572D+00
 Gap=     0.160 Goal=   None    Shift=    0.000
 RMSDP=3.64D-08 MaxDP=1.19D-05 DE=-3.16D-09 OVMax= 3.81D-06

 Cycle   8  Pass 1  IDiag  1:
 RMSU=  1.51D-08    CP:  1.00D+00  7.76D-01  1.12D+00  6.50D-01  7.69D-01
                    CP:  6.95D-01  8.04D-01
 E= -1568.52984417546     Delta-E=       -0.000000000233 Rises=F Damp=F
 DIIS: error= 7.25D-08 at cycle   8 NSaved=   8.
 NSaved= 8 IEnMin= 8 EnMin= -1568.52984417546     IErMin= 8 ErrMin= 7.25D-08
 ErrMax= 7.25D-08  0.00D+00 EMaxC= 1.00D-01 BMatC= 1.64D-11 BMatP= 2.90D-10
 IDIUse=1 WtCom= 1.00D+00 WtEn= 0.00D+00
 Coeff-Com: -0.306D-04-0.969D-04-0.299D-02-0.176D-02 0.953D-02 0.538D-01
 Coeff-Com:  0.227D+00 0.714D+00
 Coeff:     -0.306D-04-0.969D-04-0.299D-02-0.176D-02 0.953D-02 0.538D-01
 Coeff:      0.227D+00 0.714D+00
 Gap=     0.160 Goal=   None    Shift=    0.000
 RMSDP=8.76D-09 MaxDP=1.73D-06 DE=-2.33D-10 OVMax= 1.65D-06

 Cycle   9  Pass 1  IDiag  1:
 RMSU=  5.84D-09    CP:  1.00D+00  7.76D-01  1.12D+00  6.51D-01  7.71D-01
                    CP:  7.06D-01  8.49D-01  8.79D-01
 E= -1568.52984417549     Delta-E=       -0.000000000029 Rises=F Damp=F
 DIIS: error= 4.87D-08 at cycle   9 NSaved=   9.
 NSaved= 9 IEnMin= 9 EnMin= -1568.52984417549     IErMin= 9 ErrMin= 4.87D-08
 ErrMax= 4.87D-08  0.00D+00 EMaxC= 1.00D-01 BMatC= 5.67D-12 BMatP= 1.64D-11
 IDIUse=1 WtCom= 1.00D+00 WtEn= 0.00D+00
 Coeff-Com:  0.722D-04-0.157D-04-0.234D-02-0.311D-02-0.485D-02 0.642D-02
 Coeff-Com:  0.865D-01 0.450D+00 0.467D+00
 Coeff:      0.722D-04-0.157D-04-0.234D-02-0.311D-02-0.485D-02 0.642D-02
 Coeff:      0.865D-01 0.450D+00 0.467D+00
 Gap=     0.160 Goal=   None    Shift=    0.000
 RMSDP=3.32D-09 MaxDP=7.02D-07 DE=-2.86D-11 OVMax= 6.42D-07

 Error on total polarization charges =  0.01938
 SCF Done:  E(RPBE1PBE) =  -1568.52984418     A.U. after    9 cycles
            NFock=  9  Conv=0.33D-08     -V/T= 2.0046
 KE= 1.561337170284D+03 PE=-1.137688833105D+04 EE= 4.383366774844D+03
 Leave Link  502 at Mon Oct 18 20:46:53 2021, MaxMem=  7864320000 cpu:           18050.2 elap:             569.9
 (Enter /apps/gaussian/g16-c01-avx/g16/l508.exe)
 QCSCF skips out because SCF is already converged.
 Leave Link  508 at Mon Oct 18 20:46:53 2021, MaxMem=  7864320000 cpu:               0.1 elap:               0.0
 (Enter /apps/gaussian/g16-c01-avx/g16/l601.exe)
 Copying SCF densities to generalized density rwf, IOpCl= 0 IROHF=0.

 **********************************************************************

            Population analysis using the SCF Density.

 **********************************************************************

 Orbital symmetries:
       Occupied  (A) (A) (A) (A) (A) (A) (A) (A) (A) (A) (A) (A)
                 (A) (A) (A) (A) (A) (A) (A) (A) (A) (A) (A) (A)
                 (A) (A) (A) (A) (A) (A) (A) (A) (A) (A) (A) (A)
                 (A) (A) (A) (A) (A) (A) (A) (A) (A) (A) (A) (A)
                 (A) (A) (A) (A) (A) (A) (A) (A) (A) (A) (A) (A)
                 (A) (A) (A) (A) (A) (A) (A) (A) (A) (A) (A) (A)
                 (A) (A) (A) (A) (A) (A) (A) (A) (A) (A) (A) (A)
                 (A) (A) (A) (A) (A) (A) (A) (A) (A) (A) (A) (A)
                 (A) (A) (A) (A) (A) (A) (A) (A) (A) (A) (A) (A)
                 (A) (A) (A) (A) (A) (A) (A) (A) (A) (A) (A) (A)
                 (A) (A) (A) (A) (A) (A) (A) (A) (A) (A) (A) (A)
                 (A) (A)
       Virtual   (A) (A) (A) (A) (A) (A) (A) (A) (A) (A) (A) (A)
                 (A) (A) (A) (A) (A) (A) (A) (A) (A) (A) (A) (A)
                 (A) (A) (A) (A) (A) (A) (A) (A) (A) (A) (A) (A)
                 (A) (A) (A) (A) (A) (A) (A) (A) (A) (A) (A) (A)
                 (A) (A) (A) (A) (A) (A) (A) (A) (A) (A) (A) (A)
                 (A) (A) (A) (A) (A) (A) (A) (A) (A) (A) (A) (A)
                 (A) (A) (A) (A) (A) (A) (A) (A) (A) (A) (A) (A)
                 (A) (A) (A) (A) (A) (A) (A) (A) (A) (A) (A) (A)
                 (A) (A) (A) (A) (A) (A) (A) (A) (A) (A) (A) (A)
                 (A) (A) (A) (A) (A) (A) (A) (A) (A) (A) (A) (A)
                 (A) (A) (A) (A) (A) (A) (A) (A) (A) (A) (A) (A)
                 (A) (A) (A) (A) (A) (A) (A) (A) (A) (A) (A) (A)
                 (A) (A) (A) (A) (A) (A) (A) (A) (A) (A) (A) (A)
                 (A) (A) (A) (A) (A) (A) (A) (A) (A) (A) (A) (A)
                 (A) (A) (A) (A) (A) (A) (A) (A) (A) (A) (A) (A)
                 (A) (A) (A) (A) (A) (A) (A) (A) (A) (A) (A) (A)
                 (A) (A) (A) (A) (A) (A) (A) (A) (A) (A) (A) (A)
                 (A) (A) (A) (A) (A) (A) (A) (A) (A) (A) (A) (A)
                 (A) (A) (A) (A) (A) (A) (A) (A) (A) (A) (A) (A)
                 (A) (A) (A) (A) (A) (A) (A) (A) (A) (A) (A) (A)
                 (A) (A) (A) (A) (A) (A) (A) (A) (A) (A) (A) (A)
                 (A) (A) (A) (A) (A) (A) (A) (A) (A) (A) (A) (A)
                 (A) (A) (A) (A) (A) (A) (A) (A) (A) (A) (A) (A)
                 (A) (A) (A) (A) (A) (A) (A) (A) (A) (A) (A) (A)
                 (A) (A) (A) (A) (A) (A) (A) (A) (A) (A) (A) (A)
                 (A) (A) (A) (A) (A) (A) (A) (A) (A) (A) (A) (A)
                 (A) (A) (A) (A) (A) (A) (A) (A) (A) (A) (A) (A)
                 (A) (A) (A) (A) (A) (A) (A) (A) (A) (A) (A) (A)
                 (A) (A) (A) (A) (A) (A) (A) (A) (A) (A) (A) (A)
                 (A) (A) (A) (A) (A) (A) (A) (A) (A) (A) (A) (A)
                 (A) (A) (A) (A) (A) (A) (A) (A) (A) (A) (A) (A)
                 (A) (A) (A) (A) (A) (A) (A) (A) (A) (A) (A) (A)
                 (A) (A) (A) (A) (A) (A) (A) (A) (A) (A) (A) (A)
                 (A) (A) (A) (A) (A) (A) (A) (A) (A) (A) (A) (A)
                 (A) (A) (A) (A) (A) (A) (A) (A) (A) (A) (A) (A)
                 (A) (A) (A) (A) (A) (A) (A) (A) (A) (A) (A) (A)
                 (A) (A) (A) (A) (A) (A) (A) (A) (A) (A) (A) (A)
                 (A) (A) (A) (A) (A) (A) (A) (A) (A) (A) (A) (A)
                 (A) (A) (A) (A) (A) (A) (A) (A) (A) (A) (A) (A)
                 (A) (A) (A) (A) (A) (A) (A) (A) (A) (A) (A) (A)
                 (A) (A) (A) (A) (A) (A) (A) (A) (A) (A) (A) (A)
                 (A) (A) (A) (A) (A) (A) (A) (A) (A) (A) (A) (A)
                 (A) (A) (A) (A) (A) (A) (A) (A) (A) (A) (A) (A)
                 (A) (A) (A) (A) (A) (A) (A) (A) (A) (A) (A) (A)
                 (A) (A) (A) (A) (A) (A) (A) (A) (A) (A) (A) (A)
                 (A) (A) (A) (A) (A) (A) (A) (A) (A) (A) (A) (A)
                 (A) (A) (A) (A) (A) (A) (A) (A) (A) (A) (A) (A)
                 (A) (A) (A) (A) (A) (A) (A) (A) (A) (A) (A) (A)
                 (A) (A) (A) (A) (A) (A) (A) (A) (A) (A) (A) (A)
                 (A) (A) (A) (A) (A) (A) (A) (A) (A) (A) (A) (A)
                 (A) (A) (A) (A) (A) (A) (A) (A) (A) (A) (A) (A)
                 (A) (A) (A) (A) (A) (A) (A) (A) (A) (A) (A) (A)
                 (A) (A) (A) (A) (A) (A) (A) (A) (A) (A) (A) (A)
                 (A) (A) (A) (A) (A) (A) (A) (A) (A) (A) (A) (A)
                 (A) (A) (A) (A) (A) (A) (A) (A) (A) (A) (A) (A)
                 (A) (A) (A) (A) (A) (A) (A) (A) (A) (A) (A) (A)
                 (A) (A) (A) (A) (A) (A) (A) (A) (A) (A) (A) (A)
                 (A) (A) (A) (A) (A) (A) (A) (A) (A) (A) (A) (A)
                 (A) (A) (A) (A) (A) (A) (A) (A) (A) (A) (A) (A)
                 (A) (A) (A) (A) (A) (A) (A) (A) (A) (A) (A) (A)
                 (A) (A) (A) (A) (A) (A) (A) (A) (A) (A) (A) (A)
                 (A) (A) (A) (A) (A) (A) (A) (A) (A) (A) (A) (A)
                 (A) (A) (A) (A) (A) (A) (A) (A) (A) (A) (A) (A)
                 (A) (A) (A) (A) (A) (A) (A) (A) (A) (A) (A) (A)
                 (A) (A) (A) (A) (A) (A) (A) (A) (A) (A) (A) (A)
                 (A) (A) (A) (A) (A) (A) (A) (A) (A) (A) (A) (A)
                 (A) (A) (A) (A) (A) (A) (A) (A) (A) (A) (A) (A)
                 (A) (A) (A) (A) (A) (A) (A) (A) (A) (A) (A) (A)
                 (A) (A) (A) (A) (A) (A) (A) (A) (A) (A) (A) (A)
                 (A) (A) (A) (A) (A) (A) (A) (A) (A) (A) (A) (A)
                 (A) (A) (A) (A) (A) (A) (A) (A) (A) (A) (A) (A)
                 (A) (A) (A) (A) (A) (A) (A) (A) (A) (A) (A) (A)
                 (A) (A) (A) (A) (A) (A) (A) (A) (A) (A) (A) (A)
                 (A) (A) (A) (A) (A) (A) (A) (A) (A) (A) (A) (A)
                 (A) (A) (A) (A) (A) (A) (A) (A) (A) (A) (A) (A)
                 (A) (A) (A) (A) (A) (A) (A) (A) (A) (A) (A) (A)
                 (A) (A) (A) (A) (A) (A) (A) (A) (A) (A) (A) (A)
                 (A) (A) (A) (A) (A) (A) (A) (A) (A) (A) (A) (A)
                 (A) (A) (A) (A) (A) (A) (A) (A) (A) (A) (A) (A)
                 (A) (A) (A) (A) (A) (A) (A) (A) (A) (A) (A) (A)
                 (A) (A) (A) (A) (A) (A) (A) (A) (A) (A) (A) (A)
                 (A) (A) (A) (A) (A) (A) (A) (A) (A) (A) (A) (A)
                 (A) (A) (A) (A) (A) (A) (A) (A) (A) (A) (A) (A)
                 (A) (A) (A) (A) (A) (A) (A) (A) (A) (A) (A) (A)
                 (A) (A) (A) (A) (A) (A) (A) (A) (A) (A) (A) (A)
                 (A) (A) (A) (A) (A) (A) (A) (A) (A) (A) (A) (A)
                 (A) (A) (A) (A) (A) (A) (A) (A) (A) (A) (A) (A)
                 (A) (A) (A) (A) (A) (A) (A) (A) (A) (A) (A) (A)
                 (A) (A) (A) (A) (A) (A) (A) (A) (A) (A) (A) (A)
                 (A) (A) (A) (A) (A) (A) (A) (A) (A) (A) (A) (A)
                 (A) (A) (A) (A) (A) (A) (A) (A) (A) (A) (A) (A)
                 (A) (A) (A) (A) (A) (A) (A) (A) (A) (A) (A) (A)
                 (A) (A) (A) (A) (A) (A) (A) (A) (A) (A) (A) (A)
                 (A) (A) (A) (A) (A) (A) (A) (A) (A) (A) (A) (A)
                 (A) (A) (A) (A) (A) (A) (A) (A) (A) (A) (A) (A)
                 (A) (A) (A) (A) (A) (A) (A) (A) (A) (A) (A) (A)
                 (A) (A) (A) (A) (A) (A) (A) (A) (A) (A) (A) (A)
                 (A) (A) (A) (A) (A) (A) (A) (A) (A) (A) (A) (A)
                 (A) (A) (A) (A) (A) (A) (A) (A) (A) (A) (A) (A)
                 (A) (A) (A) (A) (A) (A) (A) (A) (A) (A) (A) (A)
                 (A) (A) (A) (A) (A) (A) (A) (A) (A) (A) (A) (A)
                 (A) (A) (A) (A) (A) (A) (A) (A) (A) (A) (A) (A)
                 (A) (A) (A) (A) (A) (A) (A) (A) (A) (A) (A) (A)
                 (A) (A) (A) (A) (A)
 The electronic state is 1-A.
 Alpha  occ. eigenvalues --  -19.20981 -14.37448 -14.37370 -14.37342 -14.37294
 Alpha  occ. eigenvalues --  -14.37254 -14.36379 -10.31506 -10.27890 -10.26579
 Alpha  occ. eigenvalues --  -10.26516 -10.26484 -10.26465 -10.26291 -10.26233
 Alpha  occ. eigenvalues --  -10.25656 -10.25068 -10.24694 -10.24679 -10.24671
 Alpha  occ. eigenvalues --  -10.24650 -10.24633 -10.24575 -10.24042 -10.23943
 Alpha  occ. eigenvalues --  -10.23638 -10.23611 -10.23549 -10.23369 -10.22980
 Alpha  occ. eigenvalues --  -10.22411 -10.21009 -10.20929 -10.20830 -10.20304
 Alpha  occ. eigenvalues --  -10.20294 -10.20153  -1.08723  -0.99480  -0.97377
 Alpha  occ. eigenvalues --   -0.97200  -0.95328  -0.94932  -0.90687  -0.89398
 Alpha  occ. eigenvalues --   -0.88239  -0.83891  -0.83080  -0.81810  -0.80433
 Alpha  occ. eigenvalues --   -0.79474  -0.78604  -0.77775  -0.72322  -0.72117
 Alpha  occ. eigenvalues --   -0.71433  -0.71352  -0.71014  -0.69887  -0.69017
 Alpha  occ. eigenvalues --   -0.68166  -0.67000  -0.66072  -0.64694  -0.63562
 Alpha  occ. eigenvalues --   -0.60727  -0.59692  -0.58427  -0.57521  -0.57361
 Alpha  occ. eigenvalues --   -0.56495  -0.54869  -0.53557  -0.53113  -0.52490
 Alpha  occ. eigenvalues --   -0.51492  -0.51088  -0.50243  -0.49991  -0.49429
 Alpha  occ. eigenvalues --   -0.49075  -0.48591  -0.47797  -0.47316  -0.46632
 Alpha  occ. eigenvalues --   -0.46293  -0.45948  -0.45853  -0.45595  -0.45012
 Alpha  occ. eigenvalues --   -0.44888  -0.44755  -0.44191  -0.43559  -0.43367
 Alpha  occ. eigenvalues --   -0.42768  -0.42237  -0.41438  -0.41022  -0.40664
 Alpha  occ. eigenvalues --   -0.40633  -0.40266  -0.40024  -0.39799  -0.39555
 Alpha  occ. eigenvalues --   -0.38994  -0.38872  -0.38426  -0.37686  -0.37619
 Alpha  occ. eigenvalues --   -0.37526  -0.37424  -0.37194  -0.36815  -0.36325
 Alpha  occ. eigenvalues --   -0.35939  -0.35184  -0.34442  -0.34382  -0.34220
 Alpha  occ. eigenvalues --   -0.33497  -0.33127  -0.31094  -0.28317  -0.27570
 Alpha  occ. eigenvalues --   -0.27529  -0.27054  -0.26658  -0.25983  -0.25717
 Alpha  occ. eigenvalues --   -0.25084  -0.24953  -0.24917  -0.23724
 Alpha virt. eigenvalues --   -0.07705  -0.05548  -0.04831  -0.04805  -0.02572
 Alpha virt. eigenvalues --    0.02815   0.03832   0.04732   0.04781   0.05274
 Alpha virt. eigenvalues --    0.05601   0.06020   0.06564   0.06660   0.07157
 Alpha virt. eigenvalues --    0.07267   0.07373   0.08136   0.08384   0.09047
 Alpha virt. eigenvalues --    0.09083   0.09305   0.09656   0.09689   0.10125
 Alpha virt. eigenvalues --    0.10294   0.10546   0.10602   0.11040   0.11358
 Alpha virt. eigenvalues --    0.11682   0.11841   0.12198   0.12442   0.13146
 Alpha virt. eigenvalues --    0.13156   0.13493   0.13738   0.14212   0.14308
 Alpha virt. eigenvalues --    0.14565   0.14767   0.14838   0.15032   0.15453
 Alpha virt. eigenvalues --    0.15653   0.15846   0.16118   0.16217   0.16344
 Alpha virt. eigenvalues --    0.16599   0.16629   0.16785   0.17141   0.17281
 Alpha virt. eigenvalues --    0.17512   0.17855   0.18193   0.18826   0.19097
 Alpha virt. eigenvalues --    0.19286   0.19513   0.19674   0.19834   0.20241
 Alpha virt. eigenvalues --    0.20828   0.20871   0.21392   0.21587   0.22128
 Alpha virt. eigenvalues --    0.22428   0.22493   0.22584   0.22942   0.23510
 Alpha virt. eigenvalues --    0.23757   0.23921   0.24385   0.24482   0.24908
 Alpha virt. eigenvalues --    0.25367   0.25518   0.25787   0.26061   0.26472
 Alpha virt. eigenvalues --    0.26608   0.27118   0.27374   0.27583   0.27826
 Alpha virt. eigenvalues --    0.27975   0.28184   0.28410   0.28475   0.28795
 Alpha virt. eigenvalues --    0.29290   0.29512   0.30067   0.30243   0.30605
 Alpha virt. eigenvalues --    0.30767   0.30973   0.31381   0.31692   0.31926
 Alpha virt. eigenvalues --    0.32125   0.32172   0.32483   0.33156   0.33516
 Alpha virt. eigenvalues --    0.33652   0.33769   0.34131   0.34247   0.34402
 Alpha virt. eigenvalues --    0.34832   0.35142   0.35400   0.35556   0.35686
 Alpha virt. eigenvalues --    0.35945   0.36101   0.36958   0.37119   0.37337
 Alpha virt. eigenvalues --    0.37898   0.38063   0.38393   0.38679   0.38904
 Alpha virt. eigenvalues --    0.39426   0.39586   0.39651   0.39778   0.40163
 Alpha virt. eigenvalues --    0.40237   0.40432   0.40650   0.41219   0.41295
 Alpha virt. eigenvalues --    0.41868   0.42100   0.42105   0.42387   0.42552
 Alpha virt. eigenvalues --    0.42663   0.43076   0.43162   0.43312   0.43671
 Alpha virt. eigenvalues --    0.43910   0.44361   0.44584   0.44759   0.44861
 Alpha virt. eigenvalues --    0.44952   0.45099   0.45523   0.45789   0.46147
 Alpha virt. eigenvalues --    0.46307   0.46428   0.46671   0.46845   0.47086
 Alpha virt. eigenvalues --    0.47219   0.47503   0.47640   0.47870   0.48028
 Alpha virt. eigenvalues --    0.48190   0.48475   0.48618   0.48727   0.48781
 Alpha virt. eigenvalues --    0.49177   0.49366   0.49665   0.49817   0.50231
 Alpha virt. eigenvalues --    0.50703   0.50981   0.51230   0.51714   0.52049
 Alpha virt. eigenvalues --    0.52227   0.52522   0.52735   0.53091   0.53242
 Alpha virt. eigenvalues --    0.53651   0.53791   0.54056   0.54307   0.54450
 Alpha virt. eigenvalues --    0.54995   0.55228   0.55621   0.55801   0.56215
 Alpha virt. eigenvalues --    0.56375   0.56542   0.56656   0.57170   0.57408
 Alpha virt. eigenvalues --    0.57835   0.58120   0.58543   0.58954   0.59480
 Alpha virt. eigenvalues --    0.59954   0.60745   0.60877   0.61011   0.61235
 Alpha virt. eigenvalues --    0.61491   0.62010   0.62661   0.62760   0.63147
 Alpha virt. eigenvalues --    0.63493   0.63526   0.63703   0.64129   0.64607
 Alpha virt. eigenvalues --    0.65225   0.65429   0.66187   0.66526   0.66597
 Alpha virt. eigenvalues --    0.67211   0.67452   0.67915   0.68018   0.68557
 Alpha virt. eigenvalues --    0.68837   0.69046   0.69352   0.69856   0.70297
 Alpha virt. eigenvalues --    0.70581   0.70898   0.71244   0.71543   0.71801
 Alpha virt. eigenvalues --    0.72084   0.72416   0.72627   0.72880   0.73106
 Alpha virt. eigenvalues --    0.73297   0.73423   0.73983   0.74337   0.74589
 Alpha virt. eigenvalues --    0.75092   0.75253   0.75591   0.76134   0.76144
 Alpha virt. eigenvalues --    0.76627   0.77179   0.77667   0.77977   0.78196
 Alpha virt. eigenvalues --    0.79293   0.79519   0.80207   0.80670   0.80809
 Alpha virt. eigenvalues --    0.81169   0.81421   0.81966   0.82002   0.82683
 Alpha virt. eigenvalues --    0.82962   0.83160   0.83171   0.83789   0.83965
 Alpha virt. eigenvalues --    0.84688   0.84838   0.85440   0.85765   0.85863
 Alpha virt. eigenvalues --    0.86584   0.86705   0.87365   0.87586   0.87902
 Alpha virt. eigenvalues --    0.88273   0.88701   0.89083   0.89173   0.89611
 Alpha virt. eigenvalues --    0.89895   0.90254   0.90660   0.90763   0.91037
 Alpha virt. eigenvalues --    0.91553   0.91721   0.92373   0.92852   0.93437
 Alpha virt. eigenvalues --    0.93570   0.93588   0.94588   0.94765   0.95343
 Alpha virt. eigenvalues --    0.95827   0.95899   0.97014   0.97392   0.98018
 Alpha virt. eigenvalues --    0.98211   0.98617   0.98854   0.99869   1.00021
 Alpha virt. eigenvalues --    1.01112   1.01323   1.01932   1.02260   1.02585
 Alpha virt. eigenvalues --    1.02816   1.03353   1.04039   1.04197   1.05128
 Alpha virt. eigenvalues --    1.05469   1.06292   1.06465   1.06627   1.07065
 Alpha virt. eigenvalues --    1.07165   1.07803   1.08198   1.08715   1.09269
 Alpha virt. eigenvalues --    1.09647   1.09676   1.10205   1.10509   1.11222
 Alpha virt. eigenvalues --    1.11561   1.12410   1.12811   1.13153   1.13401
 Alpha virt. eigenvalues --    1.14306   1.14647   1.16298   1.16585   1.17057
 Alpha virt. eigenvalues --    1.17741   1.18147   1.18938   1.19598   1.19791
 Alpha virt. eigenvalues --    1.20357   1.20876   1.21263   1.21503   1.22287
 Alpha virt. eigenvalues --    1.22623   1.23521   1.23875   1.24039   1.24574
 Alpha virt. eigenvalues --    1.24992   1.25289   1.25464   1.26184   1.26442
 Alpha virt. eigenvalues --    1.26760   1.27313   1.27788   1.27902   1.28184
 Alpha virt. eigenvalues --    1.28397   1.29056   1.29588   1.29904   1.30357
 Alpha virt. eigenvalues --    1.30902   1.31273   1.31519   1.31958   1.32759
 Alpha virt. eigenvalues --    1.33813   1.34002   1.34674   1.34866   1.35183
 Alpha virt. eigenvalues --    1.36521   1.36631   1.37220   1.37487   1.37960
 Alpha virt. eigenvalues --    1.38637   1.38975   1.39423   1.40246   1.40760
 Alpha virt. eigenvalues --    1.41760   1.41802   1.42298   1.42574   1.42939
 Alpha virt. eigenvalues --    1.43471   1.44033   1.44285   1.44422   1.44946
 Alpha virt. eigenvalues --    1.45925   1.46356   1.47042   1.47499   1.48070
 Alpha virt. eigenvalues --    1.48555   1.49224   1.49780   1.49951   1.50250
 Alpha virt. eigenvalues --    1.50352   1.50782   1.51029   1.51652   1.51883
 Alpha virt. eigenvalues --    1.52061   1.52683   1.53079   1.53406   1.53608
 Alpha virt. eigenvalues --    1.54254   1.54510   1.54803   1.55230   1.55660
 Alpha virt. eigenvalues --    1.55983   1.56169   1.56515   1.57061   1.57364
 Alpha virt. eigenvalues --    1.57640   1.57768   1.57989   1.58339   1.58532
 Alpha virt. eigenvalues --    1.58761   1.59142   1.59543   1.59779   1.60554
 Alpha virt. eigenvalues --    1.60818   1.60961   1.62057   1.62147   1.62337
 Alpha virt. eigenvalues --    1.62586   1.62701   1.63024   1.63316   1.63502
 Alpha virt. eigenvalues --    1.63888   1.64106   1.64434   1.65047   1.65182
 Alpha virt. eigenvalues --    1.65443   1.65656   1.65967   1.66306   1.66489
 Alpha virt. eigenvalues --    1.66736   1.66925   1.67086   1.68010   1.68544
 Alpha virt. eigenvalues --    1.68836   1.69189   1.69420   1.70046   1.70424
 Alpha virt. eigenvalues --    1.70625   1.71509   1.71923   1.72276   1.72573
 Alpha virt. eigenvalues --    1.73226   1.73947   1.74333   1.74445   1.74977
 Alpha virt. eigenvalues --    1.75780   1.76324   1.76465   1.77041   1.77528
 Alpha virt. eigenvalues --    1.78439   1.78995   1.79611   1.80014   1.80323
 Alpha virt. eigenvalues --    1.80919   1.81254   1.81485   1.81597   1.83046
 Alpha virt. eigenvalues --    1.83733   1.84795   1.85271   1.85676   1.86148
 Alpha virt. eigenvalues --    1.86434   1.87103   1.87623   1.87959   1.88373
 Alpha virt. eigenvalues --    1.89106   1.89290   1.89631   1.90521   1.90883
 Alpha virt. eigenvalues --    1.91535   1.91775   1.92895   1.93405   1.93766
 Alpha virt. eigenvalues --    1.94753   1.95206   1.95406   1.96235   1.96541
 Alpha virt. eigenvalues --    1.97119   1.97727   1.97935   1.98640   1.99246
 Alpha virt. eigenvalues --    1.99497   1.99848   2.00506   2.00759   2.00952
 Alpha virt. eigenvalues --    2.01477   2.01959   2.02333   2.02610   2.03192
 Alpha virt. eigenvalues --    2.03566   2.04125   2.04316   2.04757   2.05104
 Alpha virt. eigenvalues --    2.06092   2.06463   2.07116   2.07805   2.08294
 Alpha virt. eigenvalues --    2.09045   2.09393   2.09917   2.10594   2.10868
 Alpha virt. eigenvalues --    2.11587   2.11726   2.12068   2.12546   2.13400
 Alpha virt. eigenvalues --    2.13687   2.13924   2.14834   2.15072   2.16133
 Alpha virt. eigenvalues --    2.16511   2.17259   2.17527   2.17638   2.18437
 Alpha virt. eigenvalues --    2.18885   2.19031   2.19605   2.20059   2.20170
 Alpha virt. eigenvalues --    2.20623   2.21269   2.21770   2.21876   2.22914
 Alpha virt. eigenvalues --    2.23619   2.23902   2.24368   2.25274   2.25892
 Alpha virt. eigenvalues --    2.26062   2.26753   2.27300   2.28285   2.28827
 Alpha virt. eigenvalues --    2.29493   2.29758   2.30417   2.31457   2.31795
 Alpha virt. eigenvalues --    2.32453   2.32514   2.32993   2.33438   2.33497
 Alpha virt. eigenvalues --    2.33535   2.34721   2.34867   2.35462   2.35804
 Alpha virt. eigenvalues --    2.36050   2.36155   2.36824   2.37212   2.37557
 Alpha virt. eigenvalues --    2.38155   2.38481   2.38638   2.39533   2.39823
 Alpha virt. eigenvalues --    2.40443   2.40939   2.41278   2.42057   2.42665
 Alpha virt. eigenvalues --    2.43731   2.43988   2.44433   2.44613   2.45184
 Alpha virt. eigenvalues --    2.45325   2.45676   2.45806   2.46086   2.46901
 Alpha virt. eigenvalues --    2.47518   2.47633   2.48317   2.49377   2.50785
 Alpha virt. eigenvalues --    2.51408   2.51627   2.52017   2.53281   2.53734
 Alpha virt. eigenvalues --    2.54079   2.54247   2.54668   2.55499   2.55704
 Alpha virt. eigenvalues --    2.55800   2.56323   2.56921   2.57344   2.57388
 Alpha virt. eigenvalues --    2.57967   2.58550   2.59154   2.59563   2.59731
 Alpha virt. eigenvalues --    2.60033   2.60450   2.60690   2.61128   2.61627
 Alpha virt. eigenvalues --    2.61791   2.61893   2.62162   2.63026   2.63245
 Alpha virt. eigenvalues --    2.63409   2.63730   2.63995   2.64284   2.64526
 Alpha virt. eigenvalues --    2.65312   2.65584   2.65845   2.66452   2.66725
 Alpha virt. eigenvalues --    2.66940   2.67204   2.67683   2.68279   2.68440
 Alpha virt. eigenvalues --    2.68808   2.69337   2.70450   2.70650   2.70761
 Alpha virt. eigenvalues --    2.71167   2.71390   2.72027   2.72559   2.72732
 Alpha virt. eigenvalues --    2.73623   2.73973   2.74061   2.74463   2.74696
 Alpha virt. eigenvalues --    2.74803   2.75342   2.75632   2.75680   2.75798
 Alpha virt. eigenvalues --    2.76324   2.76736   2.77027   2.77248   2.77755
 Alpha virt. eigenvalues --    2.77845   2.78260   2.78801   2.79055   2.79316
 Alpha virt. eigenvalues --    2.79607   2.79918   2.79994   2.80540   2.81568
 Alpha virt. eigenvalues --    2.81625   2.82257   2.82848   2.82944   2.83117
 Alpha virt. eigenvalues --    2.83436   2.84419   2.85545   2.85714   2.86180
 Alpha virt. eigenvalues --    2.86574   2.87234   2.87958   2.88011   2.88521
 Alpha virt. eigenvalues --    2.89201   2.89257   2.89777   2.90435   2.90525
 Alpha virt. eigenvalues --    2.90669   2.91446   2.91513   2.92221   2.92437
 Alpha virt. eigenvalues --    2.92897   2.93143   2.93750   2.94189   2.95209
 Alpha virt. eigenvalues --    2.95383   2.96127   2.96507   2.96720   2.96793
 Alpha virt. eigenvalues --    2.97289   2.97324   2.97814   2.98398   2.98597
 Alpha virt. eigenvalues --    2.99386   3.00114   3.00438   3.01441   3.02154
 Alpha virt. eigenvalues --    3.02265   3.03064   3.03708   3.04054   3.04533
 Alpha virt. eigenvalues --    3.04897   3.06076   3.06882   3.07246   3.07652
 Alpha virt. eigenvalues --    3.07861   3.08876   3.09151   3.09233   3.09560
 Alpha virt. eigenvalues --    3.09674   3.10330   3.10653   3.10803   3.11319
 Alpha virt. eigenvalues --    3.11980   3.12235   3.12836   3.13003   3.13895
 Alpha virt. eigenvalues --    3.13991   3.14776   3.15117   3.15343   3.15996
 Alpha virt. eigenvalues --    3.16419   3.16834   3.17805   3.18044   3.18227
 Alpha virt. eigenvalues --    3.18641   3.18753   3.19218   3.19418   3.19626
 Alpha virt. eigenvalues --    3.19728   3.20275   3.20848   3.21462   3.21621
 Alpha virt. eigenvalues --    3.22172   3.22275   3.22448   3.23015   3.23469
 Alpha virt. eigenvalues --    3.23754   3.24047   3.24516   3.24896   3.25267
 Alpha virt. eigenvalues --    3.25761   3.25931   3.26391   3.26752   3.27117
 Alpha virt. eigenvalues --    3.27233   3.27548   3.27664   3.27910   3.28045
 Alpha virt. eigenvalues --    3.28118   3.28778   3.29197   3.29509   3.29700
 Alpha virt. eigenvalues --    3.29937   3.31253   3.31576   3.31759   3.32105
 Alpha virt. eigenvalues --    3.32412   3.32753   3.32953   3.33322   3.33502
 Alpha virt. eigenvalues --    3.34104   3.34387   3.34948   3.35396   3.35694
 Alpha virt. eigenvalues --    3.35943   3.36310   3.36670   3.36767   3.37041
 Alpha virt. eigenvalues --    3.37806   3.37928   3.38089   3.38293   3.38574
 Alpha virt. eigenvalues --    3.38813   3.39139   3.39668   3.40355   3.40552
 Alpha virt. eigenvalues --    3.41365   3.41797   3.42094   3.42450   3.42654
 Alpha virt. eigenvalues --    3.42707   3.43112   3.43474   3.43646   3.43782
 Alpha virt. eigenvalues --    3.44378   3.44829   3.44994   3.45568   3.45791
 Alpha virt. eigenvalues --    3.46264   3.46472   3.46644   3.46926   3.47343
 Alpha virt. eigenvalues --    3.48024   3.48122   3.48372   3.49191   3.49845
 Alpha virt. eigenvalues --    3.50072   3.50731   3.50885   3.51650   3.51803
 Alpha virt. eigenvalues --    3.53345   3.53493   3.53817   3.55146   3.55279
 Alpha virt. eigenvalues --    3.55577   3.56307   3.57214   3.57830   3.58171
 Alpha virt. eigenvalues --    3.59086   3.59278   3.59996   3.60535   3.60607
 Alpha virt. eigenvalues --    3.60993   3.61433   3.61718   3.62136   3.62475
 Alpha virt. eigenvalues --    3.62899   3.64004   3.64679   3.64932   3.65575
 Alpha virt. eigenvalues --    3.66202   3.66800   3.67094   3.67833   3.68470
 Alpha virt. eigenvalues --    3.69146   3.69714   3.70097   3.70319   3.70525
 Alpha virt. eigenvalues --    3.71397   3.72190   3.72741   3.73763   3.74217
 Alpha virt. eigenvalues --    3.74891   3.75893   3.76425   3.76948   3.77097
 Alpha virt. eigenvalues --    3.77509   3.78297   3.78858   3.79593   3.79679
 Alpha virt. eigenvalues --    3.80475   3.81291   3.81528   3.81908   3.82467
 Alpha virt. eigenvalues --    3.82950   3.83447   3.84548   3.85083   3.86375
 Alpha virt. eigenvalues --    3.87092   3.87635   3.88484   3.89065   3.89352
 Alpha virt. eigenvalues --    3.89870   3.91436   3.92007   3.92310   3.93425
 Alpha virt. eigenvalues --    3.93849   3.94752   3.95228   3.96826   3.97939
 Alpha virt. eigenvalues --    3.98455   3.98667   3.98998   4.00441   4.00814
 Alpha virt. eigenvalues --    4.01510   4.02437   4.03115   4.03853   4.04151
 Alpha virt. eigenvalues --    4.04434   4.05448   4.05919   4.07027   4.07609
 Alpha virt. eigenvalues --    4.07785   4.08593   4.08743   4.09053   4.09692
 Alpha virt. eigenvalues --    4.10424   4.11040   4.11425   4.11664   4.11967
 Alpha virt. eigenvalues --    4.12281   4.12548   4.12687   4.13275   4.13492
 Alpha virt. eigenvalues --    4.14041   4.14785   4.15226   4.15710   4.16002
 Alpha virt. eigenvalues --    4.17157   4.17311   4.17672   4.18401   4.18933
 Alpha virt. eigenvalues --    4.19301   4.19918   4.20582   4.21175   4.21954
 Alpha virt. eigenvalues --    4.22234   4.23443   4.23983   4.24114   4.24571
 Alpha virt. eigenvalues --    4.25193   4.25625   4.26008   4.26972   4.27555
 Alpha virt. eigenvalues --    4.28250   4.28570   4.29385   4.29947   4.30835
 Alpha virt. eigenvalues --    4.31142   4.32555   4.33168   4.33555   4.34457
 Alpha virt. eigenvalues --    4.35376   4.35714   4.36146   4.37277   4.37857
 Alpha virt. eigenvalues --    4.38180   4.39529   4.40253   4.41554   4.42371
 Alpha virt. eigenvalues --    4.42873   4.43121   4.43785   4.44215   4.44648
 Alpha virt. eigenvalues --    4.45047   4.46493   4.47389   4.47905   4.49209
 Alpha virt. eigenvalues --    4.49446   4.50416   4.50905   4.51122   4.51834
 Alpha virt. eigenvalues --    4.52837   4.53766   4.54387   4.56251   4.56704
 Alpha virt. eigenvalues --    4.58113   4.58911   4.59360   4.59542   4.60815
 Alpha virt. eigenvalues --    4.62617   4.63128   4.65036   4.66073   4.66651
 Alpha virt. eigenvalues --    4.68826   4.69612   4.70965   4.71780   4.73320
 Alpha virt. eigenvalues --    4.74063   4.74603   4.75109   4.75954   4.76252
 Alpha virt. eigenvalues --    4.78090   4.78418   4.79458   4.80216   4.82932
 Alpha virt. eigenvalues --    4.83866   4.84518   4.85024   4.86146   4.86632
 Alpha virt. eigenvalues --    4.88705   4.89850   4.90710   4.91057   4.91675
 Alpha virt. eigenvalues --    4.91721   4.92940   4.94162   4.94752   4.95054
 Alpha virt. eigenvalues --    4.97368   4.97715   4.98336   4.99231   4.99721
 Alpha virt. eigenvalues --    4.99968   5.01016   5.02565   5.03915   5.04822
 Alpha virt. eigenvalues --    5.07086   5.07540   5.09357   5.11284   5.12325
 Alpha virt. eigenvalues --    5.12461   5.12955   5.15666   5.16865   5.16976
 Alpha virt. eigenvalues --    5.17993   5.18867   5.18947   5.19775   5.20947
 Alpha virt. eigenvalues --    5.22006   5.23310   5.25995   5.26484   5.27672
 Alpha virt. eigenvalues --    5.28140   5.29277   5.30644   5.32010   5.33100
 Alpha virt. eigenvalues --    5.33404   5.34130   5.34640   5.35593   5.36121
 Alpha virt. eigenvalues --    5.36879   5.37294   5.38483   5.39063   5.40660
 Alpha virt. eigenvalues --    5.41176   5.43111   5.44050   5.45181   5.45878
 Alpha virt. eigenvalues --    5.46153   5.47473   5.49961   5.51909   5.54892
 Alpha virt. eigenvalues --    5.54985   5.57097   5.57860   5.60422   5.61371
 Alpha virt. eigenvalues --    5.61932   5.62561   5.64549   5.66587   5.70773
 Alpha virt. eigenvalues --    5.71261   5.73765   5.74944   5.75535   5.76930
 Alpha virt. eigenvalues --    5.78864   5.80053   5.81074   5.82085   5.84748
 Alpha virt. eigenvalues --    5.87731   5.89749   5.91814   5.95262   5.96763
 Alpha virt. eigenvalues --    6.02066   6.02897   6.09971   6.11184   6.11390
 Alpha virt. eigenvalues --    6.13333   6.16827   6.35840   6.41406   6.50932
 Alpha virt. eigenvalues --    6.55199   6.80515   7.01826   7.09160  22.41668
 Alpha virt. eigenvalues --   22.42167  22.49899  22.53460  22.54897  22.55143
 Alpha virt. eigenvalues --   22.56581  22.56775  22.58942  22.72600  22.73041
 Alpha virt. eigenvalues --   22.79323  22.83525  22.84360  22.88984  22.90449
 Alpha virt. eigenvalues --   22.92309  22.93153  23.00357  23.01103  23.04717
 Alpha virt. eigenvalues --   23.10102  23.13462  23.14016  23.15715  23.17430
 Alpha virt. eigenvalues --   23.20538  23.22157  23.49712  23.51096  32.51446
 Alpha virt. eigenvalues --   32.70929  32.78766  32.79209  32.99068  32.99532
 Alpha virt. eigenvalues --   43.96167
          Condensed to atoms (all electrons):
 Mulliken charges:
               1
     1  C    0.337634
     2  C   -0.191627
     3  C   -0.296326
     4  C    0.207800
     5  H    0.135412
     6  C   -0.327282
     7  C    0.376919
     8  H    0.135712
     9  C   -0.352711
    10  C   -0.188283
    11  H    0.165336
    12  C    0.065603
    13  H    0.098233
    14  H    0.094048
    15  C    0.377800
    16  C   -0.189307
    17  C   -0.363009
    18  C    0.384064
    19  H    0.164814
    20  C   -0.322009
    21  C    0.277187
    22  H    0.131173
    23  C   -0.405581
    24  C   -0.082708
    25  H    0.119303
    26  C   -0.198421
    27  H    0.075730
    28  C   -0.121425
    29  C    0.194990
    30  N   -0.159748
    31  H    0.118008
    32  N   -0.177059
    33  C   -0.405792
    34  O   -0.323767
    35  C    0.194651
    36  C   -0.123395
    37  N   -0.178380
    38  C   -0.408535
    39  N   -0.159058
    40  H    0.087210
    41  C   -0.144231
    42  C    0.141261
    43  N   -0.292124
    44  H    0.137572
    45  N   -0.298845
    46  H    0.076687
    47  H    0.208728
    48  H    0.083726
    49  H    0.208723
    50  H    0.090603
    51  H    0.087402
    52  C   -0.408453
    53  C   -0.405741
    54  H    0.118673
    55  H    0.092617
    56  C   -0.381488
    57  H    0.138200
    58  H    0.141225
    59  H    0.135277
    60  H    0.134336
    61  H    0.140560
    62  H    0.138750
    63  H    0.116185
    64  H    0.120319
    65  H    0.118052
    66  C   -0.437185
    67  H    0.129043
    68  H    0.131383
    69  H    0.131961
    70  H    0.126816
    71  H    0.147137
    72  H    0.116396
    73  H    0.115801
    74  H    0.146172
    75  H    0.127255
 Sum of Mulliken charges =   0.00000
 Mulliken charges with hydrogens summed into heavy atoms:
               1
     1  C    0.337634
     2  C   -0.097578
     3  C   -0.160914
     4  C    0.207800
     6  C   -0.191570
     7  C    0.376919
     9  C   -0.187376
    10  C   -0.090050
    12  C    0.156206
    15  C    0.377800
    16  C   -0.112620
    17  C   -0.198194
    18  C    0.384064
    20  C   -0.190836
    21  C    0.277187
    23  C   -0.286278
    24  C    0.001017
    26  C   -0.122690
    28  C    0.083985
    29  C    0.194990
    30  N   -0.159748
    32  N   -0.177059
    33  C   -0.015443
    34  O   -0.323767
    35  C    0.194651
    36  C    0.082489
    37  N   -0.178380
    38  C    0.006167
    39  N   -0.159058
    41  C    0.085958
    42  C    0.141261
    43  N   -0.083396
    45  N   -0.090122
    52  C    0.005194
    53  C   -0.016514
    56  C   -0.026932
    66  C   -0.044798
 Electronic spatial extent (au):  <R**2>=          27470.3373
 Charge=              0.0000 electrons
 Dipole moment (field-independent basis, Debye):
    X=             -5.5395    Y=              2.0113    Z=             -0.1008  Tot=              5.8942
 Quadrupole moment (field-independent basis, Debye-Ang):
   XX=           -219.2224   YY=           -192.6034   ZZ=           -223.1385
   XY=             25.9120   XZ=              8.8549   YZ=             -5.8689
 Traceless Quadrupole moment (field-independent basis, Debye-Ang):
   XX=             -7.5677   YY=             19.0514   ZZ=            -11.4837
   XY=             25.9120   XZ=              8.8549   YZ=             -5.8689
 Octapole moment (field-independent basis, Debye-Ang**2):
  XXX=           -562.1450  YYY=             17.6228  ZZZ=             -1.6699  XYY=             26.6589
  XXY=            186.8486  XXZ=             14.2075  XZZ=            -22.7897  YZZ=             -5.9069
  YYZ=             -1.4550  XYZ=             -5.8515
 Hexadecapole moment (field-independent basis, Debye-Ang**3):
 XXXX=         -29929.3248 YYYY=          -7760.8681 ZZZZ=          -1118.1125 XXXY=           1841.0084
 XXXZ=            583.3130 YYYX=              5.3797 YYYZ=             -9.2272 ZZZX=             11.0443
 ZZZY=              0.6900 XXYY=          -6164.7339 XXZZ=          -4876.1811 YYZZ=          -1569.9818
 XXYZ=           -298.7966 YYXZ=             62.2648 ZZXY=             50.4254
 N-N= 3.863654541749D+03 E-N=-1.137688831981D+04  KE= 1.561337170284D+03
 No NMR shielding tensors so no spin-rotation constants.
 Leave Link  601 at Mon Oct 18 20:46:55 2021, MaxMem=  7864320000 cpu:              32.2 elap:               1.2
 (Enter /apps/gaussian/g16-c01-avx/g16/l9999.exe)
 Unable to Open any file for archive entry.
 1\1\GINC-CX3-6-2\SP\RPBE1PBE\def2TZVP\C30H38N6O1\ATARZIA\18-Oct-2021\0
 \\#P PBE1PBE/Def2TZVP SP SCF=(YQC,MaxCycle=900) int=(Grid=Superfinegri
 d) EmpiricalDispersion=GD3 SCRF=(PCM,Solvent=Chloroform)\\_2_alde1_3_a
 mi2_1_opt_cfm\\0,1\C,0,-4.9557,-2.8067,-0.5931\C,0,-4.2172,-2.657,0.65
 9\C,0,-5.8052,-3.8956,-0.7692\C,0,-6.5142,-4.0522,-1.9577\H,0,-5.92,-4
 .6274,0.0195\C,0,-6.3667,-3.1124,-2.977\C,0,-5.5212,-2.0199,-2.8147\H,
 0,-6.9256,-3.2558,-3.8912\C,0,-4.8186,-1.8743,-1.6199\C,0,-5.377,-1.04
 66,-3.8953\H,0,-4.1554,-1.0344,-1.4903\C,0,-7.4118,-5.1971,-2.145\H,0,
 -5.922,-1.3007,-4.8149\H,0,-4.3475,-3.486,1.3695\C,0,0.2064,1.0476,-0.
 5491\C,0,-0.061,0.1672,0.5793\C,0,-0.5864,0.9747,-1.6895\C,0,-0.3573,1
 .8294,-2.7624\H,0,-1.3882,0.2565,-1.7386\C,0,0.6781,2.7597,-2.6875\C,0
 ,1.4828,2.8311,-1.56\H,0,0.8783,3.4292,-3.5115\C,0,1.2418,1.9801,-0.49
 21\C,0,2.5736,3.8667,-1.4772\H,0,1.8616,2.0464,0.3912\C,0,-1.2098,1.76
 32,-3.9411\H,0,-1.0241,2.5229,-4.7198\C,0,-1.2386,-1.5605,1.62\C,0,-2.
 7266,-1.4019,2.0409\N,0,-0.9418,-0.7301,0.5079\H,0,-1.0875,-2.5984,1.3
 04\N,0,-3.5078,-1.64,0.8642\C,0,-2.9899,0.0554,2.4396\O,0,-8.0668,-5.4
 183,-3.1319\C,0,-4.4501,0.9903,-4.7298\C,0,-2.9674,0.8393,-5.1715\N,0,
 -4.6792,-0.0135,-3.7338\C,0,-5.3394,0.9239,-5.9793\N,0,-2.1035,0.8822,
 -4.0464\H,0,-2.7405,1.6176,-5.9228\C,0,3.0417,6.1013,-1.3547\C,0,3.530
 4,5.6312,-2.7525\N,0,2.0783,5.1094,-0.9055\H,0,2.6016,7.0965,-1.3714\N
 ,0,3.0779,4.238,-2.7998\H,0,0.547,0.3373,1.4845\H,0,1.1665,5.3066,-1.3
 097\H,0,3.3796,3.5031,-0.8105\H,0,3.7864,3.6018,-3.1402\H,0,-7.4497,-5
 .8808,-1.2722\H,0,-0.5992,-1.3552,2.4978\C,0,-2.9957,-2.3288,3.2347\C,
 0,-4.6362,2.3399,-4.0255\H,0,-2.8539,-0.1468,-5.6346\H,0,3.8775,6.0983
 ,-0.6477\C,0,2.8305,6.4074,-3.8734\H,0,-5.1332,1.7777,-6.6195\H,0,-6.3
 892,0.9531,-5.694\H,0,-5.1519,0.0168,-6.5502\H,0,-2.721,-3.3569,3.007\
 H,0,-4.0492,-2.2942,3.506\H,0,-2.4098,-2.0016,4.0896\H,0,3.0897,5.9792
 ,-4.8387\H,0,3.1314,7.452,-3.8596\H,0,1.7516,6.3475,-3.7522\C,0,5.0475
 ,5.7621,-2.889\H,0,5.3492,6.7989,-2.7596\H,0,5.3682,5.4291,-3.8744\H,0
 ,5.5515,5.1587,-2.1355\H,0,-4.0155,0.1653,2.7839\H,0,-2.8416,0.6954,1.
 5746\H,0,-2.315,0.3618,3.2352\H,0,-4.328,3.1557,-4.6753\H,0,-4.0387,2.
 3555,-3.1185\H,0,-5.6812,2.4766,-3.758\\Version=ES64L-G16RevC.01\State
 =1-A\HF=-1568.5298442\RMSD=3.321e-09\Dipole=1.8671901,1.2420525,0.5903
 685\Quadrupole=-5.9719244,-3.8660422,9.8379665,-2.8565741,-6.7555194,-
 21.4152131\PG=C01 [X(C30H38N6O1)]\\@
 The archive entry for this job was punched.


 ONE THORN OF EXPERIENCE IS WORTH A WHOLE WILDERNESS OF
 WARNING....  LOWELL - AMONG MY BOOKS
 Job cpu time:       0 days 13 hours 17 minutes 51.9 seconds.
 Elapsed time:       0 days  0 hours 25 minutes 15.3 seconds.
 File lengths (MBytes):  RWF=   1632 Int=      0 D2E=      0 Chk=    120 Scr=     16
 Normal termination of Gaussian 16 at Mon Oct 18 20:46:55 2021.
