 Entering Gaussian System, Link 0=g16
 Initial command:
 /apps/gaussian/g16-c01-avx/g16/l1.exe "/rds/general/ephemeral/user/atarzia/ephemeral/Gau-2005198.inp" -scrdir="/rds/general/ephemeral/user/atarzia/ephemeral/"
 Entering Link 1 = /apps/gaussian/g16-c01-avx/g16/l1.exe PID=   2005199.
  
 Copyright (c) 1988-2019, Gaussian, Inc.  All Rights Reserved.
  
 This is part of the Gaussian(R) 16 program.  It is based on
 the Gaussian(R) 09 system (copyright 2009, Gaussian, Inc.),
 the Gaussian(R) 03 system (copyright 2003, Gaussian, Inc.),
 the Gaussian(R) 98 system (copyright 1998, Gaussian, Inc.),
 the Gaussian(R) 94 system (copyright 1995, Gaussian, Inc.),
 the Gaussian 92(TM) system (copyright 1992, Gaussian, Inc.),
 the Gaussian 90(TM) system (copyright 1990, Gaussian, Inc.),
 the Gaussian 88(TM) system (copyright 1988, Gaussian, Inc.),
 the Gaussian 86(TM) system (copyright 1986, Carnegie Mellon
 University), and the Gaussian 82(TM) system (copyright 1983,
 Carnegie Mellon University). Gaussian is a federally registered
 trademark of Gaussian, Inc.
  
 This software contains proprietary and confidential information,
 including trade secrets, belonging to Gaussian, Inc.
  
 This software is provided under written license and may be
 used, copied, transmitted, or stored only in accord with that
 written license.
  
 The following legend is applicable only to US Government
 contracts under FAR:
  
                    RESTRICTED RIGHTS LEGEND
  
 Use, reproduction and disclosure by the US Government is
 subject to restrictions as set forth in subparagraphs (a)
 and (c) of the Commercial Computer Software - Restricted
 Rights clause in FAR 52.227-19.
  
 Gaussian, Inc.
 340 Quinnipiac St., Bldg. 40, Wallingford CT 06492
  
  
 ---------------------------------------------------------------
 Warning -- This program may not be used in any manner that
 competes with the business of Gaussian, Inc. or will provide
 assistance to any competitor of Gaussian, Inc.  The licensee
 of this program is prohibited from giving any competitor of
 Gaussian, Inc. access to this program.  By using this program,
 the user acknowledges that Gaussian, Inc. is engaged in the
 business of creating and licensing software in the field of
 computational chemistry and represents and warrants to the
 licensee that it is not a competitor of Gaussian, Inc. and that
 it will not use this program in any manner prohibited above.
 ---------------------------------------------------------------
  

 Cite this work as:
 Gaussian 16, Revision C.01,
 M. J. Frisch, G. W. Trucks, H. B. Schlegel, G. E. Scuseria, 
 M. A. Robb, J. R. Cheeseman, G. Scalmani, V. Barone, 
 G. A. Petersson, H. Nakatsuji, X. Li, M. Caricato, A. V. Marenich, 
 J. Bloino, B. G. Janesko, R. Gomperts, B. Mennucci, H. P. Hratchian, 
 J. V. Ortiz, A. F. Izmaylov, J. L. Sonnenberg, D. Williams-Young, 
 F. Ding, F. Lipparini, F. Egidi, J. Goings, B. Peng, A. Petrone, 
 T. Henderson, D. Ranasinghe, V. G. Zakrzewski, J. Gao, N. Rega, 
 G. Zheng, W. Liang, M. Hada, M. Ehara, K. Toyota, R. Fukuda, 
 J. Hasegawa, M. Ishida, T. Nakajima, Y. Honda, O. Kitao, H. Nakai, 
 T. Vreven, K. Throssell, J. A. Montgomery, Jr., J. E. Peralta, 
 F. Ogliaro, M. J. Bearpark, J. J. Heyd, E. N. Brothers, K. N. Kudin, 
 V. N. Staroverov, T. A. Keith, R. Kobayashi, J. Normand, 
 K. Raghavachari, A. P. Rendell, J. C. Burant, S. S. Iyengar, 
 J. Tomasi, M. Cossi, J. M. Millam, M. Klene, C. Adamo, R. Cammi, 
 J. W. Ochterski, R. L. Martin, K. Morokuma, O. Farkas, 
 J. B. Foresman, and D. J. Fox, Gaussian, Inc., Wallingford CT, 2019.
 
 ******************************************
 Gaussian 16:  ES64L-G16RevC.01  3-Jul-2019
                18-Oct-2021 
 ******************************************
 %chk=_2_alde1_4_ami1_1_opt_gas.chk
 %mem=60000mb
 %nprocshared=32
 Will use up to   32 processors via shared memory.
 ----------------------------------------------------------------------
 #P PBE1PBE/Def2TZVP SP SCF=(YQC,MaxCycle=900) int=(Grid=Superfinegrid)
  EmpiricalDispersion=GD3
 ----------------------------------------------------------------------
 1/38=1,172=1/1;
 2/12=2,17=6,18=5,40=1/2;
 3/5=44,7=101,11=2,25=1,30=1,74=-13,75=-7,124=31/1,2,3;
 4//1;
 5/5=2,7=900,8=4,13=1,38=1/8,2,8;
 6/7=2,8=2,9=2,10=2,28=1/1;
 99/5=1,9=1/99;
 Leave Link    1 at Mon Oct 18 09:22:52 2021, MaxMem=  7864320000 cpu:               5.0 elap:               0.2
 (Enter /apps/gaussian/g16-c01-avx/g16/l101.exe)
 -------------------------
 _2_alde1_4_ami1_1_opt_gas
 -------------------------
 Symbolic Z-matrix:
 Charge =  0 Multiplicity = 1
 C                    -4.0235   -2.172    -1.5239 
 C                    -4.3522   -2.008    -0.1171 
 C                    -3.3291   -3.2963   -1.9734 
 C                    -2.9378   -3.3968   -3.2965 
 H                    -3.0834   -4.0794   -1.2753 
 C                    -3.2221   -2.3614   -4.1764 
 C                    -3.8901   -1.2203   -3.7399 
 H                    -2.8987   -2.4407   -5.2036 
 C                    -4.3172   -1.1488   -2.4165 
 C                    -4.0333   -0.0744   -4.6243 
 H                    -4.8458   -0.2645   -2.097 
 C                    -2.1825   -4.6116   -3.8003 
 H                    -3.4337   -0.1164   -5.5483 
 H                    -4.9748   -1.1325    0.1252 
 C                    -1.2253    0.376     0.0132 
 C                    -1.4786   -0.603     1.0616 
 C                    -2.2888    0.9912   -0.6385 
 C                    -2.0667    1.8392   -1.7174 
 H                    -3.2893    0.7682   -0.3046 
 C                    -0.7568    2.1222   -2.1021 
 C                     0.3134    1.5675   -1.4172 
 H                    -0.5818    2.7965   -2.9254 
 C                     0.0767    0.6732   -0.3829 
 C                     1.723     1.9043   -1.8269 
 H                     0.9108    0.2131    0.1286 
 C                    -3.2108    2.375    -2.4387 
 H                    -4.1807    2.2483   -1.9347 
 C                    -2.8248   -1.706     2.6203 
 C                    -4.1193   -2.4289    2.1523 
 N                    -2.5807   -0.6636    1.6682 
 H                    -2.0006   -2.4399    2.6158 
 C                    -2.9327   -1.1029    4.0362 
 N                    -3.9035   -2.775     0.7777 
 H                    -4.9458   -1.7039    2.2463 
 C                    -4.4664   -3.6947    2.9538 
 H                    -3.219    -1.9062    4.7225 
 C                    -3.9684    0.0157    4.1103 
 C                    -1.5637   -0.5761    4.4672 
 H                    -4.5912   -3.4165    4.0056 
 C                    -3.3811   -4.7614    2.837 
 C                    -5.7977   -4.2462    2.4428 
 H                    -1.6087   -0.1985    5.4863 
 H                    -1.2483    0.234     3.8127 
 H                    -0.815    -1.3651    4.4273 
 H                    -4.9752   -0.3701    3.9749 
 H                    -3.7686    0.7522    3.3367 
 H                    -3.9211    0.5024    5.0822 
 H                    -5.7018   -4.5299    1.3973 
 H                    -6.5836   -3.4981    2.527 
 H                    -6.0933   -5.1212    3.0174 
 H                    -3.1358   -4.9143    1.7899 
 H                    -3.7332   -5.7       3.2594 
 H                    -2.4807   -4.4681    3.3707 
 C                     0.0431   -3.9768   -3.6691 
 C                    -0.2738   -4.9281   -2.4713 
 N                    -1.0502   -4.1854   -4.6177 
 H                     0.9895   -4.2386   -4.149 
 C                     0.1286   -2.4937   -3.2585 
 N                    -1.6472   -5.3863   -2.6878 
 H                    -0.268    -4.3466   -1.5417 
 C                     0.687    -6.119    -2.2979 
 H                    -0.7656   -2.2395   -2.6821 
 C                     0.1697   -1.61     -4.503 
 C                     1.3638   -2.2183   -2.4053 
 H                     0.2234   -6.7722   -1.5475 
 C                     2.0431   -5.6734   -1.7588 
 C                     0.877    -6.9329   -3.5795 
 H                     2.2623   -2.5602   -2.9163 
 H                     1.304    -2.7198   -1.4433 
 H                     1.4621   -1.1485   -2.2367 
 H                     1.1296   -1.7101   -5.0062 
 H                     0.025    -0.5709   -4.2191 
 H                    -0.6149   -1.8988   -5.1944 
 H                     1.4241   -7.8469   -3.3586 
 H                     1.4461   -6.3737   -4.3192 
 H                    -0.077    -7.2169   -4.022 
 H                     1.9261   -5.1475   -0.8146 
 H                     2.5405   -5.0106   -2.4619 
 H                     2.6817   -6.5383   -1.5923 
 C                    -4.7214    2.0879   -5.169 
 C                    -4.3268    3.2829   -4.2554 
 N                    -4.738     0.9279   -4.3287 
 H                    -3.9551    1.9887   -5.9572 
 C                    -6.0965    2.261    -5.8473 
 N                    -3.1174    2.9088   -3.5776 
 H                    -5.1484    3.414    -3.5316 
 C                    -4.0989    4.6073   -5.0034 
 H                    -6.0837    3.2066   -6.3986 
 C                    -7.2406    2.2824   -4.8374 
 C                    -6.3092    1.129    -6.8527 
 H                    -5.0176    4.8667   -5.5397 
 C                    -2.9434    4.5112   -5.9958 
 C                    -3.8167    5.7056   -3.9779 
 H                    -6.337     0.1697   -6.3402 
 H                    -5.5054    1.1065   -7.5862 
 H                    -7.2504    1.2657   -7.3806 
 H                    -8.1959    2.2716   -5.3578 
 H                    -7.2037    3.175    -4.2186 
 H                    -7.179     1.4079   -4.1953 
 H                    -4.6378    5.792    -3.2689 
 H                    -3.688     6.6655   -4.4731 
 H                    -2.9089    5.4709   -3.4271 
 H                    -2.6944    5.4994   -6.3764 
 H                    -3.2011    3.8788   -6.8415 
 H                    -2.0734    4.0941   -5.497 
 C                     2.9697    3.3873   -3.1723 
 C                     3.255     1.9023   -3.5392 
 N                     1.8405    3.2994   -2.2551 
 H                     2.6295    3.9306   -4.0654 
 C                     4.2136    4.1299   -2.6419 
 N                     2.1446    1.1375   -2.984 
 H                     4.156     1.5792   -3.0009 
 C                     3.4908    1.6449   -5.0324 
 H                     5.0302    3.9116   -3.3408 
 C                     4.6414    3.6765   -1.2468 
 C                     3.9697    5.6389   -2.6467 
 H                     4.2448    2.3707   -5.3602 
 C                     2.2377    1.8308   -5.889 
 C                     4.0467    0.2351   -5.227 
 H                     4.8502    6.1679   -2.2886 
 H                     3.1306    5.895    -2.0029 
 H                     3.7446    5.9877   -3.6521 
 H                     3.8814    3.9193   -0.506 
 H                     5.5605    4.183    -0.9599 
 H                     4.8223    2.6045   -1.2154 
 H                     5.011     0.1291   -4.7354 
 H                     4.1734    0.0178   -6.2852 
 H                     3.3605   -0.4892   -4.7959 
 H                     2.5162    1.8726   -6.9397 
 H                     1.7172    2.7526   -5.6401 
 H                     1.5527    0.9958   -5.76 
 H                    -0.6521   -1.3023    1.2685 
 H                     1.9029    3.9447   -1.4793 
 H                     2.4146    1.6569   -0.9981 
 H                     1.3791    1.139    -3.6522 
 H                    -1.6646   -6.3777   -2.8966 
 H                    -0.8011   -4.921    -5.2714 
 H                    -2.8785   -5.214    -4.3985 
 
 ITRead=  0  0  0  0  0  0  0  0  0  0  0  0  0  0  0  0  0  0  0  0
 ITRead=  0  0  0  0  0  0  0  0  0  0  0  0  0  0  0  0  0  0  0  0
 ITRead=  0  0  0  0  0  0  0  0  0  0  0  0  0  0  0  0  0  0  0  0
 ITRead=  0  0  0  0  0  0  0  0  0  0  0  0  0  0  0  0  0  0  0  0
 ITRead=  0  0  0  0  0  0  0  0  0  0  0  0  0  0  0  0  0  0  0  0
 ITRead=  0  0  0  0  0  0  0  0  0  0  0  0  0  0  0  0  0  0  0  0
 ITRead=  0  0  0  0  0  0  0  0  0  0  0  0  0  0  0  0  0  0
 MicOpt= -1 -1 -1 -1 -1 -1 -1 -1 -1 -1 -1 -1 -1 -1 -1 -1 -1 -1 -1 -1
 MicOpt= -1 -1 -1 -1 -1 -1 -1 -1 -1 -1 -1 -1 -1 -1 -1 -1 -1 -1 -1 -1
 MicOpt= -1 -1 -1 -1 -1 -1 -1 -1 -1 -1 -1 -1 -1 -1 -1 -1 -1 -1 -1 -1
 MicOpt= -1 -1 -1 -1 -1 -1 -1 -1 -1 -1 -1 -1 -1 -1 -1 -1 -1 -1 -1 -1
 MicOpt= -1 -1 -1 -1 -1 -1 -1 -1 -1 -1 -1 -1 -1 -1 -1 -1 -1 -1 -1 -1
 MicOpt= -1 -1 -1 -1 -1 -1 -1 -1 -1 -1 -1 -1 -1 -1 -1 -1 -1 -1 -1 -1
 MicOpt= -1 -1 -1 -1 -1 -1 -1 -1 -1 -1 -1 -1 -1 -1 -1 -1 -1 -1
 NAtoms=    138 NQM=      138 NQMF=       0 NMMI=      0 NMMIF=      0
                NMic=       0 NMicF=      0.
                    Isotopes and Nuclear Properties:
 (Nuclear quadrupole moments (NQMom) in fm**2, nuclear magnetic moments (NMagM)
  in nuclear magnetons)

  Atom         1           2           3           4           5           6           7           8           9          10
 IAtWgt=          12          12          12          12           1          12          12           1          12          12
 AtmWgt=  12.0000000  12.0000000  12.0000000  12.0000000   1.0078250  12.0000000  12.0000000   1.0078250  12.0000000  12.0000000
 NucSpn=           0           0           0           0           1           0           0           1           0           0
 AtZEff=  -0.0000000  -0.0000000  -0.0000000  -0.0000000  -0.0000000  -0.0000000  -0.0000000  -0.0000000  -0.0000000  -0.0000000
 NQMom=    0.0000000   0.0000000   0.0000000   0.0000000   0.0000000   0.0000000   0.0000000   0.0000000   0.0000000   0.0000000
 NMagM=    0.0000000   0.0000000   0.0000000   0.0000000   2.7928460   0.0000000   0.0000000   2.7928460   0.0000000   0.0000000
 AtZNuc=   6.0000000   6.0000000   6.0000000   6.0000000   1.0000000   6.0000000   6.0000000   1.0000000   6.0000000   6.0000000

  Atom        11          12          13          14          15          16          17          18          19          20
 IAtWgt=           1          12           1           1          12          12          12          12           1          12
 AtmWgt=   1.0078250  12.0000000   1.0078250   1.0078250  12.0000000  12.0000000  12.0000000  12.0000000   1.0078250  12.0000000
 NucSpn=           1           0           1           1           0           0           0           0           1           0
 AtZEff=  -0.0000000  -0.0000000  -0.0000000  -0.0000000  -0.0000000  -0.0000000  -0.0000000  -0.0000000  -0.0000000  -0.0000000
 NQMom=    0.0000000   0.0000000   0.0000000   0.0000000   0.0000000   0.0000000   0.0000000   0.0000000   0.0000000   0.0000000
 NMagM=    2.7928460   0.0000000   2.7928460   2.7928460   0.0000000   0.0000000   0.0000000   0.0000000   2.7928460   0.0000000
 AtZNuc=   1.0000000   6.0000000   1.0000000   1.0000000   6.0000000   6.0000000   6.0000000   6.0000000   1.0000000   6.0000000

  Atom        21          22          23          24          25          26          27          28          29          30
 IAtWgt=          12           1          12          12           1          12           1          12          12          14
 AtmWgt=  12.0000000   1.0078250  12.0000000  12.0000000   1.0078250  12.0000000   1.0078250  12.0000000  12.0000000  14.0030740
 NucSpn=           0           1           0           0           1           0           1           0           0           2
 AtZEff=  -0.0000000  -0.0000000  -0.0000000  -0.0000000  -0.0000000  -0.0000000  -0.0000000  -0.0000000  -0.0000000  -0.0000000
 NQMom=    0.0000000   0.0000000   0.0000000   0.0000000   0.0000000   0.0000000   0.0000000   0.0000000   0.0000000   2.0440000
 NMagM=    0.0000000   2.7928460   0.0000000   0.0000000   2.7928460   0.0000000   2.7928460   0.0000000   0.0000000   0.4037610
 AtZNuc=   6.0000000   1.0000000   6.0000000   6.0000000   1.0000000   6.0000000   1.0000000   6.0000000   6.0000000   7.0000000

  Atom        31          32          33          34          35          36          37          38          39          40
 IAtWgt=           1          12          14           1          12           1          12          12           1          12
 AtmWgt=   1.0078250  12.0000000  14.0030740   1.0078250  12.0000000   1.0078250  12.0000000  12.0000000   1.0078250  12.0000000
 NucSpn=           1           0           2           1           0           1           0           0           1           0
 AtZEff=  -0.0000000  -0.0000000  -0.0000000  -0.0000000  -0.0000000  -0.0000000  -0.0000000  -0.0000000  -0.0000000  -0.0000000
 NQMom=    0.0000000   0.0000000   2.0440000   0.0000000   0.0000000   0.0000000   0.0000000   0.0000000   0.0000000   0.0000000
 NMagM=    2.7928460   0.0000000   0.4037610   2.7928460   0.0000000   2.7928460   0.0000000   0.0000000   2.7928460   0.0000000
 AtZNuc=   1.0000000   6.0000000   7.0000000   1.0000000   6.0000000   1.0000000   6.0000000   6.0000000   1.0000000   6.0000000

  Atom        41          42          43          44          45          46          47          48          49          50
 IAtWgt=          12           1           1           1           1           1           1           1           1           1
 AtmWgt=  12.0000000   1.0078250   1.0078250   1.0078250   1.0078250   1.0078250   1.0078250   1.0078250   1.0078250   1.0078250
 NucSpn=           0           1           1           1           1           1           1           1           1           1
 AtZEff=  -0.0000000  -0.0000000  -0.0000000  -0.0000000  -0.0000000  -0.0000000  -0.0000000  -0.0000000  -0.0000000  -0.0000000
 NQMom=    0.0000000   0.0000000   0.0000000   0.0000000   0.0000000   0.0000000   0.0000000   0.0000000   0.0000000   0.0000000
 NMagM=    0.0000000   2.7928460   2.7928460   2.7928460   2.7928460   2.7928460   2.7928460   2.7928460   2.7928460   2.7928460
 AtZNuc=   6.0000000   1.0000000   1.0000000   1.0000000   1.0000000   1.0000000   1.0000000   1.0000000   1.0000000   1.0000000

  Atom        51          52          53          54          55          56          57          58          59          60
 IAtWgt=           1           1           1          12          12          14           1          12          14           1
 AtmWgt=   1.0078250   1.0078250   1.0078250  12.0000000  12.0000000  14.0030740   1.0078250  12.0000000  14.0030740   1.0078250
 NucSpn=           1           1           1           0           0           2           1           0           2           1
 AtZEff=  -0.0000000  -0.0000000  -0.0000000  -0.0000000  -0.0000000  -0.0000000  -0.0000000  -0.0000000  -0.0000000  -0.0000000
 NQMom=    0.0000000   0.0000000   0.0000000   0.0000000   0.0000000   2.0440000   0.0000000   0.0000000   2.0440000   0.0000000
 NMagM=    2.7928460   2.7928460   2.7928460   0.0000000   0.0000000   0.4037610   2.7928460   0.0000000   0.4037610   2.7928460
 AtZNuc=   1.0000000   1.0000000   1.0000000   6.0000000   6.0000000   7.0000000   1.0000000   6.0000000   7.0000000   1.0000000

  Atom        61          62          63          64          65          66          67          68          69          70
 IAtWgt=          12           1          12          12           1          12          12           1           1           1
 AtmWgt=  12.0000000   1.0078250  12.0000000  12.0000000   1.0078250  12.0000000  12.0000000   1.0078250   1.0078250   1.0078250
 NucSpn=           0           1           0           0           1           0           0           1           1           1
 AtZEff=  -0.0000000  -0.0000000  -0.0000000  -0.0000000  -0.0000000  -0.0000000  -0.0000000  -0.0000000  -0.0000000  -0.0000000
 NQMom=    0.0000000   0.0000000   0.0000000   0.0000000   0.0000000   0.0000000   0.0000000   0.0000000   0.0000000   0.0000000
 NMagM=    0.0000000   2.7928460   0.0000000   0.0000000   2.7928460   0.0000000   0.0000000   2.7928460   2.7928460   2.7928460
 AtZNuc=   6.0000000   1.0000000   6.0000000   6.0000000   1.0000000   6.0000000   6.0000000   1.0000000   1.0000000   1.0000000

  Atom        71          72          73          74          75          76          77          78          79          80
 IAtWgt=           1           1           1           1           1           1           1           1           1          12
 AtmWgt=   1.0078250   1.0078250   1.0078250   1.0078250   1.0078250   1.0078250   1.0078250   1.0078250   1.0078250  12.0000000
 NucSpn=           1           1           1           1           1           1           1           1           1           0
 AtZEff=  -0.0000000  -0.0000000  -0.0000000  -0.0000000  -0.0000000  -0.0000000  -0.0000000  -0.0000000  -0.0000000  -0.0000000
 NQMom=    0.0000000   0.0000000   0.0000000   0.0000000   0.0000000   0.0000000   0.0000000   0.0000000   0.0000000   0.0000000
 NMagM=    2.7928460   2.7928460   2.7928460   2.7928460   2.7928460   2.7928460   2.7928460   2.7928460   2.7928460   0.0000000
 AtZNuc=   1.0000000   1.0000000   1.0000000   1.0000000   1.0000000   1.0000000   1.0000000   1.0000000   1.0000000   6.0000000

  Atom        81          82          83          84          85          86          87          88          89          90
 IAtWgt=          12          14           1          12          14           1          12           1          12          12
 AtmWgt=  12.0000000  14.0030740   1.0078250  12.0000000  14.0030740   1.0078250  12.0000000   1.0078250  12.0000000  12.0000000
 NucSpn=           0           2           1           0           2           1           0           1           0           0
 AtZEff=  -0.0000000  -0.0000000  -0.0000000  -0.0000000  -0.0000000  -0.0000000  -0.0000000  -0.0000000  -0.0000000  -0.0000000
 NQMom=    0.0000000   2.0440000   0.0000000   0.0000000   2.0440000   0.0000000   0.0000000   0.0000000   0.0000000   0.0000000
 NMagM=    0.0000000   0.4037610   2.7928460   0.0000000   0.4037610   2.7928460   0.0000000   2.7928460   0.0000000   0.0000000
 AtZNuc=   6.0000000   7.0000000   1.0000000   6.0000000   7.0000000   1.0000000   6.0000000   1.0000000   6.0000000   6.0000000

  Atom        91          92          93          94          95          96          97          98          99         100
 IAtWgt=           1          12          12           1           1           1           1           1           1           1
 AtmWgt=   1.0078250  12.0000000  12.0000000   1.0078250   1.0078250   1.0078250   1.0078250   1.0078250   1.0078250   1.0078250
 NucSpn=           1           0           0           1           1           1           1           1           1           1
 AtZEff=  -0.0000000  -0.0000000  -0.0000000  -0.0000000  -0.0000000  -0.0000000  -0.0000000  -0.0000000  -0.0000000  -0.0000000
 NQMom=    0.0000000   0.0000000   0.0000000   0.0000000   0.0000000   0.0000000   0.0000000   0.0000000   0.0000000   0.0000000
 NMagM=    2.7928460   0.0000000   0.0000000   2.7928460   2.7928460   2.7928460   2.7928460   2.7928460   2.7928460   2.7928460
 AtZNuc=   1.0000000   6.0000000   6.0000000   1.0000000   1.0000000   1.0000000   1.0000000   1.0000000   1.0000000   1.0000000

  Atom       101         102         103         104         105         106         107         108         109         110
 IAtWgt=           1           1           1           1           1          12          12          14           1          12
 AtmWgt=   1.0078250   1.0078250   1.0078250   1.0078250   1.0078250  12.0000000  12.0000000  14.0030740   1.0078250  12.0000000
 NucSpn=           1           1           1           1           1           0           0           2           1           0
 AtZEff=  -0.0000000  -0.0000000  -0.0000000  -0.0000000  -0.0000000  -0.0000000  -0.0000000  -0.0000000  -0.0000000  -0.0000000
 NQMom=    0.0000000   0.0000000   0.0000000   0.0000000   0.0000000   0.0000000   0.0000000   2.0440000   0.0000000   0.0000000
 NMagM=    2.7928460   2.7928460   2.7928460   2.7928460   2.7928460   0.0000000   0.0000000   0.4037610   2.7928460   0.0000000
 AtZNuc=   1.0000000   1.0000000   1.0000000   1.0000000   1.0000000   6.0000000   6.0000000   7.0000000   1.0000000   6.0000000

  Atom       111         112         113         114         115         116         117         118         119         120
 IAtWgt=          14           1          12           1          12          12           1          12          12           1
 AtmWgt=  14.0030740   1.0078250  12.0000000   1.0078250  12.0000000  12.0000000   1.0078250  12.0000000  12.0000000   1.0078250
 NucSpn=           2           1           0           1           0           0           1           0           0           1
 AtZEff=  -0.0000000  -0.0000000  -0.0000000  -0.0000000  -0.0000000  -0.0000000  -0.0000000  -0.0000000  -0.0000000  -0.0000000
 NQMom=    2.0440000   0.0000000   0.0000000   0.0000000   0.0000000   0.0000000   0.0000000   0.0000000   0.0000000   0.0000000
 NMagM=    0.4037610   2.7928460   0.0000000   2.7928460   0.0000000   0.0000000   2.7928460   0.0000000   0.0000000   2.7928460
 AtZNuc=   7.0000000   1.0000000   6.0000000   1.0000000   6.0000000   6.0000000   1.0000000   6.0000000   6.0000000   1.0000000

  Atom       121         122         123         124         125         126         127         128         129         130
 IAtWgt=           1           1           1           1           1           1           1           1           1           1
 AtmWgt=   1.0078250   1.0078250   1.0078250   1.0078250   1.0078250   1.0078250   1.0078250   1.0078250   1.0078250   1.0078250
 NucSpn=           1           1           1           1           1           1           1           1           1           1
 AtZEff=  -0.0000000  -0.0000000  -0.0000000  -0.0000000  -0.0000000  -0.0000000  -0.0000000  -0.0000000  -0.0000000  -0.0000000
 NQMom=    0.0000000   0.0000000   0.0000000   0.0000000   0.0000000   0.0000000   0.0000000   0.0000000   0.0000000   0.0000000
 NMagM=    2.7928460   2.7928460   2.7928460   2.7928460   2.7928460   2.7928460   2.7928460   2.7928460   2.7928460   2.7928460
 AtZNuc=   1.0000000   1.0000000   1.0000000   1.0000000   1.0000000   1.0000000   1.0000000   1.0000000   1.0000000   1.0000000

  Atom       131         132         133         134         135         136         137         138
 IAtWgt=           1           1           1           1           1           1           1           1
 AtmWgt=   1.0078250   1.0078250   1.0078250   1.0078250   1.0078250   1.0078250   1.0078250   1.0078250
 NucSpn=           1           1           1           1           1           1           1           1
 AtZEff=  -0.0000000  -0.0000000  -0.0000000  -0.0000000  -0.0000000  -0.0000000  -0.0000000  -0.0000000
 NQMom=    0.0000000   0.0000000   0.0000000   0.0000000   0.0000000   0.0000000   0.0000000   0.0000000
 NMagM=    2.7928460   2.7928460   2.7928460   2.7928460   2.7928460   2.7928460   2.7928460   2.7928460
 AtZNuc=   1.0000000   1.0000000   1.0000000   1.0000000   1.0000000   1.0000000   1.0000000   1.0000000
 Leave Link  101 at Mon Oct 18 09:22:52 2021, MaxMem=  7864320000 cpu:               2.9 elap:               0.1
 (Enter /apps/gaussian/g16-c01-avx/g16/l202.exe)
 Stoichiometry    C50H80N8
 Framework group  C1[X(C50H80N8)]
 Deg. of freedom   408
 Full point group                 C1      NOp   1
 Largest Abelian subgroup         C1      NOp   1
 Largest concise Abelian subgroup C1      NOp   1
                         Standard orientation:                         
 ---------------------------------------------------------------------
 Center     Atomic      Atomic             Coordinates (Angstroms)
 Number     Number       Type             X           Y           Z
 ---------------------------------------------------------------------
      1          6           0       -2.761574    1.500322   -0.754176
      2          6           0       -3.510420    1.671039    0.480374
      3          6           0       -3.085670    0.486344   -1.657005
      4          6           0       -2.307849    0.272450   -2.780861
      5          1           0       -3.938590   -0.142318   -1.461375
      6          6           0       -1.186321    1.060918   -2.999031
      7          6           0       -0.832125    2.059353   -2.095406
      8          1           0       -0.575458    0.876547   -3.870162
      9          6           0       -1.646322    2.294237   -0.990495
     10          6           0        0.431669    2.764041   -2.243711
     11          1           0       -1.366418    3.080474   -0.307144
     12          6           0       -2.646496   -0.825211   -3.771058
     13          1           0        1.128251    2.329488   -2.979236
     14          1           0       -3.234690    2.549726    1.084296
     15          6           0       -0.526877   -0.242728    2.187390
     16          6           0       -1.912557   -0.543771    2.520567
     17          6           0       -0.155495    1.055750    1.855357
     18          6           0        1.135495    1.337455    1.423567
     19          1           0       -0.903229    1.830289    1.911944
     20          6           0        2.080223    0.312662    1.388781
     21          6           0        1.739415   -0.972504    1.781603
     22          1           0        3.087961    0.533382    1.074338
     23          6           0        0.431260   -1.253166    2.149752
     24          6           0        2.777948   -2.063115    1.764933
     25          1           0        0.156556   -2.262745    2.422397
     26          6           0        1.451303    2.687232    0.982333
     27          1           0        0.698777    3.448800    1.236284
     28          6           0       -4.101912    0.028655    3.101485
     29          6           0       -4.922116    0.982146    2.187452
     30          7           0       -2.723050    0.349954    2.881978
     31          1           0       -4.314742   -1.009627    2.793899
     32          6           0       -4.437373    0.171408    4.600562
     33          7           0       -4.372234    0.837470    0.871177
     34          1           0       -4.763853    2.006736    2.565250
     35          6           0       -6.430899    0.686587    2.150727
     36          1           0       -5.514879    0.019464    4.719558
     37          6           0       -4.058872    1.544472    5.149073
     38          6           0       -3.714324   -0.922280    5.387002
     39          1           0       -6.825295    0.765966    3.169258
     40          6           0       -6.728037   -0.705128    1.599179
     41          6           0       -7.115166    1.747222    1.287902
     42          1           0       -3.984809   -0.871546    6.439349
     43          1           0       -2.636621   -0.798425    5.301402
     44          1           0       -3.980421   -1.908961    5.012413
     45          1           0       -4.684702    2.324575    4.724106
     46          1           0       -3.020610    1.760483    4.912090
     47          1           0       -4.185510    1.561034    6.229532
     48          1           0       -6.739909    1.691047    0.268696
     49          1           0       -6.918011    2.745429    1.674030
     50          1           0       -8.191482    1.590644    1.273926
     51          1           0       -6.193477   -0.844982    0.663948
     52          1           0       -7.794980   -0.814726    1.417551
     53          1           0       -6.423617   -1.479772    2.298346
     54          6           0       -1.338019   -2.612951   -3.088890
     55          6           0       -2.807160   -2.865739   -2.622152
     56          7           0       -1.439483   -1.572792   -4.111844
     57          1           0       -0.898448   -3.510241   -3.531795
     58          6           0       -0.408800   -2.159847   -1.945764
     59          7           0       -3.593226   -1.770283   -3.192348
     60          1           0       -2.857466   -2.768178   -1.531151
     61          6           0       -3.400037   -4.233300   -3.009089
     62          1           0       -0.883546   -1.326183   -1.420341
     63          6           0        0.922451   -1.676971   -2.516723
     64          6           0       -0.149745   -3.289358   -0.952482
     65          1           0       -4.470713   -4.173615   -2.775026
     66          6           0       -2.799728   -5.362217   -2.176398
     67          6           0       -3.259559   -4.552431   -4.498872
     68          1           0        0.226778   -4.170594   -1.469176
     69          1           0       -1.054244   -3.565294   -0.417446
     70          1           0        0.602330   -2.978308   -0.231239
     71          1           0        1.500751   -2.519331   -2.891739
     72          1           0        1.492528   -1.173201   -1.740518
     73          1           0        0.751110   -0.984102   -3.333798
     74          1           0       -3.837818   -5.441236   -4.742085
     75          1           0       -2.222087   -4.746587   -4.762865
     76          1           0       -3.626612   -3.737924   -5.122112
     77          1           0       -2.949092   -5.177149   -1.115637
     78          1           0       -1.732990   -5.455273   -2.362060
     79          1           0       -3.275594   -6.307227   -2.429560
     80          6           0        2.057032    4.319285   -1.623118
     81          6           0        2.631921    4.308788   -0.178199
     82          7           0        0.741050    3.760166   -1.536177
     83          1           0        2.707104    3.692118   -2.257455
     84          6           0        1.985159    5.729388   -2.245530
     85          7           0        2.486443    2.969669    0.319404
     86          1           0        2.017108    5.007617    0.413191
     87          6           0        4.108165    4.728455   -0.077888
     88          1           0        2.987448    6.167521   -2.204165
     89          6           0        1.007346    6.638470   -1.506089
     90          6           0        1.579341    5.612213   -3.714909
     91          1           0        4.211372    5.738820   -0.487064
     92          6           0        5.025503    3.777059   -0.841177
     93          6           0        4.506383    4.766428    1.397758
     94          1           0        0.581081    5.187594   -3.797738
     95          1           0        2.273314    4.973858   -4.258533
     96          1           0        1.577181    6.593298   -4.184687
     97          1           0        0.885134    7.572954   -2.049536
     98          1           0        1.365618    6.873484   -0.507380
     99          1           0        0.040777    6.148481   -1.425510
    100          1           0        3.866083    5.449139    1.952981
    101          1           0        5.536915    5.097290    1.506056
    102          1           0        4.409635    3.773750    1.831113
    103          1           0        6.065837    3.994185   -0.608887
    104          1           0        4.891563    3.876606   -1.915280
    105          1           0        4.804202    2.753638   -0.552543
    106          6           0        5.099438   -2.424004    1.554946
    107          6           0        4.296176   -3.220560    0.486534
    108          7           0        4.094510   -1.559015    2.159917
    109          1           0        5.836910   -1.777730    1.057952
    110          6           0        5.881125   -3.332296    2.526562
    111          7           0        2.982221   -2.590966    0.429173
    112          1           0        4.137066   -4.240338    0.861632
    113          6           0        4.982801   -3.332048   -0.880074
    114          1           0        6.415577   -4.064507    1.909164
    115          6           0        4.982981   -4.091291    3.502345
    116          6           0        6.914217   -2.512928    3.299832
    117          1           0        6.003740   -3.684584   -0.689923
    118          6           0        5.063544   -2.003244   -1.632631
    119          6           0        4.255089   -4.368165   -1.735251
    120          1           0        7.479147   -3.152166    3.974803
    121          1           0        6.427855   -1.737778    3.888687
    122          1           0        7.611710   -2.032772    2.617106
    123          1           0        4.467820   -3.406519    4.173935
    124          1           0        5.584086   -4.764734    4.109588
    125          1           0        4.237472   -4.684138    2.977328
    126          1           0        4.308643   -5.353104   -1.277203
    127          1           0        4.699195   -4.424289   -2.726553
    128          1           0        3.208542   -4.090751   -1.830688
    129          1           0        5.759180   -2.095695   -2.463789
    130          1           0        5.411854   -1.199850   -0.987785
    131          1           0        4.093182   -1.729356   -2.040644
    132          1           0       -2.209509   -1.599401    2.409233
    133          1           0        4.195622   -1.466536    3.161613
    134          1           0        2.438145   -2.902568    2.402333
    135          1           0        3.023728   -1.803724   -0.211928
    136          1           0       -4.232728   -2.118261   -3.897134
    137          1           0       -1.545990   -2.000598   -5.026240
    138          1           0       -3.065557   -0.349679   -4.667384
 ---------------------------------------------------------------------
 Rotational constants (GHZ):           0.0429705           0.0336231           0.0298211
 Leave Link  202 at Mon Oct 18 09:22:52 2021, MaxMem=  7864320000 cpu:               0.1 elap:               0.0
 (Enter /apps/gaussian/g16-c01-avx/g16/l301.exe)
 Standard basis: def2TZVP (5D, 7F)
 Ernie: Thresh=  0.10000D-02 Tol=  0.10000D-05 Strict=F.
 There are  2568 symmetry adapted cartesian basis functions of A   symmetry.
 There are  2278 symmetry adapted basis functions of A   symmetry.
  2278 basis functions,  3598 primitive gaussians,  2568 cartesian basis functions
   218 alpha electrons      218 beta electrons
       nuclear repulsion energy      9135.0365826534 Hartrees.
 IExCor= 1009 DFT=T Ex+Corr=PBE1PBE ExCW=0 ScaHFX=  0.250000
 ScaDFX=  0.750000  0.750000  1.000000  1.000000 ScalE2=  1.000000  1.000000
 IRadAn=      7 IRanWt=     -1 IRanGd=            0 ICorTp=0 IEmpDi=131
 NAtoms=  138 NActive=  138 NUniq=  138 SFac= 1.00D+00 NAtFMM=   60 NAOKFM=T Big=T
 Integral buffers will be    131072 words long.
 Raffenetti 2 integral format.
 Two-electron integral symmetry is turned on.
 R6Disp:  Grimme-D3 Dispersion energy=       -0.1284987717 Hartrees.
 Nuclear repulsion after empirical dispersion term =     9134.9080838817 Hartrees.
 Leave Link  301 at Mon Oct 18 09:22:52 2021, MaxMem=  7864320000 cpu:               1.1 elap:               0.0
 (Enter /apps/gaussian/g16-c01-avx/g16/l302.exe)
 NPDir=0 NMtPBC=     1 NCelOv=     1 NCel=       1 NClECP=     1 NCelD=      1
         NCelK=      1 NCelE2=     1 NClLst=     1 CellRange=     0.0.
 One-electron integrals computed using PRISM.
 One-electron integral symmetry used in STVInt
   1 Symmetry operations used in ECPInt.
 ECPInt:  NShTT=  459361 NPrTT= 1347136 LenC2=  313377 LenP2D=  594305.
 LDataN:  DoStor=T MaxTD1= 6 Len=  172
 Number of processors reduced to  31 by ecpmxn.
 NBasis=  2278 RedAO= T EigKep=  3.75D-06  NBF=  2278
 NBsUse=  2278 1.00D-06 EigRej= -1.00D+00 NBFU=  2278
 Precomputing XC quadrature grid using
 IXCGrd= 4 IRadAn=           7 IRanWt=          -1 IRanGd=           0 AccXCQ= 0.00D+00.
 Generated NRdTot=       0 NPtTot=           0 NUsed=           0 NTot=          32
 NSgBfM=  2234  2188  2212  2227  2234 MxSgAt=   138 MxSgA2=   138.
 Leave Link  302 at Mon Oct 18 09:23:06 2021, MaxMem=  7864320000 cpu:             457.1 elap:              14.4
 (Enter /apps/gaussian/g16-c01-avx/g16/l303.exe)
 DipDrv:  MaxL=1.
 Leave Link  303 at Mon Oct 18 09:23:07 2021, MaxMem=  7864320000 cpu:              19.0 elap:               0.8
 (Enter /apps/gaussian/g16-c01-avx/g16/l401.exe)
 ExpMin= 9.52D-02 ExpMax= 1.97D+04 ExpMxC= 6.73D+02 IAcc=3 IRadAn=         7 AccDes= 0.00D+00
 Harris functional with IExCor= 1009 and IRadAn=       7 diagonalized for initial guess.
 HarFok:  IExCor= 1009 AccDes= 0.00D+00 IRadAn=         7 IDoV= 1 UseB2=F ITyADJ=14
 ICtDFT=  3500011 ScaDFX=  1.000000  1.000000  1.000000  1.000000
 FoFCou: FMM=F IPFlag=           0 FMFlag=      100000 FMFlg1=        2001
         NFxFlg=           0 DoJE=T BraDBF=F KetDBF=T FulRan=T
         wScrn=  0.000000 ICntrl=       500 IOpCl=  0 I1Cent=   200000004 NGrid=           0
         NMat0=    1 NMatS0=      1 NMatT0=    0 NMatD0=    1 NMtDS0=    0 NMtDT0=    0
 Petite list used in FoFCou.
 Harris En= -2390.53830238215    
 JPrj=0 DoOrth=F DoCkMO=F.
 Leave Link  401 at Mon Oct 18 09:23:46 2021, MaxMem=  7864320000 cpu:            1220.8 elap:              38.4
 (Enter /apps/gaussian/g16-c01-avx/g16/l508.exe)
 Integral symmetry usage will be decided dynamically.
 Tight linear equation convergence will be used.
 RPBE1PBE wavefunction.
 Linear searches until partial convergence.
 Full line searches.
 Fock matrices will be formed incrementally for  20 cycles.
 FoFJK:  IHMeth= 1 ICntrl=       0 DoSepK=F KAlg= 0 I1Cent=           0 FoldK=F
 IRaf= 650000000 NMat=       1 IRICut=       1 DoRegI=T DoRafI=F ISym2E= 1 IDoP0=0 IntGTp=1.
 FoFCou: FMM=T IPFlag=           0 FMFlag=      100000 FMFlg1=        2001
         NFxFlg=           0 DoJE=F BraDBF=F KetDBF=F FulRan=T
         wScrn=  0.000000 ICntrl=         0 IOpCl=  0 I1Cent=           0 NGrid=           0
         NMat0=    1 NMatS0=      1 NMatT0=    0 NMatD0=    1 NMtDS0=    0 NMtDT0=    0
 Petite list used in FoFCou.
 FMM levels:  10  Number of levels for PrismC:   9
 Iteration   1 EE= -2387.90200061062                                    Grad=1.890D+00 Max rot=    1.9803 deg.
 Gradient too large for Newton-Raphson -- use scaled steepest descent instead.
 Alpha Gap=     0.185 HL deriv= 4.82D-03
     ILin= 1 X=0.000D+00 Y=-2.387902000611D+03 DE= 0.00D+00 F= -7.44D+00
 RMSU=  4.88D-04    CP:  9.95D-01
     ILin= 2 X=3.000D-01 Y=-2.389358077024D+03 DE=-1.46D+00 F= -2.24D+00 OKLS=F
 RMSU=  7.72D-05    CP:  9.94D-01  1.72D+00
     ILin= 3 X=5.000D-01 Y=-2.389455934113D+03 DE=-1.55D+00 F=  1.27D+00
     Accept linear search using points  2 and  3.
     An  expanding polynomial of degree  3 produced  0.3943
 RMSU=  5.11D-08    CP:  9.94D-01  1.33D+00  3.72D-01
 Iteration   2 EE= -2389.49170332023     Delta-E=       -1.589702709607 Grad=5.350D-01 Max rot=    1.5474 deg.
 Gradient too large for Newton-Raphson -- use scaled steepest descent instead.
 Alpha Gap=     0.197 HL deriv= 1.19D-03
     ILin= 1 X=0.000D+00 Y=-2.389491703320D+03 DE= 0.00D+00 F= -2.46D-01
 RMSU=  9.49D-05    CP:  9.93D-01  1.53D+00  7.27D-01 -3.00D+00
     ILin= 2 X=3.000D-01 Y=-2.389549291020D+03 DE=-5.76D-02 F= -1.37D-01 OKLS=F
 RMSU=  1.25D-05    CP:  9.92D-01  1.79D+00  1.39D+00 -3.00D+00  2.34D+00
     ILin= 3 X=7.000D-01 Y=-2.389575182246D+03 DE=-8.35D-02 F=  7.95D-03
     Accept linear search using points  2 and  3.
     An  expanding polynomial of degree  3 produced  0.5311
 RMSU=  3.67D-08    CP:  9.92D-01  1.68D+00  1.08D+00 -3.00D+00  1.77D+00
                    CP:  4.38D-01
 Iteration   3 EE= -2389.57134349212     Delta-E=       -0.079640171893 Grad=2.225D-01 Max rot=    0.7060 deg.
 Gradient too large for Newton-Raphson -- use scaled steepest descent instead.
 Alpha Gap=     0.187 HL deriv= 1.87D-04
     ILin= 1 X=0.000D+00 Y=-2.389571343492D+03 DE= 0.00D+00 F= -3.66D-02
 RMSU=  5.55D-05    CP:  9.92D-01  1.83D+00  1.54D+00 -3.00D+00  2.50D+00
                    CP:  8.04D-01  3.00D+00
     ILin= 2 X=5.000D-01 Y=-2.389581747544D+03 DE=-1.04D-02 F= -4.98D-03 OKLS=F
 RMSU=  8.29D-06    CP:  9.92D-01  1.96D+00  1.98D+00 -3.00D+00  3.00D+00
                    CP:  1.39D+00  3.00D+00  1.80D+00
     ILin= 3 X=9.000D-01 Y=-2.389578673675D+03 DE=-7.33D-03 F=  2.04D-02
     An  expanding polynomial of degree  3 produced  0.5786
 RMSU=  3.25D-07    CP:  9.92D-01  1.86D+00  1.63D+00 -3.00D+00  2.62D+00
                    CP:  8.98D-01  3.00D+00  1.16D+00  1.36D-02
 Iteration   4 EE= -2389.58194353347     Delta-E=       -0.010600041345 Grad=1.014D-01 Max rot=    0.2859 deg.
 Gradient too large for Newton-Raphson -- use scaled steepest descent instead.
 Alpha Gap=     0.191 HL deriv= 1.48D-04
     ILin= 1 X=0.000D+00 Y=-2.389581943533D+03 DE= 0.00D+00 F= -1.33D-02
 RMSU=  4.21D-05    CP:  9.91D-01  1.91D+00  1.83D+00 -3.00D+00  3.00D+00
                    CP:  1.25D+00 -3.00D+00  1.19D+00  7.21D-02 -3.00D+00
     ILin= 2 X=6.000D-01 Y=-2.389583336885D+03 DE=-1.39D-03 F=  8.64D-03 OKLS=T
     Accept linear search using points  1 and  2.
     An  expanding polynomial of degree  2 produced  0.3256
 RMSU=  8.27D-07    CP:  9.91D-01  1.89D+00  1.74D+00 -3.00D+00  2.83D+00
                    CP:  1.07D+00 -3.00D+00  1.18D+00 -3.96D-02 -2.98D+00
                    CP:  5.42D-01
 Iteration   5 EE= -2389.58433354546     Delta-E=       -0.002390011990 Grad=5.679D-02 Max rot=    0.1863 deg.
 Gradient too large for Newton-Raphson -- use scaled steepest descent instead.
 Alpha Gap=     0.190 HL deriv= 2.58D-04
     ILin= 1 X=0.000D+00 Y=-2.389584333545D+03 DE= 0.00D+00 F= -1.84D-03
 RMSU=  6.40D-06    CP:  9.92D-01  1.93D+00  1.89D+00 -3.00D+00  3.00D+00
                    CP:  1.28D+00 -3.00D+00  1.43D+00  9.55D-02 -2.70D+00
                    CP:  7.27D-01  1.34D+00
     ILin= 2 X=4.000D-01 Y=-2.389584891030D+03 DE=-5.57D-04 F= -9.45D-04 OKLS=F
 RMSU=  2.43D-06    CP:  9.92D-01  1.97D+00  2.08D+00 -3.00D+00  3.00D+00
                    CP:  1.58D+00 -3.00D+00  1.74D+00  2.54D+00 -3.00D+00
                    CP:  9.66D-01 -3.00D+00  2.25D+00
     ILin= 3 X=9.000D-01 Y=-2.389585083254D+03 DE=-7.50D-04 F=  1.76D-04
     Accept linear search using points  2 and  3.
     An  expanding polynomial of degree  3 produced  0.7038
 RMSU=  7.38D-07    CP:  9.92D-01  1.96D+00  2.00D+00 -3.00D+00  3.00D+00
                    CP:  1.46D+00 -3.00D+00  1.62D+00  1.58D+00 -3.00D+00
                    CP:  8.72D-01 -2.66D+00  1.76D+00  2.53D-01
 Iteration   6 EE= -2389.58507468201     Delta-E=       -0.000741136551 Grad=1.906D-02 Max rot=    0.0539 deg.
 Gradient too large for Newton-Raphson -- use scaled steepest descent instead.
 Alpha Gap=     0.190 HL deriv= 1.03D-04
     ILin= 1 X=0.000D+00 Y=-2.389585074682D+03 DE= 0.00D+00 F= -4.77D-04
 RMSU=  2.76D-06    CP:  9.92D-01  1.97D+00  2.07D+00 -3.00D+00  3.00D+00
                    CP:  1.59D+00 -3.00D+00  1.67D+00  2.45D+00 -3.00D+00
                    CP:  1.11D+00 -3.00D+00  2.16D+00  1.18D+00 -2.92D-01
     ILin= 2 X=5.000D-01 Y=-2.389585155615D+03 DE=-8.09D-05 F=  1.53D-04 OKLS=T
     Accept linear search using points  1 and  2.
     An  expanding polynomial of degree  2 produced  0.2859
 RMSU=  6.18D-09    CP:  9.92D-01  1.96D+00  2.04D+00 -3.00D+00  3.00D+00
                    CP:  1.54D+00 -3.00D+00  1.65D+00  2.08D+00 -3.00D+00
                    CP:  1.01D+00 -3.00D+00  1.99D+00  7.48D-01  3.73D-01
                    CP:  5.72D-01
 Iteration   7 EE= -2389.58515950533     Delta-E=       -0.000084823323 Grad=1.157D-02 Max rot=    0.0339 deg.
 Gradient too large for Newton-Raphson -- use scaled steepest descent instead.
 Alpha Gap=     0.190 HL deriv= 4.59D-05
     ILin= 1 X=0.000D+00 Y=-2.389585159505D+03 DE= 0.00D+00 F= -8.32D-05
 RMSU=  6.46D-07    CP:  9.92D-01  1.98D+00  2.13D+00 -3.00D+00  3.00D+00
                    CP:  1.69D+00 -3.00D+00  1.77D+00  3.00D+00 -3.00D+00
                    CP:  1.18D+00 -3.00D+00  2.78D+00  1.62D+00 -9.58D-01
                    CP:  1.43D+00  3.00D+00
     ILin= 2 X=7.000D-01 Y=-2.389585198611D+03 DE=-3.91D-05 F= -2.86D-05 OKLS=F
 RMSU=  8.48D-06    CP:  9.92D-01  2.00D+00  2.21D+00 -3.00D+00  3.00D+00
                    CP:  1.85D+00 -3.00D+00  1.89D+00  3.00D+00 -3.00D+00
                    CP:  1.34D+00 -3.00D+00  3.00D+00  2.47D+00 -2.32D+00
                    CP:  2.28D+00 -3.00D+00  2.17D+00
     ILin= 3 X=1.400D+00 Y=-2.389585199482D+03 DE=-4.00D-05 F=  2.61D-05
     Accept linear search using points  2 and  3.
     An  expanding polynomial of degree  3 produced  1.0588
 RMSU=  6.06D-07    CP:  9.92D-01  1.99D+00  2.17D+00 -3.00D+00  3.00D+00
                    CP:  1.77D+00 -3.00D+00  1.83D+00  3.00D+00 -3.00D+00
                    CP:  1.26D+00 -3.00D+00  3.00D+00  2.06D+00 -1.65D+00
                    CP:  1.86D+00  1.22D+00  1.60D+00  4.78D-01
 Iteration   8 EE= -2389.58520383426     Delta-E=       -0.000044328925 Grad=1.330D-03 Max rot=    0.0041 deg.
 SCF Done:  E(RPBE1PBE) =  -2389.58520383     a.u. after    8 cycles
            Convg  =    0.1330D-02                    20 Fock formations.
              S**2 =  0.0000                  -V/T =  2.0048
 Leave Link  508 at Mon Oct 18 10:41:11 2021, MaxMem=  7864320000 cpu:          147581.2 elap:            4645.9
 (Enter /apps/gaussian/g16-c01-avx/g16/l502.exe)
 Integral symmetry usage will be decided dynamically.
 Closed shell SCF:
 Using DIIS extrapolation, IDIIS=  1040.
 NGot=  7864320000 LenX=  7851022314 LenY=  7844425122
 Requested convergence on RMS density matrix=1.00D-08 within 128 cycles.
 Requested convergence on MAX density matrix=1.00D-06.
 Requested convergence on             energy=1.00D-06.
 No special actions if energy rises.
 Fock matrices will be formed incrementally for  20 cycles.

 Cycle   1  Pass 1  IDiag  1:
 FoFJK:  IHMeth= 1 ICntrl=       0 DoSepK=F KAlg= 0 I1Cent=           0 FoldK=F
 IRaf= 650000000 NMat=       1 IRICut=       1 DoRegI=T DoRafI=F ISym2E= 0 IDoP0=0 IntGTp=1.
 FoFCou: FMM=T IPFlag=           0 FMFlag=      100000 FMFlg1=        2001
         NFxFlg=           0 DoJE=F BraDBF=F KetDBF=F FulRan=T
         wScrn=  0.000000 ICntrl=         0 IOpCl=  0 I1Cent=           0 NGrid=           0
         NMat0=    1 NMatS0=      1 NMatT0=    0 NMatD0=    1 NMtDS0=    0 NMtDT0=    0
 Symmetry not used in FoFCou.
 FMM levels:  10  Number of levels for PrismC:   9
 E= -2389.58520383427    
 DIIS: error= 1.02D-05 at cycle   1 NSaved=   1.
 NSaved= 1 IEnMin= 1 EnMin= -2389.58520383427     IErMin= 1 ErrMin= 1.02D-05
 ErrMax= 1.02D-05  0.00D+00 EMaxC= 1.00D-01 BMatC= 8.84D-07 BMatP= 8.84D-07
 IDIUse=1 WtCom= 1.00D+00 WtEn= 0.00D+00
 Coeff-Com:  0.100D+01
 Coeff:      0.100D+01
 Gap=     0.190 Goal=   None    Shift=    0.000
 RMSDP=4.68D-06 MaxDP=1.17D-03              OVMax= 1.73D-04

 Cycle   2  Pass 1  IDiag  1:
 RMSU=  4.60D-06    CP:  1.00D+00
 E= -2389.58520424331     Delta-E=       -0.000000409042 Rises=F Damp=F
 DIIS: error= 5.39D-06 at cycle   2 NSaved=   2.
 NSaved= 2 IEnMin= 2 EnMin= -2389.58520424331     IErMin= 2 ErrMin= 5.39D-06
 ErrMax= 5.39D-06  0.00D+00 EMaxC= 1.00D-01 BMatC= 4.16D-07 BMatP= 8.84D-07
 IDIUse=1 WtCom= 1.00D+00 WtEn= 0.00D+00
 Coeff-Com:  0.375D+00 0.625D+00
 Coeff:      0.375D+00 0.625D+00
 Gap=     0.181 Goal=   None    Shift=    0.000
 RMSDP=7.80D-07 MaxDP=1.76D-04 DE=-4.09D-07 OVMax= 2.11D-04

 Cycle   3  Pass 1  IDiag  1:
 RMSU=  7.78D-07    CP:  1.00D+00  1.01D+00
 E= -2389.58520444047     Delta-E=       -0.000000197162 Rises=F Damp=F
 DIIS: error= 4.38D-06 at cycle   3 NSaved=   3.
 NSaved= 3 IEnMin= 3 EnMin= -2389.58520444047     IErMin= 3 ErrMin= 4.38D-06
 ErrMax= 4.38D-06  0.00D+00 EMaxC= 1.00D-01 BMatC= 2.17D-07 BMatP= 4.16D-07
 IDIUse=1 WtCom= 1.00D+00 WtEn= 0.00D+00
 Coeff-Com:  0.450D-01 0.414D+00 0.541D+00
 Coeff:      0.450D-01 0.414D+00 0.541D+00
 Gap=     0.181 Goal=   None    Shift=    0.000
 RMSDP=3.97D-07 MaxDP=1.13D-04 DE=-1.97D-07 OVMax= 1.13D-04

 Cycle   4  Pass 1  IDiag  1:
 RMSU=  2.00D-07    CP:  1.00D+00  1.05D+00  6.21D-01
 E= -2389.58520462057     Delta-E=       -0.000000180096 Rises=F Damp=F
 DIIS: error= 1.32D-06 at cycle   4 NSaved=   4.
 NSaved= 4 IEnMin= 4 EnMin= -2389.58520462057     IErMin= 4 ErrMin= 1.32D-06
 ErrMax= 1.32D-06  0.00D+00 EMaxC= 1.00D-01 BMatC= 3.02D-08 BMatP= 2.17D-07
 IDIUse=1 WtCom= 1.00D+00 WtEn= 0.00D+00
 Coeff-Com:  0.358D-02 0.236D+00 0.363D+00 0.397D+00
 Coeff:      0.358D-02 0.236D+00 0.363D+00 0.397D+00
 Gap=     0.181 Goal=   None    Shift=    0.000
 RMSDP=1.09D-07 MaxDP=2.66D-05 DE=-1.80D-07 OVMax= 2.73D-05

 Cycle   5  Pass 1  IDiag  1:
 RMSU=  6.21D-08    CP:  1.00D+00  1.05D+00  6.74D-01  6.17D-01
 E= -2389.58520464788     Delta-E=       -0.000000027307 Rises=F Damp=F
 DIIS: error= 1.27D-07 at cycle   5 NSaved=   5.
 NSaved= 5 IEnMin= 5 EnMin= -2389.58520464788     IErMin= 5 ErrMin= 1.27D-07
 ErrMax= 1.27D-07  0.00D+00 EMaxC= 1.00D-01 BMatC= 2.10D-10 BMatP= 3.02D-08
 IDIUse=1 WtCom= 1.00D+00 WtEn= 0.00D+00
 Coeff-Com: -0.178D-02 0.374D-01 0.595D-01 0.107D+00 0.798D+00
 Coeff:     -0.178D-02 0.374D-01 0.595D-01 0.107D+00 0.798D+00
 Gap=     0.181 Goal=   None    Shift=    0.000
 RMSDP=2.53D-08 MaxDP=7.32D-06 DE=-2.73D-08 OVMax= 5.11D-06

 Cycle   6  Pass 1  IDiag  1:
 RMSU=  1.58D-08    CP:  1.00D+00  1.06D+00  6.75D-01  6.20D-01  9.55D-01
 E= -2389.58520464789     Delta-E=       -0.000000000016 Rises=F Damp=F
 DIIS: error= 7.67D-08 at cycle   6 NSaved=   6.
 NSaved= 6 IEnMin= 6 EnMin= -2389.58520464789     IErMin= 6 ErrMin= 7.67D-08
 ErrMax= 7.67D-08  0.00D+00 EMaxC= 1.00D-01 BMatC= 9.02D-11 BMatP= 2.10D-10
 IDIUse=1 WtCom= 1.00D+00 WtEn= 0.00D+00
 Coeff-Com: -0.140D-02-0.710D-02-0.109D-01 0.135D-01 0.453D+00 0.553D+00
 Coeff:     -0.140D-02-0.710D-02-0.109D-01 0.135D-01 0.453D+00 0.553D+00
 Gap=     0.181 Goal=   None    Shift=    0.000
 RMSDP=8.83D-09 MaxDP=1.74D-06 DE=-1.64D-11 OVMax= 1.87D-06

 Cycle   7  Pass 1  IDiag  1:
 RMSU=  5.85D-09    CP:  1.00D+00  1.06D+00  6.77D-01  6.37D-01  1.01D+00
                    CP:  7.70D-01
 E= -2389.58520464799     Delta-E=       -0.000000000098 Rises=F Damp=F
 DIIS: error= 2.55D-08 at cycle   7 NSaved=   7.
 NSaved= 7 IEnMin= 7 EnMin= -2389.58520464799     IErMin= 7 ErrMin= 2.55D-08
 ErrMax= 2.55D-08  0.00D+00 EMaxC= 1.00D-01 BMatC= 5.00D-12 BMatP= 9.02D-11
 IDIUse=1 WtCom= 1.00D+00 WtEn= 0.00D+00
 Coeff-Com: -0.624D-03-0.588D-02-0.952D-02 0.123D-02 0.189D+00 0.277D+00
 Coeff-Com:  0.549D+00
 Coeff:     -0.624D-03-0.588D-02-0.952D-02 0.123D-02 0.189D+00 0.277D+00
 Coeff:      0.549D+00
 Gap=     0.181 Goal=   None    Shift=    0.000
 RMSDP=2.38D-09 MaxDP=7.45D-07 DE=-9.82D-11 OVMax= 6.59D-07

 SCF Done:  E(RPBE1PBE) =  -2389.58520465     A.U. after    7 cycles
            NFock=  7  Conv=0.24D-08     -V/T= 2.0048
 KE= 2.378060006929D+03 PE=-2.381999390094D+04 EE= 9.917440605479D+03
 Leave Link  502 at Mon Oct 18 11:08:17 2021, MaxMem=  7864320000 cpu:           51578.7 elap:            1625.1
 (Enter /apps/gaussian/g16-c01-avx/g16/l508.exe)
 QCSCF skips out because SCF is already converged.
 Leave Link  508 at Mon Oct 18 11:08:18 2021, MaxMem=  7864320000 cpu:               0.0 elap:               0.0
 (Enter /apps/gaussian/g16-c01-avx/g16/l601.exe)
 Copying SCF densities to generalized density rwf, IOpCl= 0 IROHF=0.
 Hyperfine terms turned off by default for NAtoms > 100.

 **********************************************************************

            Population analysis using the SCF Density.

 **********************************************************************

 Orbital symmetries:
       Occupied  (A) (A) (A) (A) (A) (A) (A) (A) (A) (A) (A) (A)
                 (A) (A) (A) (A) (A) (A) (A) (A) (A) (A) (A) (A)
                 (A) (A) (A) (A) (A) (A) (A) (A) (A) (A) (A) (A)
                 (A) (A) (A) (A) (A) (A) (A) (A) (A) (A) (A) (A)
                 (A) (A) (A) (A) (A) (A) (A) (A) (A) (A) (A) (A)
                 (A) (A) (A) (A) (A) (A) (A) (A) (A) (A) (A) (A)
                 (A) (A) (A) (A) (A) (A) (A) (A) (A) (A) (A) (A)
                 (A) (A) (A) (A) (A) (A) (A) (A) (A) (A) (A) (A)
                 (A) (A) (A) (A) (A) (A) (A) (A) (A) (A) (A) (A)
                 (A) (A) (A) (A) (A) (A) (A) (A) (A) (A) (A) (A)
                 (A) (A) (A) (A) (A) (A) (A) (A) (A) (A) (A) (A)
                 (A) (A) (A) (A) (A) (A) (A) (A) (A) (A) (A) (A)
                 (A) (A) (A) (A) (A) (A) (A) (A) (A) (A) (A) (A)
                 (A) (A) (A) (A) (A) (A) (A) (A) (A) (A) (A) (A)
                 (A) (A) (A) (A) (A) (A) (A) (A) (A) (A) (A) (A)
                 (A) (A) (A) (A) (A) (A) (A) (A) (A) (A) (A) (A)
                 (A) (A) (A) (A) (A) (A) (A) (A) (A) (A) (A) (A)
                 (A) (A) (A) (A) (A) (A) (A) (A) (A) (A) (A) (A)
                 (A) (A)
       Virtual   (A) (A) (A) (A) (A) (A) (A) (A) (A) (A) (A) (A)
                 (A) (A) (A) (A) (A) (A) (A) (A) (A) (A) (A) (A)
                 (A) (A) (A) (A) (A) (A) (A) (A) (A) (A) (A) (A)
                 (A) (A) (A) (A) (A) (A) (A) (A) (A) (A) (A) (A)
                 (A) (A) (A) (A) (A) (A) (A) (A) (A) (A) (A) (A)
                 (A) (A) (A) (A) (A) (A) (A) (A) (A) (A) (A) (A)
                 (A) (A) (A) (A) (A) (A) (A) (A) (A) (A) (A) (A)
                 (A) (A) (A) (A) (A) (A) (A) (A) (A) (A) (A) (A)
                 (A) (A) (A) (A) (A) (A) (A) (A) (A) (A) (A) (A)
                 (A) (A) (A) (A) (A) (A) (A) (A) (A) (A) (A) (A)
                 (A) (A) (A) (A) (A) (A) (A) (A) (A) (A) (A) (A)
                 (A) (A) (A) (A) (A) (A) (A) (A) (A) (A) (A) (A)
                 (A) (A) (A) (A) (A) (A) (A) (A) (A) (A) (A) (A)
                 (A) (A) (A) (A) (A) (A) (A) (A) (A) (A) (A) (A)
                 (A) (A) (A) (A) (A) (A) (A) (A) (A) (A) (A) (A)
                 (A) (A) (A) (A) (A) (A) (A) (A) (A) (A) (A) (A)
                 (A) (A) (A) (A) (A) (A) (A) (A) (A) (A) (A) (A)
                 (A) (A) (A) (A) (A) (A) (A) (A) (A) (A) (A) (A)
                 (A) (A) (A) (A) (A) (A) (A) (A) (A) (A) (A) (A)
                 (A) (A) (A) (A) (A) (A) (A) (A) (A) (A) (A) (A)
                 (A) (A) (A) (A) (A) (A) (A) (A) (A) (A) (A) (A)
                 (A) (A) (A) (A) (A) (A) (A) (A) (A) (A) (A) (A)
                 (A) (A) (A) (A) (A) (A) (A) (A) (A) (A) (A) (A)
                 (A) (A) (A) (A) (A) (A) (A) (A) (A) (A) (A) (A)
                 (A) (A) (A) (A) (A) (A) (A) (A) (A) (A) (A) (A)
                 (A) (A) (A) (A) (A) (A) (A) (A) (A) (A) (A) (A)
                 (A) (A) (A) (A) (A) (A) (A) (A) (A) (A) (A) (A)
                 (A) (A) (A) (A) (A) (A) (A) (A) (A) (A) (A) (A)
                 (A) (A) (A) (A) (A) (A) (A) (A) (A) (A) (A) (A)
                 (A) (A) (A) (A) (A) (A) (A) (A) (A) (A) (A) (A)
                 (A) (A) (A) (A) (A) (A) (A) (A) (A) (A) (A) (A)
                 (A) (A) (A) (A) (A) (A) (A) (A) (A) (A) (A) (A)
                 (A) (A) (A) (A) (A) (A) (A) (A) (A) (A) (A) (A)
                 (A) (A) (A) (A) (A) (A) (A) (A) (A) (A) (A) (A)
                 (A) (A) (A) (A) (A) (A) (A) (A) (A) (A) (A) (A)
                 (A) (A) (A) (A) (A) (A) (A) (A) (A) (A) (A) (A)
                 (A) (A) (A) (A) (A) (A) (A) (A) (A) (A) (A) (A)
                 (A) (A) (A) (A) (A) (A) (A) (A) (A) (A) (A) (A)
                 (A) (A) (A) (A) (A) (A) (A) (A) (A) (A) (A) (A)
                 (A) (A) (A) (A) (A) (A) (A) (A) (A) (A) (A) (A)
                 (A) (A) (A) (A) (A) (A) (A) (A) (A) (A) (A) (A)
                 (A) (A) (A) (A) (A) (A) (A) (A) (A) (A) (A) (A)
                 (A) (A) (A) (A) (A) (A) (A) (A) (A) (A) (A) (A)
                 (A) (A) (A) (A) (A) (A) (A) (A) (A) (A) (A) (A)
                 (A) (A) (A) (A) (A) (A) (A) (A) (A) (A) (A) (A)
                 (A) (A) (A) (A) (A) (A) (A) (A) (A) (A) (A) (A)
                 (A) (A) (A) (A) (A) (A) (A) (A) (A) (A) (A) (A)
                 (A) (A) (A) (A) (A) (A) (A) (A) (A) (A) (A) (A)
                 (A) (A) (A) (A) (A) (A) (A) (A) (A) (A) (A) (A)
                 (A) (A) (A) (A) (A) (A) (A) (A) (A) (A) (A) (A)
                 (A) (A) (A) (A) (A) (A) (A) (A) (A) (A) (A) (A)
                 (A) (A) (A) (A) (A) (A) (A) (A) (A) (A) (A) (A)
                 (A) (A) (A) (A) (A) (A) (A) (A) (A) (A) (A) (A)
                 (A) (A) (A) (A) (A) (A) (A) (A) (A) (A) (A) (A)
                 (A) (A) (A) (A) (A) (A) (A) (A) (A) (A) (A) (A)
                 (A) (A) (A) (A) (A) (A) (A) (A) (A) (A) (A) (A)
                 (A) (A) (A) (A) (A) (A) (A) (A) (A) (A) (A) (A)
                 (A) (A) (A) (A) (A) (A) (A) (A) (A) (A) (A) (A)
                 (A) (A) (A) (A) (A) (A) (A) (A) (A) (A) (A) (A)
                 (A) (A) (A) (A) (A) (A) (A) (A) (A) (A) (A) (A)
                 (A) (A) (A) (A) (A) (A) (A) (A) (A) (A) (A) (A)
                 (A) (A) (A) (A) (A) (A) (A) (A) (A) (A) (A) (A)
                 (A) (A) (A) (A) (A) (A) (A) (A) (A) (A) (A) (A)
                 (A) (A) (A) (A) (A) (A) (A) (A) (A) (A) (A) (A)
                 (A) (A) (A) (A) (A) (A) (A) (A) (A) (A) (A) (A)
                 (A) (A) (A) (A) (A) (A) (A) (A) (A) (A) (A) (A)
                 (A) (A) (A) (A) (A) (A) (A) (A) (A) (A) (A) (A)
                 (A) (A) (A) (A) (A) (A) (A) (A) (A) (A) (A) (A)
                 (A) (A) (A) (A) (A) (A) (A) (A) (A) (A) (A) (A)
                 (A) (A) (A) (A) (A) (A) (A) (A) (A) (A) (A) (A)
                 (A) (A) (A) (A) (A) (A) (A) (A) (A) (A) (A) (A)
                 (A) (A) (A) (A) (A) (A) (A) (A) (A) (A) (A) (A)
                 (A) (A) (A) (A) (A) (A) (A) (A) (A) (A) (A) (A)
                 (A) (A) (A) (A) (A) (A) (A) (A) (A) (A) (A) (A)
                 (A) (A) (A) (A) (A) (A) (A) (A) (A) (A) (A) (A)
                 (A) (A) (A) (A) (A) (A) (A) (A) (A) (A) (A) (A)
                 (A) (A) (A) (A) (A) (A) (A) (A) (A) (A) (A) (A)
                 (A) (A) (A) (A) (A) (A) (A) (A) (A) (A) (A) (A)
                 (A) (A) (A) (A) (A) (A) (A) (A) (A) (A) (A) (A)
                 (A) (A) (A) (A) (A) (A) (A) (A) (A) (A) (A) (A)
                 (A) (A) (A) (A) (A) (A) (A) (A) (A) (A) (A) (A)
                 (A) (A) (A) (A) (A) (A) (A) (A) (A) (A) (A) (A)
                 (A) (A) (A) (A) (A) (A) (A) (A) (A) (A) (A) (A)
                 (A) (A) (A) (A) (A) (A) (A) (A) (A) (A) (A) (A)
                 (A) (A) (A) (A) (A) (A) (A) (A) (A) (A) (A) (A)
                 (A) (A) (A) (A) (A) (A) (A) (A) (A) (A) (A) (A)
                 (A) (A) (A) (A) (A) (A) (A) (A) (A) (A) (A) (A)
                 (A) (A) (A) (A) (A) (A) (A) (A) (A) (A) (A) (A)
                 (A) (A) (A) (A) (A) (A) (A) (A) (A) (A) (A) (A)
                 (A) (A) (A) (A) (A) (A) (A) (A) (A) (A) (A) (A)
                 (A) (A) (A) (A) (A) (A) (A) (A) (A) (A) (A) (A)
                 (A) (A) (A) (A) (A) (A) (A) (A) (A) (A) (A) (A)
                 (A) (A) (A) (A) (A) (A) (A) (A) (A) (A) (A) (A)
                 (A) (A) (A) (A) (A) (A) (A) (A) (A) (A) (A) (A)
                 (A) (A) (A) (A) (A) (A) (A) (A) (A) (A) (A) (A)
                 (A) (A) (A) (A) (A) (A) (A) (A) (A) (A) (A) (A)
                 (A) (A) (A) (A) (A) (A) (A) (A) (A) (A) (A) (A)
                 (A) (A) (A) (A) (A) (A) (A) (A) (A) (A) (A) (A)
                 (A) (A) (A) (A) (A) (A) (A) (A) (A) (A) (A) (A)
                 (A) (A) (A) (A) (A) (A) (A) (A) (A) (A) (A) (A)
                 (A) (A) (A) (A) (A) (A) (A) (A) (A) (A) (A) (A)
                 (A) (A) (A) (A) (A) (A) (A) (A) (A) (A) (A) (A)
                 (A) (A) (A) (A) (A) (A) (A) (A) (A) (A) (A) (A)
                 (A) (A) (A) (A) (A) (A) (A) (A) (A) (A) (A) (A)
                 (A) (A) (A) (A) (A) (A) (A) (A) (A) (A) (A) (A)
                 (A) (A) (A) (A) (A) (A) (A) (A) (A) (A) (A) (A)
                 (A) (A) (A) (A) (A) (A) (A) (A) (A) (A) (A) (A)
                 (A) (A) (A) (A) (A) (A) (A) (A) (A) (A) (A) (A)
                 (A) (A) (A) (A) (A) (A) (A) (A) (A) (A) (A) (A)
                 (A) (A) (A) (A) (A) (A) (A) (A) (A) (A) (A) (A)
                 (A) (A) (A) (A) (A) (A) (A) (A) (A) (A) (A) (A)
                 (A) (A) (A) (A) (A) (A) (A) (A) (A) (A) (A) (A)
                 (A) (A) (A) (A) (A) (A) (A) (A) (A) (A) (A) (A)
                 (A) (A) (A) (A) (A) (A) (A) (A) (A) (A) (A) (A)
                 (A) (A) (A) (A) (A) (A) (A) (A) (A) (A) (A) (A)
                 (A) (A) (A) (A) (A) (A) (A) (A) (A) (A) (A) (A)
                 (A) (A) (A) (A) (A) (A) (A) (A) (A) (A) (A) (A)
                 (A) (A) (A) (A) (A) (A) (A) (A) (A) (A) (A) (A)
                 (A) (A) (A) (A) (A) (A) (A) (A) (A) (A) (A) (A)
                 (A) (A) (A) (A) (A) (A) (A) (A) (A) (A) (A) (A)
                 (A) (A) (A) (A) (A) (A) (A) (A) (A) (A) (A) (A)
                 (A) (A) (A) (A) (A) (A) (A) (A) (A) (A) (A) (A)
                 (A) (A) (A) (A) (A) (A) (A) (A) (A) (A) (A) (A)
                 (A) (A) (A) (A) (A) (A) (A) (A) (A) (A) (A) (A)
                 (A) (A) (A) (A) (A) (A) (A) (A) (A) (A) (A) (A)
                 (A) (A) (A) (A) (A) (A) (A) (A) (A) (A) (A) (A)
                 (A) (A) (A) (A) (A) (A) (A) (A) (A) (A) (A) (A)
                 (A) (A) (A) (A) (A) (A) (A) (A) (A) (A) (A) (A)
                 (A) (A) (A) (A) (A) (A) (A) (A) (A) (A) (A) (A)
                 (A) (A) (A) (A) (A) (A) (A) (A) (A) (A) (A) (A)
                 (A) (A) (A) (A) (A) (A) (A) (A) (A) (A) (A) (A)
                 (A) (A) (A) (A) (A) (A) (A) (A) (A) (A) (A) (A)
                 (A) (A) (A) (A) (A) (A) (A) (A) (A) (A) (A) (A)
                 (A) (A) (A) (A) (A) (A) (A) (A) (A) (A) (A) (A)
                 (A) (A) (A) (A) (A) (A) (A) (A) (A) (A) (A) (A)
                 (A) (A) (A) (A) (A) (A) (A) (A) (A) (A) (A) (A)
                 (A) (A) (A) (A) (A) (A) (A) (A) (A) (A) (A) (A)
                 (A) (A) (A) (A) (A) (A) (A) (A) (A) (A) (A) (A)
                 (A) (A) (A) (A) (A) (A) (A) (A) (A) (A) (A) (A)
                 (A) (A) (A) (A) (A) (A) (A) (A) (A) (A) (A) (A)
                 (A) (A) (A) (A) (A) (A) (A) (A) (A) (A) (A) (A)
                 (A) (A) (A) (A) (A) (A) (A) (A) (A) (A) (A) (A)
                 (A) (A) (A) (A) (A) (A) (A) (A) (A) (A) (A) (A)
                 (A) (A) (A) (A) (A) (A) (A) (A) (A) (A) (A) (A)
                 (A) (A) (A) (A) (A) (A) (A) (A) (A) (A) (A) (A)
                 (A) (A) (A) (A) (A) (A) (A) (A) (A) (A) (A) (A)
                 (A) (A) (A) (A) (A) (A) (A) (A) (A) (A) (A) (A)
                 (A) (A) (A) (A) (A) (A) (A) (A) (A) (A) (A) (A)
                 (A) (A) (A) (A) (A) (A) (A) (A) (A) (A) (A) (A)
                 (A) (A) (A) (A) (A) (A) (A) (A) (A) (A) (A) (A)
                 (A) (A) (A) (A) (A) (A) (A) (A) (A) (A) (A) (A)
                 (A) (A) (A) (A) (A) (A) (A) (A) (A) (A) (A) (A)
                 (A) (A) (A) (A) (A) (A) (A) (A) (A) (A) (A) (A)
                 (A) (A) (A) (A) (A) (A) (A) (A) (A) (A) (A) (A)
                 (A) (A) (A) (A) (A) (A) (A) (A) (A) (A) (A) (A)
                 (A) (A) (A) (A) (A) (A) (A) (A) (A) (A) (A) (A)
                 (A) (A) (A) (A) (A) (A) (A) (A) (A) (A) (A) (A)
                 (A) (A) (A) (A) (A) (A) (A) (A) (A) (A) (A) (A)
                 (A) (A) (A) (A) (A) (A) (A) (A) (A) (A) (A) (A)
                 (A) (A) (A) (A) (A) (A) (A) (A) (A) (A) (A) (A)
                 (A) (A) (A) (A) (A) (A) (A) (A) (A) (A) (A) (A)
                 (A) (A) (A) (A) (A) (A) (A) (A) (A) (A) (A) (A)
                 (A) (A) (A) (A) (A) (A) (A) (A) (A) (A) (A) (A)
                 (A) (A) (A) (A) (A) (A) (A) (A) (A) (A) (A) (A)
                 (A) (A) (A) (A) (A) (A) (A) (A) (A) (A) (A) (A)
                 (A) (A) (A) (A) (A) (A) (A) (A) (A) (A) (A) (A)
                 (A) (A) (A) (A) (A) (A) (A) (A) (A) (A) (A) (A)
                 (A) (A) (A) (A) (A) (A) (A) (A) (A) (A) (A) (A)
                 (A) (A) (A) (A) (A) (A) (A) (A) (A) (A) (A) (A)
                 (A) (A) (A) (A) (A) (A) (A) (A) (A) (A) (A) (A)
                 (A) (A) (A) (A) (A) (A) (A) (A) (A) (A) (A) (A)
                 (A) (A) (A) (A) (A) (A) (A) (A)
 The electronic state is 1-A.
 Alpha  occ. eigenvalues --  -14.36868 -14.36743 -14.36722 -14.36621 -14.36431
 Alpha  occ. eigenvalues --  -14.36375 -14.36298 -14.36153 -10.27707 -10.27577
 Alpha  occ. eigenvalues --  -10.25980 -10.25734 -10.25319 -10.25238 -10.24525
 Alpha  occ. eigenvalues --  -10.24505 -10.24453 -10.24254 -10.24251 -10.24201
 Alpha  occ. eigenvalues --  -10.24127 -10.24106 -10.23282 -10.23170 -10.23063
 Alpha  occ. eigenvalues --  -10.23052 -10.23036 -10.22891 -10.22847 -10.22832
 Alpha  occ. eigenvalues --  -10.22682 -10.22556 -10.22514 -10.22301 -10.22298
 Alpha  occ. eigenvalues --  -10.22246 -10.22219 -10.22217 -10.21763 -10.21733
 Alpha  occ. eigenvalues --  -10.21486 -10.21470 -10.21122 -10.20891 -10.20833
 Alpha  occ. eigenvalues --  -10.20811 -10.20742 -10.20254 -10.20095 -10.19973
 Alpha  occ. eigenvalues --  -10.19584 -10.19533 -10.19530 -10.19517 -10.19228
 Alpha  occ. eigenvalues --  -10.19222 -10.18843 -10.18730  -0.99331  -0.99130
 Alpha  occ. eigenvalues --   -0.97068  -0.96906  -0.94103  -0.93778  -0.89319
 Alpha  occ. eigenvalues --   -0.88519  -0.88387  -0.88156  -0.84209  -0.84085
 Alpha  occ. eigenvalues --   -0.83683  -0.83032  -0.81650  -0.81203  -0.81094
 Alpha  occ. eigenvalues --   -0.80597  -0.79174  -0.79019  -0.78624  -0.78299
 Alpha  occ. eigenvalues --   -0.74154  -0.73309  -0.72973  -0.72861  -0.71223
 Alpha  occ. eigenvalues --   -0.71132  -0.70637  -0.69998  -0.69925  -0.69491
 Alpha  occ. eigenvalues --   -0.69484  -0.68973  -0.68216  -0.68081  -0.66557
 Alpha  occ. eigenvalues --   -0.66170  -0.65328  -0.64476  -0.64227  -0.63976
 Alpha  occ. eigenvalues --   -0.62813  -0.62001  -0.59770  -0.59239  -0.58773
 Alpha  occ. eigenvalues --   -0.58407  -0.57967  -0.57270  -0.56962  -0.56868
 Alpha  occ. eigenvalues --   -0.56558  -0.55639  -0.54520  -0.54036  -0.53774
 Alpha  occ. eigenvalues --   -0.53131  -0.52752  -0.52004  -0.51026  -0.50669
 Alpha  occ. eigenvalues --   -0.50309  -0.49693  -0.49452  -0.48917  -0.48748
 Alpha  occ. eigenvalues --   -0.48570  -0.47981  -0.47933  -0.47430  -0.47172
 Alpha  occ. eigenvalues --   -0.46830  -0.46096  -0.46060  -0.45841  -0.45765
 Alpha  occ. eigenvalues --   -0.45591  -0.45208  -0.44952  -0.44804  -0.44508
 Alpha  occ. eigenvalues --   -0.44443  -0.43934  -0.43612  -0.43323  -0.43074
 Alpha  occ. eigenvalues --   -0.42934  -0.42567  -0.42452  -0.42353  -0.42293
 Alpha  occ. eigenvalues --   -0.41668  -0.41586  -0.41530  -0.41329  -0.41120
 Alpha  occ. eigenvalues --   -0.40699  -0.40430  -0.40280  -0.39883  -0.39741
 Alpha  occ. eigenvalues --   -0.39652  -0.39533  -0.39334  -0.39229  -0.38917
 Alpha  occ. eigenvalues --   -0.38624  -0.38511  -0.38458  -0.38304  -0.38159
 Alpha  occ. eigenvalues --   -0.38030  -0.37719  -0.37625  -0.37233  -0.37100
 Alpha  occ. eigenvalues --   -0.36694  -0.36316  -0.36101  -0.35944  -0.35777
 Alpha  occ. eigenvalues --   -0.35486  -0.35323  -0.35073  -0.34786  -0.34658
 Alpha  occ. eigenvalues --   -0.34610  -0.34573  -0.34413  -0.34352  -0.34212
 Alpha  occ. eigenvalues --   -0.34131  -0.34077  -0.33667  -0.33382  -0.33299
 Alpha  occ. eigenvalues --   -0.33098  -0.32910  -0.32540  -0.32384  -0.32218
 Alpha  occ. eigenvalues --   -0.32011  -0.31921  -0.31644  -0.31378  -0.30461
 Alpha  occ. eigenvalues --   -0.29591  -0.26330  -0.26259  -0.25950  -0.25872
 Alpha  occ. eigenvalues --   -0.25630  -0.25522  -0.25166  -0.24823  -0.24511
 Alpha  occ. eigenvalues --   -0.24190  -0.23481  -0.23322
 Alpha virt. eigenvalues --   -0.05186  -0.04655  -0.03325  -0.03012   0.01488
 Alpha virt. eigenvalues --    0.02235   0.03109   0.03408   0.04092   0.04230
 Alpha virt. eigenvalues --    0.04673   0.04782   0.05014   0.05329   0.05649
 Alpha virt. eigenvalues --    0.05904   0.06158   0.06231   0.06623   0.06806
 Alpha virt. eigenvalues --    0.07115   0.07178   0.07456   0.07789   0.07934
 Alpha virt. eigenvalues --    0.08038   0.08317   0.08592   0.08771   0.08870
 Alpha virt. eigenvalues --    0.09289   0.09408   0.09603   0.09800   0.09940
 Alpha virt. eigenvalues --    0.10049   0.10100   0.10465   0.10627   0.10707
 Alpha virt. eigenvalues --    0.10883   0.10992   0.11312   0.11526   0.11680
 Alpha virt. eigenvalues --    0.11803   0.11924   0.12252   0.12577   0.12702
 Alpha virt. eigenvalues --    0.12879   0.13172   0.13231   0.13348   0.13403
 Alpha virt. eigenvalues --    0.13597   0.13785   0.13925   0.13994   0.14053
 Alpha virt. eigenvalues --    0.14254   0.14597   0.14660   0.14780   0.15020
 Alpha virt. eigenvalues --    0.15027   0.15245   0.15274   0.15438   0.15648
 Alpha virt. eigenvalues --    0.15800   0.15975   0.16191   0.16309   0.16377
 Alpha virt. eigenvalues --    0.16532   0.16569   0.16915   0.17020   0.17169
 Alpha virt. eigenvalues --    0.17250   0.17360   0.17550   0.17842   0.17963
 Alpha virt. eigenvalues --    0.18085   0.18189   0.18285   0.18375   0.18495
 Alpha virt. eigenvalues --    0.18548   0.18914   0.19140   0.19341   0.19456
 Alpha virt. eigenvalues --    0.19596   0.19682   0.19977   0.20180   0.20230
 Alpha virt. eigenvalues --    0.20362   0.20533   0.20580   0.20819   0.20904
 Alpha virt. eigenvalues --    0.21083   0.21277   0.21371   0.21523   0.21734
 Alpha virt. eigenvalues --    0.21760   0.21885   0.22063   0.22109   0.22315
 Alpha virt. eigenvalues --    0.22485   0.22551   0.22774   0.22811   0.22984
 Alpha virt. eigenvalues --    0.23105   0.23243   0.23357   0.23599   0.23715
 Alpha virt. eigenvalues --    0.23870   0.23953   0.24160   0.24376   0.24509
 Alpha virt. eigenvalues --    0.24868   0.25058   0.25186   0.25239   0.25452
 Alpha virt. eigenvalues --    0.25571   0.25721   0.25965   0.26226   0.26258
 Alpha virt. eigenvalues --    0.26556   0.26757   0.26797   0.27015   0.27300
 Alpha virt. eigenvalues --    0.27422   0.27723   0.27884   0.28145   0.28468
 Alpha virt. eigenvalues --    0.28656   0.28824   0.29015   0.29187   0.29426
 Alpha virt. eigenvalues --    0.29529   0.29681   0.29752   0.29931   0.30205
 Alpha virt. eigenvalues --    0.30306   0.30567   0.30713   0.30951   0.31226
 Alpha virt. eigenvalues --    0.31473   0.31497   0.31694   0.31879   0.32080
 Alpha virt. eigenvalues --    0.32297   0.32431   0.32627   0.32771   0.32977
 Alpha virt. eigenvalues --    0.33126   0.33257   0.33336   0.33648   0.33859
 Alpha virt. eigenvalues --    0.33969   0.34165   0.34310   0.34410   0.34666
 Alpha virt. eigenvalues --    0.34947   0.35112   0.35442   0.35518   0.35779
 Alpha virt. eigenvalues --    0.35923   0.36081   0.36535   0.36722   0.36879
 Alpha virt. eigenvalues --    0.37031   0.37073   0.37334   0.37540   0.37683
 Alpha virt. eigenvalues --    0.37733   0.37765   0.37943   0.38132   0.38250
 Alpha virt. eigenvalues --    0.38332   0.38434   0.38632   0.38819   0.38959
 Alpha virt. eigenvalues --    0.39258   0.39444   0.39698   0.39898   0.39909
 Alpha virt. eigenvalues --    0.40173   0.40259   0.40369   0.40572   0.40781
 Alpha virt. eigenvalues --    0.40931   0.40980   0.41120   0.41240   0.41308
 Alpha virt. eigenvalues --    0.41606   0.41680   0.41880   0.42133   0.42254
 Alpha virt. eigenvalues --    0.42484   0.42610   0.42682   0.42842   0.42960
 Alpha virt. eigenvalues --    0.43202   0.43321   0.43379   0.43552   0.43623
 Alpha virt. eigenvalues --    0.43744   0.43819   0.43875   0.44097   0.44199
 Alpha virt. eigenvalues --    0.44428   0.44481   0.44630   0.44866   0.44902
 Alpha virt. eigenvalues --    0.45070   0.45236   0.45350   0.45449   0.45587
 Alpha virt. eigenvalues --    0.45728   0.45793   0.45887   0.46090   0.46203
 Alpha virt. eigenvalues --    0.46315   0.46407   0.46498   0.46574   0.46659
 Alpha virt. eigenvalues --    0.46828   0.46893   0.46985   0.47046   0.47327
 Alpha virt. eigenvalues --    0.47434   0.47505   0.47845   0.48016   0.48079
 Alpha virt. eigenvalues --    0.48205   0.48432   0.48595   0.48736   0.48804
 Alpha virt. eigenvalues --    0.48938   0.49059   0.49197   0.49270   0.49443
 Alpha virt. eigenvalues --    0.49583   0.49793   0.49922   0.49955   0.50031
 Alpha virt. eigenvalues --    0.50225   0.50347   0.50458   0.50554   0.50837
 Alpha virt. eigenvalues --    0.50893   0.51001   0.51168   0.51219   0.51463
 Alpha virt. eigenvalues --    0.51653   0.51747   0.51816   0.51969   0.52136
 Alpha virt. eigenvalues --    0.52428   0.52501   0.52719   0.52765   0.52954
 Alpha virt. eigenvalues --    0.53145   0.53531   0.53757   0.53889   0.53999
 Alpha virt. eigenvalues --    0.54079   0.54253   0.54387   0.54461   0.54607
 Alpha virt. eigenvalues --    0.54896   0.54965   0.55047   0.55091   0.55435
 Alpha virt. eigenvalues --    0.55569   0.55738   0.55838   0.56180   0.56258
 Alpha virt. eigenvalues --    0.56540   0.56815   0.56977   0.57217   0.57409
 Alpha virt. eigenvalues --    0.57708   0.57868   0.57886   0.57926   0.58073
 Alpha virt. eigenvalues --    0.58320   0.58562   0.58613   0.58878   0.59107
 Alpha virt. eigenvalues --    0.59269   0.59366   0.59516   0.59866   0.60088
 Alpha virt. eigenvalues --    0.60242   0.60411   0.60581   0.60863   0.61044
 Alpha virt. eigenvalues --    0.61378   0.61522   0.61693   0.61873   0.62129
 Alpha virt. eigenvalues --    0.62205   0.62395   0.62605   0.62795   0.62951
 Alpha virt. eigenvalues --    0.63192   0.63504   0.63952   0.64004   0.64116
 Alpha virt. eigenvalues --    0.64296   0.64444   0.64715   0.65062   0.65187
 Alpha virt. eigenvalues --    0.65576   0.65923   0.66206   0.66278   0.66597
 Alpha virt. eigenvalues --    0.66747   0.67130   0.67241   0.67316   0.67497
 Alpha virt. eigenvalues --    0.67886   0.67973   0.68308   0.68523   0.68716
 Alpha virt. eigenvalues --    0.68879   0.69074   0.69231   0.69450   0.69660
 Alpha virt. eigenvalues --    0.69735   0.70071   0.70374   0.70623   0.70739
 Alpha virt. eigenvalues --    0.70912   0.71153   0.71304   0.71692   0.71913
 Alpha virt. eigenvalues --    0.72053   0.72162   0.72541   0.72885   0.73122
 Alpha virt. eigenvalues --    0.73389   0.73696   0.73928   0.74244   0.74467
 Alpha virt. eigenvalues --    0.74499   0.74863   0.75045   0.75411   0.75652
 Alpha virt. eigenvalues --    0.75770   0.76021   0.76563   0.76635   0.76820
 Alpha virt. eigenvalues --    0.77079   0.77249   0.77551   0.77714   0.77820
 Alpha virt. eigenvalues --    0.78165   0.78379   0.78779   0.78924   0.79047
 Alpha virt. eigenvalues --    0.79191   0.79455   0.79755   0.79924   0.80286
 Alpha virt. eigenvalues --    0.80760   0.81288   0.81357   0.81617   0.81852
 Alpha virt. eigenvalues --    0.82115   0.82654   0.82745   0.83007   0.83192
 Alpha virt. eigenvalues --    0.83554   0.83617   0.83895   0.84028   0.84102
 Alpha virt. eigenvalues --    0.84627   0.84694   0.85396   0.85484   0.85711
 Alpha virt. eigenvalues --    0.85854   0.86041   0.86375   0.86734   0.86886
 Alpha virt. eigenvalues --    0.87041   0.87283   0.87436   0.87563   0.87945
 Alpha virt. eigenvalues --    0.88102   0.88205   0.88656   0.88694   0.88892
 Alpha virt. eigenvalues --    0.89294   0.89683   0.90074   0.90158   0.90345
 Alpha virt. eigenvalues --    0.90492   0.90761   0.91001   0.91210   0.91316
 Alpha virt. eigenvalues --    0.91554   0.91684   0.92171   0.92537   0.92571
 Alpha virt. eigenvalues --    0.92832   0.93046   0.93245   0.93297   0.93524
 Alpha virt. eigenvalues --    0.93694   0.93949   0.94433   0.94576   0.94662
 Alpha virt. eigenvalues --    0.94970   0.95056   0.95153   0.95836   0.96188
 Alpha virt. eigenvalues --    0.96280   0.96441   0.96768   0.96924   0.97187
 Alpha virt. eigenvalues --    0.97418   0.97768   0.97861   0.98242   0.98410
 Alpha virt. eigenvalues --    0.98504   0.98861   0.98930   0.99268   0.99545
 Alpha virt. eigenvalues --    1.00032   1.00176   1.00518   1.00808   1.00901
 Alpha virt. eigenvalues --    1.01172   1.01272   1.01630   1.01807   1.02235
 Alpha virt. eigenvalues --    1.02351   1.02789   1.02988   1.03116   1.03584
 Alpha virt. eigenvalues --    1.03886   1.04116   1.04508   1.04663   1.04925
 Alpha virt. eigenvalues --    1.05106   1.05301   1.05484   1.05834   1.06204
 Alpha virt. eigenvalues --    1.06428   1.06709   1.06762   1.07314   1.07399
[...]
 Alpha virt. eigenvalues --    3.48606   3.48667   3.48784   3.49328   3.49470
 Alpha virt. eigenvalues --    3.49926   3.49996   3.50066   3.50398   3.50497
 Alpha virt. eigenvalues --    3.50867   3.50905   3.51115   3.51433   3.51571
 Alpha virt. eigenvalues --    3.51899   3.52146   3.52468   3.52559   3.52770
 Alpha virt. eigenvalues --    3.52857   3.53403   3.53493   3.53902   3.54115
 Alpha virt. eigenvalues --    3.54355   3.54690   3.54968   3.55217   3.55489
 Alpha virt. eigenvalues --    3.55557   3.55703   3.56161   3.56550   3.56650
 Alpha virt. eigenvalues --    3.56817   3.56905   3.56978   3.57687   3.58176
 Alpha virt. eigenvalues --    3.58577   3.58675   3.59060   3.59196   3.59636
 Alpha virt. eigenvalues --    3.59909   3.60045   3.60203   3.60444   3.60596
 Alpha virt. eigenvalues --    3.61102   3.61273   3.61537   3.61644   3.61893
 Alpha virt. eigenvalues --    3.62051   3.62206   3.62430   3.62741   3.63028
 Alpha virt. eigenvalues --    3.63334   3.63497   3.63705   3.63840   3.63888
 Alpha virt. eigenvalues --    3.64114   3.64220   3.64476   3.64742   3.64959
 Alpha virt. eigenvalues --    3.65302   3.65554   3.65730   3.65872   3.66177
 Alpha virt. eigenvalues --    3.66314   3.66567   3.66682   3.66978   3.67162
 Alpha virt. eigenvalues --    3.67657   3.67847   3.67943   3.68278   3.68627
 Alpha virt. eigenvalues --    3.68826   3.69076   3.69178   3.69340   3.69646
 Alpha virt. eigenvalues --    3.69929   3.70223   3.70495   3.70676   3.70994
 Alpha virt. eigenvalues --    3.71335   3.71709   3.71954   3.72517   3.73044
 Alpha virt. eigenvalues --    3.73345   3.73633   3.73733   3.73964   3.74318
 Alpha virt. eigenvalues --    3.74379   3.74786   3.75228   3.75412   3.75708
 Alpha virt. eigenvalues --    3.76080   3.76203   3.76895   3.76988   3.77438
 Alpha virt. eigenvalues --    3.77602   3.77793   3.77899   3.78715   3.78851
 Alpha virt. eigenvalues --    3.78997   3.79370   3.79557   3.79603   3.80422
 Alpha virt. eigenvalues --    3.81160   3.81294   3.81624   3.82026   3.82221
 Alpha virt. eigenvalues --    3.82511   3.82891   3.83194   3.83347   3.83784
 Alpha virt. eigenvalues --    3.84153   3.84361   3.84777   3.85027   3.85328
 Alpha virt. eigenvalues --    3.85529   3.86033   3.86594   3.86766   3.86979
 Alpha virt. eigenvalues --    3.87406   3.87778   3.88176   3.88361   3.89024
 Alpha virt. eigenvalues --    3.89255   3.89617   3.89942   3.90279   3.90471
 Alpha virt. eigenvalues --    3.91259   3.91620   3.91990   3.92688   3.92935
 Alpha virt. eigenvalues --    3.93383   3.93996   3.94515   3.94933   3.95729
 Alpha virt. eigenvalues --    3.96447   3.96855   3.97240   3.97849   3.98451
 Alpha virt. eigenvalues --    3.98704   3.99010   3.99719   4.00167   4.00929
 Alpha virt. eigenvalues --    4.01379   4.01933   4.02075   4.02379   4.02657
 Alpha virt. eigenvalues --    4.03059   4.03541   4.03800   4.04495   4.04846
 Alpha virt. eigenvalues --    4.05145   4.05610   4.05938   4.06186   4.06587
 Alpha virt. eigenvalues --    4.06859   4.06880   4.07795   4.07834   4.08289
 Alpha virt. eigenvalues --    4.08716   4.08996   4.09274   4.09688   4.09831
 Alpha virt. eigenvalues --    4.10260   4.10878   4.10999   4.11178   4.11484
 Alpha virt. eigenvalues --    4.11697   4.12436   4.12558   4.12890   4.13383
 Alpha virt. eigenvalues --    4.13695   4.13747   4.14394   4.14497   4.14760
 Alpha virt. eigenvalues --    4.15019   4.15676   4.16204   4.16422   4.16725
 Alpha virt. eigenvalues --    4.17154   4.17260   4.17367   4.17621   4.17862
 Alpha virt. eigenvalues --    4.18044   4.18360   4.18677   4.18801   4.19176
 Alpha virt. eigenvalues --    4.19680   4.19804   4.20359   4.20631   4.20934
 Alpha virt. eigenvalues --    4.21218   4.21746   4.22460   4.22808   4.23008
 Alpha virt. eigenvalues --    4.23479   4.24014   4.24233   4.24754   4.25454
 Alpha virt. eigenvalues --    4.25797   4.26022   4.26533   4.26791   4.27260
 Alpha virt. eigenvalues --    4.27557   4.27891   4.28225   4.28492   4.28792
 Alpha virt. eigenvalues --    4.29155   4.29533   4.30026   4.30303   4.30763
 Alpha virt. eigenvalues --    4.31083   4.31546   4.31799   4.32770   4.32990
 Alpha virt. eigenvalues --    4.33446   4.33843   4.34147   4.34613   4.34900
 Alpha virt. eigenvalues --    4.35104   4.35439   4.35606   4.36104   4.36609
 Alpha virt. eigenvalues --    4.37146   4.38102   4.38578   4.39659   4.39909
 Alpha virt. eigenvalues --    4.40284   4.40598   4.40869   4.41220   4.41551
 Alpha virt. eigenvalues --    4.41802   4.42315   4.42643   4.42861   4.43077
 Alpha virt. eigenvalues --    4.43251   4.43645   4.44099   4.44371   4.44557
 Alpha virt. eigenvalues --    4.45013   4.45541   4.45762   4.45960   4.46157
 Alpha virt. eigenvalues --    4.46490   4.46524   4.46829   4.46998   4.47209
 Alpha virt. eigenvalues --    4.47758   4.48052   4.48207   4.48788   4.49074
 Alpha virt. eigenvalues --    4.49418   4.50122   4.50395   4.51248   4.51322
 Alpha virt. eigenvalues --    4.52076   4.52555   4.52794   4.53289   4.53626
 Alpha virt. eigenvalues --    4.53978   4.55042   4.55420   4.55708   4.55946
 Alpha virt. eigenvalues --    4.56724   4.57996   4.58234   4.58707   4.59276
 Alpha virt. eigenvalues --    4.59535   4.60235   4.60462   4.61209   4.61615
 Alpha virt. eigenvalues --    4.62041   4.62336   4.62712   4.63011   4.63329
 Alpha virt. eigenvalues --    4.63946   4.64200   4.64829   4.65342   4.66534
 Alpha virt. eigenvalues --    4.66764   4.66888   4.67471   4.68058   4.68456
 Alpha virt. eigenvalues --    4.69118   4.69462   4.69736   4.70321   4.70702
 Alpha virt. eigenvalues --    4.70903   4.71829   4.72384   4.72937   4.75870
 Alpha virt. eigenvalues --    4.76037   4.76962   4.77197   4.77477   4.78027
 Alpha virt. eigenvalues --    4.78241   4.79329   4.80083   4.80453   4.80726
 Alpha virt. eigenvalues --    4.81034   4.82193   4.82286   4.83013   4.83465
 Alpha virt. eigenvalues --    4.83878   4.84822   4.85353   4.86264   4.87276
 Alpha virt. eigenvalues --    4.87964   4.88283   4.89144   4.89628   4.90947
 Alpha virt. eigenvalues --    4.91601   4.92062   4.92285   4.92414   4.92763
 Alpha virt. eigenvalues --    4.92908   4.93744   4.94407   4.94429   4.94690
 Alpha virt. eigenvalues --    4.95476   4.95681   4.96320   4.96640   4.97304
 Alpha virt. eigenvalues --    4.98013   4.98194   4.98887   4.99325   4.99858
 Alpha virt. eigenvalues --    5.00097   5.00483   5.01064   5.01229   5.01514
 Alpha virt. eigenvalues --    5.02333   5.03377   5.04202   5.04302   5.04733
 Alpha virt. eigenvalues --    5.04896   5.05340   5.06069   5.06657   5.07190
 Alpha virt. eigenvalues --    5.10164   5.10272   5.11803   5.12974   5.13509
 Alpha virt. eigenvalues --    5.13822   5.14455   5.14815   5.15461   5.16673
 Alpha virt. eigenvalues --    5.17677   5.18223   5.18474   5.18773   5.19409
 Alpha virt. eigenvalues --    5.19900   5.20646   5.21910   5.22746   5.24898
 Alpha virt. eigenvalues --    5.25199   5.26451   5.27448   5.28039   5.29062
 Alpha virt. eigenvalues --    5.29305   5.30319   5.30686   5.30940   5.32556
 Alpha virt. eigenvalues --    5.33314   5.33765   5.34407   5.35566   5.36152
 Alpha virt. eigenvalues --    5.36928   5.37547   5.39555   5.40319   5.41335
 Alpha virt. eigenvalues --    5.41800   5.42110   5.42341   5.43016   5.44109
 Alpha virt. eigenvalues --    5.44490   5.46215   5.47159   5.48697   5.49068
 Alpha virt. eigenvalues --    5.49827   5.50844   5.51790   5.51982   5.53288
 Alpha virt. eigenvalues --    5.54272   5.55030   5.56539   5.56708   5.57656
 Alpha virt. eigenvalues --    5.59220   5.60225   5.62231   5.63098   5.63407
 Alpha virt. eigenvalues --    5.64682   5.66277   5.66905   5.68677   5.71501
 Alpha virt. eigenvalues --    5.72250   5.73314   5.74053   5.74842   5.78210
 Alpha virt. eigenvalues --    5.79328   5.79924   5.80713   5.83081   5.83702
 Alpha virt. eigenvalues --    5.85922   5.86258   5.86920   5.87510   5.91412
 Alpha virt. eigenvalues --    5.96675   5.98881   6.01751   6.02932   6.05700
 Alpha virt. eigenvalues --    6.06444   6.08366   6.09983   6.10368   6.11352
 Alpha virt. eigenvalues --    6.15166   6.15934  22.47655  22.48301  22.50068
 Alpha virt. eigenvalues --   22.50306  22.50593  22.51178  22.51759  22.51831
 Alpha virt. eigenvalues --   22.52152  22.52265  22.53177  22.53345  22.53485
 Alpha virt. eigenvalues --   22.53632  22.54758  22.57997  22.61078  22.63247
 Alpha virt. eigenvalues --   22.72529  22.73846  22.73919  22.74319  22.75502
 Alpha virt. eigenvalues --   22.76630  22.78360  22.78693  22.79117  22.81738
 Alpha virt. eigenvalues --   22.83463  22.89285  22.89678  22.91597  22.93086
 Alpha virt. eigenvalues --   22.94233  22.95634  22.96721  22.98702  23.00135
 Alpha virt. eigenvalues --   23.06715  23.09595  23.13397  23.17146  23.18775
 Alpha virt. eigenvalues --   23.19254  23.20020  23.22632  23.24080  23.24413
 Alpha virt. eigenvalues --   23.54232  23.56124  32.63383  32.65146  32.72546
 Alpha virt. eigenvalues --   32.79386  32.81928  32.83875  32.93655  32.96265
          Condensed to atoms (all electrons):
 Mulliken charges:
               1
     1  C    0.402658
     2  C   -0.192016
     3  C   -0.323608
     4  C    0.053779
     5  H    0.168756
     6  C   -0.358403
     7  C    0.335954
     8  H    0.125142
     9  C   -0.334290
    10  C   -0.170778
    11  H    0.128324
    12  C    0.164197
    13  H    0.069596
    14  H    0.079614
    15  C    0.340927
    16  C   -0.176349
    17  C   -0.287285
    18  C    0.422853
    19  H    0.123244
    20  C   -0.376455
    21  C    0.329111
    22  H    0.140755
    23  C   -0.391690
    24  C   -0.099923
    25  H    0.106706
    26  C   -0.201648
    27  H    0.083548
    28  C    0.103476
    29  C    0.107233
    30  N   -0.254164
    31  H    0.075689
    32  C   -0.019672
    33  N   -0.257475
    34  H    0.072198
    35  C    0.002438
    36  H    0.077363
    37  C   -0.404581
    38  C   -0.383796
    39  H    0.073606
    40  C   -0.412032
    41  C   -0.389607
    42  H    0.122554
    43  H    0.127321
    44  H    0.111652
    45  H    0.117763
    46  H    0.139431
    47  H    0.115633
    48  H    0.133681
    49  H    0.110849
    50  H    0.118732
    51  H    0.145928
    52  H    0.113698
    53  H    0.113576
    54  C    0.021465
    55  C   -0.029512
    56  N   -0.317961
    57  H    0.091498
    58  C   -0.102918
    59  N   -0.289235
    60  H    0.087064
    61  C   -0.072412
    62  H    0.112793
    63  C   -0.393827
    64  C   -0.359879
    65  H    0.094409
    66  C   -0.359102
    67  C   -0.393728
    68  H    0.098450
    69  H    0.100326
    70  H    0.157546
    71  H    0.100960
    72  H    0.122923
    73  H    0.129029
    74  H    0.133070
    75  H    0.120164
    76  H    0.106443
    77  H    0.119602
    78  H    0.115546
    79  H    0.124904
    80  C    0.106939
    81  C    0.104850
    82  N   -0.254562
    83  H    0.076407
    84  C   -0.025972
    85  N   -0.256955
    86  H    0.073936
    87  C    0.009182
    88  H    0.076633
    89  C   -0.404234
    90  C   -0.382163
    91  H    0.073768
    92  C   -0.411576
    93  C   -0.391266
    94  H    0.128241
    95  H    0.111840
    96  H    0.121971
    97  H    0.115848
    98  H    0.117307
    99  H    0.139292
   100  H    0.110790
   101  H    0.118461
   102  H    0.134595
   103  H    0.114109
   104  H    0.114779
   105  H    0.141543
   106  C    0.153180
   107  C   -0.048438
   108  N   -0.282286
   109  H    0.043907
   110  C   -0.126759
   111  N   -0.242418
   112  H    0.045554
   113  C   -0.017537
   114  H    0.069868
   115  C   -0.372576
   116  C   -0.341718
   117  H    0.071622
   118  C   -0.428855
   119  C   -0.367720
   120  H    0.121452
   121  H    0.108647
   122  H    0.123017
   123  H    0.101386
   124  H    0.129889
   125  H    0.125723
   126  H    0.114172
   127  H    0.118613
   128  H    0.133945
   129  H    0.126182
   130  H    0.136145
   131  H    0.134922
   132  H    0.068267
   133  H    0.181756
   134  H    0.070463
   135  H    0.170732
   136  H    0.179374
   137  H    0.185316
   138  H    0.108584
 Sum of Mulliken charges =   0.00000
 Mulliken charges with hydrogens summed into heavy atoms:
               1
     1  C    0.402658
     2  C   -0.112401
     3  C   -0.154852
     4  C    0.053779
     6  C   -0.233261
     7  C    0.335954
     9  C   -0.205966
    10  C   -0.101182
    12  C    0.272781
    15  C    0.340927
    16  C   -0.108082
    17  C   -0.164041
    18  C    0.422853
    20  C   -0.235700
    21  C    0.329111
    23  C   -0.284984
    24  C   -0.029459
    26  C   -0.118101
    28  C    0.179165
    29  C    0.179431
    30  N   -0.254164
    32  C    0.057691
    33  N   -0.257475
    35  C    0.076044
    37  C   -0.031754
    38  C   -0.022270
    40  C   -0.038829
    41  C   -0.026345
    54  C    0.112963
    55  C    0.057552
    56  N   -0.132645
    58  C    0.009874
    59  N   -0.109860
    61  C    0.021997
    63  C   -0.040916
    64  C   -0.003557
    66  C    0.000949
    67  C   -0.034051
    80  C    0.183347
    81  C    0.178787
    82  N   -0.254562
    84  C    0.050661
    85  N   -0.256955
    87  C    0.082950
    89  C   -0.031787
    90  C   -0.020111
    92  C   -0.041145
    93  C   -0.027420
   106  C    0.197086
   107  C   -0.002884
   108  N   -0.100530
   110  C   -0.056892
   111  N   -0.071687
   113  C    0.054085
   115  C   -0.015579
   116  C    0.011398
   118  C   -0.031607
   119  C   -0.000990
 Electronic spatial extent (au):  <R**2>=          45287.7794
 Charge=              0.0000 electrons
 Dipole moment (field-independent basis, Debye):
    X=              0.9958    Y=             -3.2195    Z=             -1.1492  Tot=              3.5605
 Quadrupole moment (field-independent basis, Debye-Ang):
   XX=           -351.6016   YY=           -350.7979   ZZ=           -344.2350
   XY=              0.5911   XZ=              4.1853   YZ=              2.2660
 Traceless Quadrupole moment (field-independent basis, Debye-Ang):
   XX=             -2.7234   YY=             -1.9198   ZZ=              4.6432
   XY=              0.5911   XZ=              4.1853   YZ=              2.2660
 Octapole moment (field-independent basis, Debye-Ang**2):
  XXX=             62.5332  YYY=            -23.8632  ZZZ=            -76.6397  XYY=             25.7138
  XXY=            -76.2757  XXZ=              7.9132  XZZ=            -41.6183  YZZ=            -57.3315
  YYZ=            -15.1938  XYZ=            -53.4245
 Hexadecapole moment (field-independent basis, Debye-Ang**3):
 XXXX=         -28521.4913 YYYY=         -19699.5601 ZZZZ=         -13884.7827 XXXY=           -214.6684
 XXXZ=              9.8128 YYYX=            169.4746 YYYZ=             50.6594 ZZZX=            264.2205
 ZZZY=            117.6622 XXYY=          -7846.8859 XXZZ=          -6851.4008 YYZZ=          -5588.2799
 XXYZ=             22.7749 YYXZ=             91.4299 ZZXY=             69.9374
 N-N= 9.134908083882D+03 E-N=-2.381999392159D+04  KE= 2.378060006929D+03
 Leave Link  601 at Mon Oct 18 11:08:19 2021, MaxMem=  7864320000 cpu:              34.5 elap:               1.5
 (Enter /apps/gaussian/g16-c01-avx/g16/l9999.exe)
 Unable to Open any file for archive entry.
 1\1\GINC-CX3-6-10\SP\RPBE1PBE\def2TZVP\C50H80N8\ATARZIA\18-Oct-2021\0\
 \#P PBE1PBE/Def2TZVP SP SCF=(YQC,MaxCycle=900) int=(Grid=Superfinegrid
 ) EmpiricalDispersion=GD3\\_2_alde1_4_ami1_1_opt_gas\\0,1\C,0,-4.0235,
 -2.172,-1.5239\C,0,-4.3522,-2.008,-0.1171\C,0,-3.3291,-3.2963,-1.9734\
 C,0,-2.9378,-3.3968,-3.2965\H,0,-3.0834,-4.0794,-1.2753\C,0,-3.2221,-2
 .3614,-4.1764\C,0,-3.8901,-1.2203,-3.7399\H,0,-2.8987,-2.4407,-5.2036\
 C,0,-4.3172,-1.1488,-2.4165\C,0,-4.0333,-0.0744,-4.6243\H,0,-4.8458,-0
 .2645,-2.097\C,0,-2.1825,-4.6116,-3.8003\H,0,-3.4337,-0.1164,-5.5483\H
 ,0,-4.9748,-1.1325,0.1252\C,0,-1.2253,0.376,0.0132\C,0,-1.4786,-0.603,
 1.0616\C,0,-2.2888,0.9912,-0.6385\C,0,-2.0667,1.8392,-1.7174\H,0,-3.28
 93,0.7682,-0.3046\C,0,-0.7568,2.1222,-2.1021\C,0,0.3134,1.5675,-1.4172
 \H,0,-0.5818,2.7965,-2.9254\C,0,0.0767,0.6732,-0.3829\C,0,1.723,1.9043
 ,-1.8269\H,0,0.9108,0.2131,0.1286\C,0,-3.2108,2.375,-2.4387\H,0,-4.180
 7,2.2483,-1.9347\C,0,-2.8248,-1.706,2.6203\C,0,-4.1193,-2.4289,2.1523\
 N,0,-2.5807,-0.6636,1.6682\H,0,-2.0006,-2.4399,2.6158\C,0,-2.9327,-1.1
 029,4.0362\N,0,-3.9035,-2.775,0.7777\H,0,-4.9458,-1.7039,2.2463\C,0,-4
 .4664,-3.6947,2.9538\H,0,-3.219,-1.9062,4.7225\C,0,-3.9684,0.0157,4.11
 03\C,0,-1.5637,-0.5761,4.4672\H,0,-4.5912,-3.4165,4.0056\C,0,-3.3811,-
 4.7614,2.837\C,0,-5.7977,-4.2462,2.4428\H,0,-1.6087,-0.1985,5.4863\H,0
 ,-1.2483,0.234,3.8127\H,0,-0.815,-1.3651,4.4273\H,0,-4.9752,-0.3701,3.
 9749\H,0,-3.7686,0.7522,3.3367\H,0,-3.9211,0.5024,5.0822\H,0,-5.7018,-
 4.5299,1.3973\H,0,-6.5836,-3.4981,2.527\H,0,-6.0933,-5.1212,3.0174\H,0
 ,-3.1358,-4.9143,1.7899\H,0,-3.7332,-5.7,3.2594\H,0,-2.4807,-4.4681,3.
 3707\C,0,0.0431,-3.9768,-3.6691\C,0,-0.2738,-4.9281,-2.4713\N,0,-1.050
 2,-4.1854,-4.6177\H,0,0.9895,-4.2386,-4.149\C,0,0.1286,-2.4937,-3.2585
 \N,0,-1.6472,-5.3863,-2.6878\H,0,-0.268,-4.3466,-1.5417\C,0,0.687,-6.1
 19,-2.2979\H,0,-0.7656,-2.2395,-2.6821\C,0,0.1697,-1.61,-4.503\C,0,1.3
 638,-2.2183,-2.4053\H,0,0.2234,-6.7722,-1.5475\C,0,2.0431,-5.6734,-1.7
 588\C,0,0.877,-6.9329,-3.5795\H,0,2.2623,-2.5602,-2.9163\H,0,1.304,-2.
 7198,-1.4433\H,0,1.4621,-1.1485,-2.2367\H,0,1.1296,-1.7101,-5.0062\H,0
 ,0.025,-0.5709,-4.2191\H,0,-0.6149,-1.8988,-5.1944\H,0,1.4241,-7.8469,
 -3.3586\H,0,1.4461,-6.3737,-4.3192\H,0,-0.077,-7.2169,-4.022\H,0,1.926
 1,-5.1475,-0.8146\H,0,2.5405,-5.0106,-2.4619\H,0,2.6817,-6.5383,-1.592
 3\C,0,-4.7214,2.0879,-5.169\C,0,-4.3268,3.2829,-4.2554\N,0,-4.738,0.92
 79,-4.3287\H,0,-3.9551,1.9887,-5.9572\C,0,-6.0965,2.261,-5.8473\N,0,-3
 .1174,2.9088,-3.5776\H,0,-5.1484,3.414,-3.5316\C,0,-4.0989,4.6073,-5.0
 034\H,0,-6.0837,3.2066,-6.3986\C,0,-7.2406,2.2824,-4.8374\C,0,-6.3092,
 1.129,-6.8527\H,0,-5.0176,4.8667,-5.5397\C,0,-2.9434,4.5112,-5.9958\C,
 0,-3.8167,5.7056,-3.9779\H,0,-6.337,0.1697,-6.3402\H,0,-5.5054,1.1065,
 -7.5862\H,0,-7.2504,1.2657,-7.3806\H,0,-8.1959,2.2716,-5.3578\H,0,-7.2
 037,3.175,-4.2186\H,0,-7.179,1.4079,-4.1953\H,0,-4.6378,5.792,-3.2689\
 H,0,-3.688,6.6655,-4.4731\H,0,-2.9089,5.4709,-3.4271\H,0,-2.6944,5.499
 4,-6.3764\H,0,-3.2011,3.8788,-6.8415\H,0,-2.0734,4.0941,-5.497\C,0,2.9
 697,3.3873,-3.1723\C,0,3.255,1.9023,-3.5392\N,0,1.8405,3.2994,-2.2551\
 H,0,2.6295,3.9306,-4.0654\C,0,4.2136,4.1299,-2.6419\N,0,2.1446,1.1375,
 -2.984\H,0,4.156,1.5792,-3.0009\C,0,3.4908,1.6449,-5.0324\H,0,5.0302,3
 .9116,-3.3408\C,0,4.6414,3.6765,-1.2468\C,0,3.9697,5.6389,-2.6467\H,0,
 4.2448,2.3707,-5.3602\C,0,2.2377,1.8308,-5.889\C,0,4.0467,0.2351,-5.22
 7\H,0,4.8502,6.1679,-2.2886\H,0,3.1306,5.895,-2.0029\H,0,3.7446,5.9877
 ,-3.6521\H,0,3.8814,3.9193,-0.506\H,0,5.5605,4.183,-0.9599\H,0,4.8223,
 2.6045,-1.2154\H,0,5.011,0.1291,-4.7354\H,0,4.1734,0.0178,-6.2852\H,0,
 3.3605,-0.4892,-4.7959\H,0,2.5162,1.8726,-6.9397\H,0,1.7172,2.7526,-5.
 6401\H,0,1.5527,0.9958,-5.76\H,0,-0.6521,-1.3023,1.2685\H,0,1.9029,3.9
 447,-1.4793\H,0,2.4146,1.6569,-0.9981\H,0,1.3791,1.139,-3.6522\H,0,-1.
 6646,-6.3777,-2.8966\H,0,-0.8011,-4.921,-5.2714\H,0,-2.8785,-5.214,-4.
 3985\\Version=ES64L-G16RevC.01\State=1-A\HF=-2389.5852046\RMSD=2.377e-
 09\Dipole=1.2614456,-0.4486562,-0.4119933\Quadrupole=-1.8515199,3.0681
 404,-1.2166205,0.0360333,0.3218381,3.8046048\PG=C01 [X(C50H80N8)]\\@
 The archive entry for this job was punched.


 IN SO FAR AS QUANTUM MECHANICS IS CORRECT, CHEMICAL 
 QUESTIONS ARE PROBLEMS IN APPLIED MATHEMATICS.

                    -- EYRING, WALTER, & KIMBALL, 1944
 Job cpu time:       2 days  7 hours 48 minutes 27.2 seconds.
 Elapsed time:       0 days  1 hours 45 minutes 26.6 seconds.
 File lengths (MBytes):  RWF=   3024 Int=      0 D2E=      0 Chk=    312 Scr=     16
 Normal termination of Gaussian 16 at Mon Oct 18 11:08:20 2021.
