 Entering Gaussian System, Link 0=g16
 Initial command:
 /apps/gaussian/g16-c01-avx/g16/l1.exe "/rds/general/ephemeral/user/atarzia/ephemeral/Gau-2685563.inp" -scrdir="/rds/general/ephemeral/user/atarzia/ephemeral/"
 Entering Link 1 = /apps/gaussian/g16-c01-avx/g16/l1.exe PID=   2685564.
  
 Copyright (c) 1988-2019, Gaussian, Inc.  All Rights Reserved.
  
 This is part of the Gaussian(R) 16 program.  It is based on
 the Gaussian(R) 09 system (copyright 2009, Gaussian, Inc.),
 the Gaussian(R) 03 system (copyright 2003, Gaussian, Inc.),
 the Gaussian(R) 98 system (copyright 1998, Gaussian, Inc.),
 the Gaussian(R) 94 system (copyright 1995, Gaussian, Inc.),
 the Gaussian 92(TM) system (copyright 1992, Gaussian, Inc.),
 the Gaussian 90(TM) system (copyright 1990, Gaussian, Inc.),
 the Gaussian 88(TM) system (copyright 1988, Gaussian, Inc.),
 the Gaussian 86(TM) system (copyright 1986, Carnegie Mellon
 University), and the Gaussian 82(TM) system (copyright 1983,
 Carnegie Mellon University). Gaussian is a federally registered
 trademark of Gaussian, Inc.
  
 This software contains proprietary and confidential information,
 including trade secrets, belonging to Gaussian, Inc.
  
 This software is provided under written license and may be
 used, copied, transmitted, or stored only in accord with that
 written license.
  
 The following legend is applicable only to US Government
 contracts under FAR:
  
                    RESTRICTED RIGHTS LEGEND
  
 Use, reproduction and disclosure by the US Government is
 subject to restrictions as set forth in subparagraphs (a)
 and (c) of the Commercial Computer Software - Restricted
 Rights clause in FAR 52.227-19.
  
 Gaussian, Inc.
 340 Quinnipiac St., Bldg. 40, Wallingford CT 06492
  
  
 ---------------------------------------------------------------
 Warning -- This program may not be used in any manner that
 competes with the business of Gaussian, Inc. or will provide
 assistance to any competitor of Gaussian, Inc.  The licensee
 of this program is prohibited from giving any competitor of
 Gaussian, Inc. access to this program.  By using this program,
 the user acknowledges that Gaussian, Inc. is engaged in the
 business of creating and licensing software in the field of
 computational chemistry and represents and warrants to the
 licensee that it is not a competitor of Gaussian, Inc. and that
 it will not use this program in any manner prohibited above.
 ---------------------------------------------------------------
  

 Cite this work as:
 Gaussian 16, Revision C.01,
 M. J. Frisch, G. W. Trucks, H. B. Schlegel, G. E. Scuseria, 
 M. A. Robb, J. R. Cheeseman, G. Scalmani, V. Barone, 
 G. A. Petersson, H. Nakatsuji, X. Li, M. Caricato, A. V. Marenich, 
 J. Bloino, B. G. Janesko, R. Gomperts, B. Mennucci, H. P. Hratchian, 
 J. V. Ortiz, A. F. Izmaylov, J. L. Sonnenberg, D. Williams-Young, 
 F. Ding, F. Lipparini, F. Egidi, J. Goings, B. Peng, A. Petrone, 
 T. Henderson, D. Ranasinghe, V. G. Zakrzewski, J. Gao, N. Rega, 
 G. Zheng, W. Liang, M. Hada, M. Ehara, K. Toyota, R. Fukuda, 
 J. Hasegawa, M. Ishida, T. Nakajima, Y. Honda, O. Kitao, H. Nakai, 
 T. Vreven, K. Throssell, J. A. Montgomery, Jr., J. E. Peralta, 
 F. Ogliaro, M. J. Bearpark, J. J. Heyd, E. N. Brothers, K. N. Kudin, 
 V. N. Staroverov, T. A. Keith, R. Kobayashi, J. Normand, 
 K. Raghavachari, A. P. Rendell, J. C. Burant, S. S. Iyengar, 
 J. Tomasi, M. Cossi, J. M. Millam, M. Klene, C. Adamo, R. Cammi, 
 J. W. Ochterski, R. L. Martin, K. Morokuma, O. Farkas, 
 J. B. Foresman, and D. J. Fox, Gaussian, Inc., Wallingford CT, 2019.
 
 ******************************************
 Gaussian 16:  ES64L-G16RevC.01  3-Jul-2019
                17-Oct-2021 
 ******************************************
 %chk=_2_alde1_3_ami1_1_opt_gas.chk
 %mem=60000mb
 %nprocshared=32
 Will use up to   32 processors via shared memory.
 ----------------------------------------------------------------------
 #P PBE1PBE/Def2TZVP SP SCF=(YQC,MaxCycle=900) int=(Grid=Superfinegrid)
  EmpiricalDispersion=GD3
 ----------------------------------------------------------------------
 1/38=1,172=1/1;
 2/12=2,17=6,18=5,40=1/2;
 3/5=44,7=101,11=2,25=1,30=1,74=-13,75=-7,124=31/1,2,3;
 4//1;
 5/5=2,7=900,8=4,13=1,38=1/8,2,8;
 6/7=2,8=2,9=2,10=2,28=1/1;
 99/5=1,9=1/99;
 Leave Link    1 at Sun Oct 17 21:04:28 2021, MaxMem=  7864320000 cpu:               4.8 elap:               0.2
 (Enter /apps/gaussian/g16-c01-avx/g16/l101.exe)
 -------------------------
 _2_alde1_3_ami1_1_opt_gas
 -------------------------
 Symbolic Z-matrix:
 Charge =  0 Multiplicity = 1
 C                    -5.8085   -2.2719    0.0221 
 C                    -4.7031   -2.5938    0.9194 
 C                    -7.0132   -2.963     0.0903 
 C                    -8.0562   -2.6504   -0.782 
 H                    -7.1656   -3.7535    0.8114 
 C                    -7.8922   -1.6378   -1.7254 
 C                    -6.6938   -0.9338   -1.7971 
 H                    -8.7043   -1.399    -2.399 
 C                    -5.6591   -1.2582   -0.9222 
 C                    -6.5062    0.1367   -2.7714 
 H                    -4.7284   -0.7162   -0.9773 
 C                    -9.3199   -3.3909   -0.6995 
 H                    -7.3314    0.2966   -3.4868 
 H                    -4.9048   -3.3603    1.6863 
 C                    -0.2357    1.3183   -0.1046 
 C                    -0.5448    0.4775    1.0452 
 C                    -1.1406    1.3994   -1.1575 
 C                    -0.8674    2.1949   -2.2649 
 H                    -2.0613    0.8412   -1.1141 
 C                     0.3242    2.9164   -2.3111 
 C                     1.2304    2.8478   -1.2627 
 H                     0.5566    3.5457   -3.1579 
 C                     0.9516    2.0465   -0.1654 
 C                     2.5313    3.6029   -1.3382 
 H                     1.6631    1.9904    0.6467 
 C                    -1.8308    2.2644   -3.3565 
 H                    -1.5921    2.9628   -4.1773 
 C                    -2.0207   -0.9277    2.2256 
 C                    -2.4793   -2.285     1.6272 
 N                    -1.6637   -0.0911    1.1313 
 H                    -1.1811   -1.108     2.923 
 C                    -3.1562   -0.232     3.0119 
 N                    -3.5951   -2.0143    0.7875 
 H                    -2.72     -2.9812    2.4519 
 C                    -1.3756   -2.9304    0.7569 
 H                    -3.9686   -0.0404    2.3049 
 C                    -3.6701   -1.0973    4.1597 
 C                    -0.0959   -3.1789    1.551 
 C                    -1.8804   -4.2502    0.1751 
 O                    -9.5607   -4.2789    0.0784 
 C                    -5.211     1.8791   -3.6815 
 C                    -3.8479    1.5829   -4.3637 
 N                    -5.4531    0.823    -2.7604 
 H                    -5.9944    1.9612   -4.4581 
 C                    -5.1792    3.2057   -2.8869 
 N                    -2.8667    1.5509   -3.3336 
 H                    -3.6506    2.3617   -5.1244 
 C                    -3.8457    0.2082   -5.0717 
 H                    -4.4161    3.0978   -2.1107 
 C                    -4.8369    4.3961   -3.7788 
 H                    -4.0208   -0.5507   -4.3036 
 C                    -4.9307    0.1138   -6.1413 
 C                     3.7669    5.0724   -2.7085 
 C                     4.5626    3.7641   -2.4268 
 N                     2.4322    4.7826   -2.1968 
 H                     3.6749    5.2133   -3.7958 
 C                     4.43      6.3394   -2.1282 
 C                     5.3434    3.2153   -3.6239 
 H                     5.4835    6.315    -2.4257 
 C                     3.7933    7.5918   -2.731 
 H                     4.6279    3.0148   -4.4312 
 C                     6.3846    4.2101   -4.1314 
 H                     0.2451    0.3833    1.8105 
 H                    -10.0782  -3.0615   -1.4391 
 C                    -2.6602    1.1044    3.5627 
 H                    -1.168    -2.2392   -0.0649 
 C                    -6.5324    3.4416   -2.2172 
 C                    -2.4789   -0.0437   -5.7068 
 C                     4.3703    6.406    -0.6026 
 C                     6.0295    1.9054   -3.2375 
 H                    -1.1145   -4.6999   -0.4525 
 H                    -2.7685   -4.0898   -0.4309 
 H                    -2.1244   -4.9502    0.9729 
 H                    -2.847    -1.4151    4.7976 
 H                    -4.1895   -1.9789    3.7954 
 H                    -4.37     -0.5256    4.7653 
 H                    -1.8324    0.9481    4.2529 
 H                    -3.4611    1.61      4.0972 
 H                    -2.3241    1.7514    2.7564 
 H                    -0.3099   -3.7464    2.4552 
 H                     0.3888   -2.2476    1.8291 
 H                     0.605    -3.7508    0.9468 
 H                     2.7317    7.6385   -2.4956 
 H                     3.9006    7.5936   -3.8136 
 H                     4.2699    8.4871   -2.3377 
 H                     7.0833    4.4648   -3.3371 
 H                     5.92      5.1238   -4.4925 
 H                     6.9477    3.769    -4.951 
 H                     4.8159    5.523    -0.1504 
 H                     3.3435    6.4921   -0.2509 
 H                     4.9166    7.2786   -0.2507 
 H                     5.3105    1.2013   -2.8293 
 H                     6.7898    2.0917   -2.4823 
 H                     6.5084    1.458    -4.1056 
 H                    -4.9533    5.3204   -3.217 
 H                    -5.5021    4.4337   -4.64 
 H                    -3.8108    4.3488   -4.1316 
 H                    -4.8139   -0.8113   -6.7017 
 H                    -4.855     0.947    -6.8379 
 H                    -5.9252    0.114    -5.7042 
 H                    -2.4625   -1.0195   -6.1867 
 H                    -1.6954   -0.0187   -4.9537 
 H                    -2.2636    0.7129   -6.46 
 H                    -7.3194    3.5228   -2.9657 
 H                    -6.51      4.3647   -1.6428 
 H                    -6.7761    2.625    -1.5423 
 H                     2.0086    5.5717   -1.7269 
 N                     3.5722    2.7989   -1.9535 
 H                     5.2632    3.936    -1.6001 
 H                     2.8712    3.8507   -0.3144 
 H                     3.1674    2.3202   -2.7554 
 
 ITRead=  0  0  0  0  0  0  0  0  0  0  0  0  0  0  0  0  0  0  0  0
 ITRead=  0  0  0  0  0  0  0  0  0  0  0  0  0  0  0  0  0  0  0  0
 ITRead=  0  0  0  0  0  0  0  0  0  0  0  0  0  0  0  0  0  0  0  0
 ITRead=  0  0  0  0  0  0  0  0  0  0  0  0  0  0  0  0  0  0  0  0
 ITRead=  0  0  0  0  0  0  0  0  0  0  0  0  0  0  0  0  0  0  0  0
 ITRead=  0  0  0  0  0  0  0  0  0  0  0
 MicOpt= -1 -1 -1 -1 -1 -1 -1 -1 -1 -1 -1 -1 -1 -1 -1 -1 -1 -1 -1 -1
 MicOpt= -1 -1 -1 -1 -1 -1 -1 -1 -1 -1 -1 -1 -1 -1 -1 -1 -1 -1 -1 -1
 MicOpt= -1 -1 -1 -1 -1 -1 -1 -1 -1 -1 -1 -1 -1 -1 -1 -1 -1 -1 -1 -1
 MicOpt= -1 -1 -1 -1 -1 -1 -1 -1 -1 -1 -1 -1 -1 -1 -1 -1 -1 -1 -1 -1
 MicOpt= -1 -1 -1 -1 -1 -1 -1 -1 -1 -1 -1 -1 -1 -1 -1 -1 -1 -1 -1 -1
 MicOpt= -1 -1 -1 -1 -1 -1 -1 -1 -1 -1 -1
 NAtoms=    111 NQM=      111 NQMF=       0 NMMI=      0 NMMIF=      0
                NMic=       0 NMicF=      0.
                    Isotopes and Nuclear Properties:
 (Nuclear quadrupole moments (NQMom) in fm**2, nuclear magnetic moments (NMagM)
  in nuclear magnetons)

  Atom         1           2           3           4           5           6           7           8           9          10
 IAtWgt=          12          12          12          12           1          12          12           1          12          12
 AtmWgt=  12.0000000  12.0000000  12.0000000  12.0000000   1.0078250  12.0000000  12.0000000   1.0078250  12.0000000  12.0000000
 NucSpn=           0           0           0           0           1           0           0           1           0           0
 AtZEff=  -0.0000000  -0.0000000  -0.0000000  -0.0000000  -0.0000000  -0.0000000  -0.0000000  -0.0000000  -0.0000000  -0.0000000
 NQMom=    0.0000000   0.0000000   0.0000000   0.0000000   0.0000000   0.0000000   0.0000000   0.0000000   0.0000000   0.0000000
 NMagM=    0.0000000   0.0000000   0.0000000   0.0000000   2.7928460   0.0000000   0.0000000   2.7928460   0.0000000   0.0000000
 AtZNuc=   6.0000000   6.0000000   6.0000000   6.0000000   1.0000000   6.0000000   6.0000000   1.0000000   6.0000000   6.0000000

  Atom        11          12          13          14          15          16          17          18          19          20
 IAtWgt=           1          12           1           1          12          12          12          12           1          12
 AtmWgt=   1.0078250  12.0000000   1.0078250   1.0078250  12.0000000  12.0000000  12.0000000  12.0000000   1.0078250  12.0000000
 NucSpn=           1           0           1           1           0           0           0           0           1           0
 AtZEff=  -0.0000000  -0.0000000  -0.0000000  -0.0000000  -0.0000000  -0.0000000  -0.0000000  -0.0000000  -0.0000000  -0.0000000
 NQMom=    0.0000000   0.0000000   0.0000000   0.0000000   0.0000000   0.0000000   0.0000000   0.0000000   0.0000000   0.0000000
 NMagM=    2.7928460   0.0000000   2.7928460   2.7928460   0.0000000   0.0000000   0.0000000   0.0000000   2.7928460   0.0000000
 AtZNuc=   1.0000000   6.0000000   1.0000000   1.0000000   6.0000000   6.0000000   6.0000000   6.0000000   1.0000000   6.0000000

  Atom        21          22          23          24          25          26          27          28          29          30
 IAtWgt=          12           1          12          12           1          12           1          12          12          14
 AtmWgt=  12.0000000   1.0078250  12.0000000  12.0000000   1.0078250  12.0000000   1.0078250  12.0000000  12.0000000  14.0030740
 NucSpn=           0           1           0           0           1           0           1           0           0           2
 AtZEff=  -0.0000000  -0.0000000  -0.0000000  -0.0000000  -0.0000000  -0.0000000  -0.0000000  -0.0000000  -0.0000000  -0.0000000
 NQMom=    0.0000000   0.0000000   0.0000000   0.0000000   0.0000000   0.0000000   0.0000000   0.0000000   0.0000000   2.0440000
 NMagM=    0.0000000   2.7928460   0.0000000   0.0000000   2.7928460   0.0000000   2.7928460   0.0000000   0.0000000   0.4037610
 AtZNuc=   6.0000000   1.0000000   6.0000000   6.0000000   1.0000000   6.0000000   1.0000000   6.0000000   6.0000000   7.0000000

  Atom        31          32          33          34          35          36          37          38          39          40
 IAtWgt=           1          12          14           1          12           1          12          12          12          16
 AtmWgt=   1.0078250  12.0000000  14.0030740   1.0078250  12.0000000   1.0078250  12.0000000  12.0000000  12.0000000  15.9949146
 NucSpn=           1           0           2           1           0           1           0           0           0           0
 AtZEff=  -0.0000000  -0.0000000  -0.0000000  -0.0000000  -0.0000000  -0.0000000  -0.0000000  -0.0000000  -0.0000000  -0.0000000
 NQMom=    0.0000000   0.0000000   2.0440000   0.0000000   0.0000000   0.0000000   0.0000000   0.0000000   0.0000000   0.0000000
 NMagM=    2.7928460   0.0000000   0.4037610   2.7928460   0.0000000   2.7928460   0.0000000   0.0000000   0.0000000   0.0000000
 AtZNuc=   1.0000000   6.0000000   7.0000000   1.0000000   6.0000000   1.0000000   6.0000000   6.0000000   6.0000000   8.0000000

  Atom        41          42          43          44          45          46          47          48          49          50
 IAtWgt=          12          12          14           1          12          14           1          12           1          12
 AtmWgt=  12.0000000  12.0000000  14.0030740   1.0078250  12.0000000  14.0030740   1.0078250  12.0000000   1.0078250  12.0000000
 NucSpn=           0           0           2           1           0           2           1           0           1           0
 AtZEff=  -0.0000000  -0.0000000  -0.0000000  -0.0000000  -0.0000000  -0.0000000  -0.0000000  -0.0000000  -0.0000000  -0.0000000
 NQMom=    0.0000000   0.0000000   2.0440000   0.0000000   0.0000000   2.0440000   0.0000000   0.0000000   0.0000000   0.0000000
 NMagM=    0.0000000   0.0000000   0.4037610   2.7928460   0.0000000   0.4037610   2.7928460   0.0000000   2.7928460   0.0000000
 AtZNuc=   6.0000000   6.0000000   7.0000000   1.0000000   6.0000000   7.0000000   1.0000000   6.0000000   1.0000000   6.0000000

  Atom        51          52          53          54          55          56          57          58          59          60
 IAtWgt=           1          12          12          12          14           1          12          12           1          12
 AtmWgt=   1.0078250  12.0000000  12.0000000  12.0000000  14.0030740   1.0078250  12.0000000  12.0000000   1.0078250  12.0000000
 NucSpn=           1           0           0           0           2           1           0           0           1           0
 AtZEff=  -0.0000000  -0.0000000  -0.0000000  -0.0000000  -0.0000000  -0.0000000  -0.0000000  -0.0000000  -0.0000000  -0.0000000
 NQMom=    0.0000000   0.0000000   0.0000000   0.0000000   2.0440000   0.0000000   0.0000000   0.0000000   0.0000000   0.0000000
 NMagM=    2.7928460   0.0000000   0.0000000   0.0000000   0.4037610   2.7928460   0.0000000   0.0000000   2.7928460   0.0000000
 AtZNuc=   1.0000000   6.0000000   6.0000000   6.0000000   7.0000000   1.0000000   6.0000000   6.0000000   1.0000000   6.0000000

  Atom        61          62          63          64          65          66          67          68          69          70
 IAtWgt=           1          12           1           1          12           1          12          12          12          12
 AtmWgt=   1.0078250  12.0000000   1.0078250   1.0078250  12.0000000   1.0078250  12.0000000  12.0000000  12.0000000  12.0000000
 NucSpn=           1           0           1           1           0           1           0           0           0           0
 AtZEff=  -0.0000000  -0.0000000  -0.0000000  -0.0000000  -0.0000000  -0.0000000  -0.0000000  -0.0000000  -0.0000000  -0.0000000
 NQMom=    0.0000000   0.0000000   0.0000000   0.0000000   0.0000000   0.0000000   0.0000000   0.0000000   0.0000000   0.0000000
 NMagM=    2.7928460   0.0000000   2.7928460   2.7928460   0.0000000   2.7928460   0.0000000   0.0000000   0.0000000   0.0000000
 AtZNuc=   1.0000000   6.0000000   1.0000000   1.0000000   6.0000000   1.0000000   6.0000000   6.0000000   6.0000000   6.0000000

  Atom        71          72          73          74          75          76          77          78          79          80
 IAtWgt=           1           1           1           1           1           1           1           1           1           1
 AtmWgt=   1.0078250   1.0078250   1.0078250   1.0078250   1.0078250   1.0078250   1.0078250   1.0078250   1.0078250   1.0078250
 NucSpn=           1           1           1           1           1           1           1           1           1           1
 AtZEff=  -0.0000000  -0.0000000  -0.0000000  -0.0000000  -0.0000000  -0.0000000  -0.0000000  -0.0000000  -0.0000000  -0.0000000
 NQMom=    0.0000000   0.0000000   0.0000000   0.0000000   0.0000000   0.0000000   0.0000000   0.0000000   0.0000000   0.0000000
 NMagM=    2.7928460   2.7928460   2.7928460   2.7928460   2.7928460   2.7928460   2.7928460   2.7928460   2.7928460   2.7928460
 AtZNuc=   1.0000000   1.0000000   1.0000000   1.0000000   1.0000000   1.0000000   1.0000000   1.0000000   1.0000000   1.0000000

  Atom        81          82          83          84          85          86          87          88          89          90
 IAtWgt=           1           1           1           1           1           1           1           1           1           1
 AtmWgt=   1.0078250   1.0078250   1.0078250   1.0078250   1.0078250   1.0078250   1.0078250   1.0078250   1.0078250   1.0078250
 NucSpn=           1           1           1           1           1           1           1           1           1           1
 AtZEff=  -0.0000000  -0.0000000  -0.0000000  -0.0000000  -0.0000000  -0.0000000  -0.0000000  -0.0000000  -0.0000000  -0.0000000
 NQMom=    0.0000000   0.0000000   0.0000000   0.0000000   0.0000000   0.0000000   0.0000000   0.0000000   0.0000000   0.0000000
 NMagM=    2.7928460   2.7928460   2.7928460   2.7928460   2.7928460   2.7928460   2.7928460   2.7928460   2.7928460   2.7928460
 AtZNuc=   1.0000000   1.0000000   1.0000000   1.0000000   1.0000000   1.0000000   1.0000000   1.0000000   1.0000000   1.0000000

  Atom        91          92          93          94          95          96          97          98          99         100
 IAtWgt=           1           1           1           1           1           1           1           1           1           1
 AtmWgt=   1.0078250   1.0078250   1.0078250   1.0078250   1.0078250   1.0078250   1.0078250   1.0078250   1.0078250   1.0078250
 NucSpn=           1           1           1           1           1           1           1           1           1           1
 AtZEff=  -0.0000000  -0.0000000  -0.0000000  -0.0000000  -0.0000000  -0.0000000  -0.0000000  -0.0000000  -0.0000000  -0.0000000
 NQMom=    0.0000000   0.0000000   0.0000000   0.0000000   0.0000000   0.0000000   0.0000000   0.0000000   0.0000000   0.0000000
 NMagM=    2.7928460   2.7928460   2.7928460   2.7928460   2.7928460   2.7928460   2.7928460   2.7928460   2.7928460   2.7928460
 AtZNuc=   1.0000000   1.0000000   1.0000000   1.0000000   1.0000000   1.0000000   1.0000000   1.0000000   1.0000000   1.0000000

  Atom       101         102         103         104         105         106         107         108         109         110
 IAtWgt=           1           1           1           1           1           1           1          14           1           1
 AtmWgt=   1.0078250   1.0078250   1.0078250   1.0078250   1.0078250   1.0078250   1.0078250  14.0030740   1.0078250   1.0078250
 NucSpn=           1           1           1           1           1           1           1           2           1           1
 AtZEff=  -0.0000000  -0.0000000  -0.0000000  -0.0000000  -0.0000000  -0.0000000  -0.0000000  -0.0000000  -0.0000000  -0.0000000
 NQMom=    0.0000000   0.0000000   0.0000000   0.0000000   0.0000000   0.0000000   0.0000000   2.0440000   0.0000000   0.0000000
 NMagM=    2.7928460   2.7928460   2.7928460   2.7928460   2.7928460   2.7928460   2.7928460   0.4037610   2.7928460   2.7928460
 AtZNuc=   1.0000000   1.0000000   1.0000000   1.0000000   1.0000000   1.0000000   1.0000000   7.0000000   1.0000000   1.0000000

  Atom       111
 IAtWgt=           1
 AtmWgt=   1.0078250
 NucSpn=           1
 AtZEff=  -0.0000000
 NQMom=    0.0000000
 NMagM=    2.7928460
 AtZNuc=   1.0000000
 Leave Link  101 at Sun Oct 17 21:04:29 2021, MaxMem=  7864320000 cpu:               2.8 elap:               0.1
 (Enter /apps/gaussian/g16-c01-avx/g16/l202.exe)
 Stoichiometry    C42H62N6O
 Framework group  C1[X(C42H62N6O)]
 Deg. of freedom   327
 Full point group                 C1      NOp   1
 Largest Abelian subgroup         C1      NOp   1
 Largest concise Abelian subgroup C1      NOp   1
                         Standard orientation:                         
 ---------------------------------------------------------------------
 Center     Atomic      Atomic             Coordinates (Angstroms)
 Number     Number       Type             X           Y           Z
 ---------------------------------------------------------------------
      1          6           0        5.276168   -0.848099    0.228012
      2          6           0        4.652270   -2.164646    0.318193
      3          6           0        6.657806   -0.702746    0.287344
      4          6           0        7.237860    0.563799    0.210684
      5          1           0        7.307125   -1.559706    0.397370
      6          6           0        6.429299    1.690238    0.070607
      7          6           0        5.045778    1.555948    0.001662
      8          1           0        6.884191    2.669929    0.011045
      9          6           0        4.479201    0.285626    0.082677
     10          6           0        4.182644    2.722513   -0.155027
     11          1           0        3.407264    0.178794    0.032286
     12          6           0        8.696902    0.700730    0.277992
     13          1           0        4.682564    3.706411   -0.136495
     14          1           0        5.338030   -3.027022    0.367008
     15          6           0       -1.287633   -1.498658   -0.446517
     16          6           0       -0.412550   -2.653770   -0.602958
     17          6           0       -0.733396   -0.247213   -0.200090
     18          6           0       -1.548205    0.869260   -0.047225
     19          1           0        0.336600   -0.142324   -0.127523
     20          6           0       -2.930968    0.725157   -0.146268
     21          6           0       -3.493444   -0.517772   -0.398842
     22          1           0       -3.584634    1.578297   -0.036857
     23          6           0       -2.672529   -1.626405   -0.543444
     24          6           0       -4.990240   -0.669397   -0.468326
     25          1           0       -3.114752   -2.594468   -0.733653
     26          6           0       -0.944824    2.170842    0.210412
     27          1           0       -1.635246    3.030903    0.255856
     28          6           0        1.741082   -3.593904   -0.758617
     29          6           0        2.731350   -3.520395    0.434959
     30          7           0        0.836577   -2.504808   -0.615152
     31          1           0        1.236677   -4.578402   -0.746702
     32          6           0        2.464356   -3.442126   -2.117096
     33          7           0        3.399473   -2.267810    0.345367
     34          1           0        3.422942   -4.381766    0.384936
     35          6           0        1.995698   -3.569982    1.794545
     36          1           0        2.938506   -2.456375   -2.122474
     37          6           0        3.524315   -4.520984   -2.324066
     38          6           0        1.170817   -4.844863    1.950210
     39          6           0        3.008227   -3.474012    2.935054
     40          8           0        9.479877   -0.207307    0.396637
     41          6           0        2.050526    3.670345   -0.467232
     42          6           0        0.946336    3.515686    0.613517
     43          7           0        2.943760    2.575183   -0.308676
     44          1           0        2.545576    4.651494   -0.341395
     45          6           0        1.466763    3.605070   -1.898045
     46          7           0        0.298927    2.272088    0.370187
     47          1           0        0.258936    4.380344    0.550518
     48          6           0        1.539902    3.476745    2.040833
     49          1           0        1.002034    2.621405   -2.011544
     50          6           0        0.424599    4.694003   -2.138516
     51          1           0        2.199525    2.605651    2.092405
     52          6           0        2.333581    4.739736    2.365037
     53          6           0       -7.004507    0.550341   -0.331099
     54          6           0       -6.957205   -0.578672    0.739992
     55          7           0       -5.649662    0.572366   -0.870688
     56          1           0       -7.171517    1.516437    0.168204
     57          6           0       -8.123501    0.366443   -1.377890
     58          6           0       -7.522167   -0.191031    2.109091
     59          1           0       -9.045797    0.153470   -0.827458
     60          6           0       -8.326829    1.660442   -2.166233
     61          1           0       -6.943764    0.662517    2.484298
     62          6           0       -8.991816    0.214675    2.026546
     63          1           0       -0.908638   -3.633928   -0.711067
     64          1           0        9.049390    1.750231    0.208481
     65          6           0        1.445796   -3.502467   -3.254749
     66          1           0        1.335031   -2.699311    1.835288
     67          6           0        2.591664    3.739153   -2.923675
     68          6           0        0.417249    3.302427    3.062699
     69          6           0       -7.866090   -0.794652   -2.337604
     70          6           0       -7.365116   -1.358441    3.082932
     71          1           0        2.494928   -3.490376    3.893684
     72          1           0        3.578205   -2.550807    2.867951
     73          1           0        3.700300   -4.314245    2.902406
     74          1           0        3.095160   -5.511419   -2.181686
     75          1           0        4.358057   -4.400289   -1.638488
     76          1           0        3.915732   -4.461195   -3.337313
     77          1           0        0.937845   -4.465801   -3.260343
     78          1           0        1.945092   -3.372879   -4.212179
     79          1           0        0.702040   -2.717072   -3.146699
     80          1           0        1.786257   -5.724333    1.768012
     81          1           0        0.327103   -4.860669    1.266478
     82          1           0        0.778882   -4.906272    2.963128
     83          1           0       -7.419008    1.936021   -2.699625
     84          1           0       -8.589462    2.478790   -1.499247
     85          1           0       -9.126965    1.540492   -2.893412
     86          1           0       -9.586010   -0.597781    1.613248
     87          1           0       -9.127632    1.096093    1.405459
     88          1           0       -9.369019    0.439563    3.021804
     89          1           0       -7.715648   -1.727268   -1.798783
     90          1           0       -6.989470   -0.608965   -2.956056
     91          1           0       -8.719830   -0.920627   -3.000149
     92          1           0       -6.332293   -1.692101    3.118871
     93          1           0       -7.982207   -2.195388    2.763855
     94          1           0       -7.675795   -1.062574    4.082457
     95          1           0        0.135919    4.699788   -3.187386
     96          1           0        0.829556    5.673769   -1.890245
     97          1           0       -0.471573    4.526473   -1.548264
     98          1           0        2.622557    4.732319    3.413817
     99          1           0        1.730800    5.627859    2.183111
    100          1           0        3.240699    4.806321    1.771076
    101          1           0        0.829659    3.250552    4.067679
    102          1           0       -0.136718    2.386850    2.871658
    103          1           0       -0.272709    4.143885    3.017820
    104          1           0        3.094656    4.699028   -2.814800
    105          1           0        2.188628    3.676505   -3.931737
    106          1           0        3.324043    2.945630   -2.798546
    107          1           0       -5.624430    0.720234   -1.870898
    108          7           0       -5.551008   -0.965356    0.837978
    109          1           0       -7.505264   -1.453983    0.369472
    110          1           0       -5.242212   -1.518073   -1.132678
    111          1           0       -5.090413   -0.367471    1.520946
 ---------------------------------------------------------------------
 Rotational constants (GHZ):           0.0837349           0.0295628           0.0254297
 Leave Link  202 at Sun Oct 17 21:04:30 2021, MaxMem=  7864320000 cpu:               1.4 elap:               0.1
 (Enter /apps/gaussian/g16-c01-avx/g16/l301.exe)
 Standard basis: def2TZVP (5D, 7F)
 Ernie: Thresh=  0.10000D-02 Tol=  0.10000D-05 Strict=F.
 There are  2136 symmetry adapted cartesian basis functions of A   symmetry.
 There are  1891 symmetry adapted basis functions of A   symmetry.
  1891 basis functions,  2995 primitive gaussians,  2136 cartesian basis functions
   182 alpha electrons      182 beta electrons
       nuclear repulsion energy      6418.3898482186 Hartrees.
 IExCor= 1009 DFT=T Ex+Corr=PBE1PBE ExCW=0 ScaHFX=  0.250000
 ScaDFX=  0.750000  0.750000  1.000000  1.000000 ScalE2=  1.000000  1.000000
 IRadAn=      7 IRanWt=     -1 IRanGd=            0 ICorTp=0 IEmpDi=131
 NAtoms=  111 NActive=  111 NUniq=  111 SFac= 1.00D+00 NAtFMM=   60 NAOKFM=T Big=T
 Integral buffers will be    131072 words long.
 Raffenetti 2 integral format.
 Two-electron integral symmetry is turned on.
 R6Disp:  Grimme-D3 Dispersion energy=       -0.0907575138 Hartrees.
 Nuclear repulsion after empirical dispersion term =     6418.2990907048 Hartrees.
 Leave Link  301 at Sun Oct 17 21:04:30 2021, MaxMem=  7864320000 cpu:               1.6 elap:               0.1
 (Enter /apps/gaussian/g16-c01-avx/g16/l302.exe)
 NPDir=0 NMtPBC=     1 NCelOv=     1 NCel=       1 NClECP=     1 NCelD=      1
         NCelK=      1 NCelE2=     1 NClLst=     1 CellRange=     0.0.
 One-electron integrals computed using PRISM.
 One-electron integral symmetry used in STVInt
   1 Symmetry operations used in ECPInt.
 ECPInt:  NShTT=  310078 NPrTT=  915892 LenC2=  205912 LenP2D=  397003.
 LDataN:  DoStor=T MaxTD1= 6 Len=  172
 NBasis=  1891 RedAO= T EigKep=  3.77D-06  NBF=  1891
 NBsUse=  1891 1.00D-06 EigRej= -1.00D+00 NBFU=  1891
 Precomputing XC quadrature grid using
 IXCGrd= 4 IRadAn=           7 IRanWt=          -1 IRanGd=           0 AccXCQ= 0.00D+00.
 Generated NRdTot=       0 NPtTot=           0 NUsed=           0 NTot=          32
 NSgBfM=  2006  2006  2006  2006  2006 MxSgAt=   111 MxSgA2=   111.
 Leave Link  302 at Sun Oct 17 21:04:42 2021, MaxMem=  7864320000 cpu:             362.5 elap:              11.5
 (Enter /apps/gaussian/g16-c01-avx/g16/l303.exe)
 DipDrv:  MaxL=1.
 Leave Link  303 at Sun Oct 17 21:04:43 2021, MaxMem=  7864320000 cpu:              18.3 elap:               0.7
 (Enter /apps/gaussian/g16-c01-avx/g16/l401.exe)
 ExpMin= 9.52D-02 ExpMax= 2.70D+04 ExpMxC= 9.22D+02 IAcc=3 IRadAn=         7 AccDes= 0.00D+00
 Harris functional with IExCor= 1009 and IRadAn=       7 diagonalized for initial guess.
 HarFok:  IExCor= 1009 AccDes= 0.00D+00 IRadAn=         7 IDoV= 1 UseB2=F ITyADJ=14
 ICtDFT=  3500011 ScaDFX=  1.000000  1.000000  1.000000  1.000000
 FoFCou: FMM=F IPFlag=           0 FMFlag=      100000 FMFlg1=        2001
         NFxFlg=           0 DoJE=T BraDBF=F KetDBF=T FulRan=T
         wScrn=  0.000000 ICntrl=       500 IOpCl=  0 I1Cent=   200000004 NGrid=           0
         NMat0=    1 NMatS0=      1 NMatT0=    0 NMatD0=    1 NMtDS0=    0 NMtDT0=    0
 Petite list used in FoFCou.
 Harris En= -2040.65959367178    
 JPrj=0 DoOrth=F DoCkMO=F.
 Leave Link  401 at Sun Oct 17 21:05:13 2021, MaxMem=  7864320000 cpu:             911.9 elap:              28.9
 (Enter /apps/gaussian/g16-c01-avx/g16/l508.exe)
 Integral symmetry usage will be decided dynamically.
 Tight linear equation convergence will be used.
 RPBE1PBE wavefunction.
 Linear searches until partial convergence.
 Full line searches.
 Fock matrices will be formed incrementally for  20 cycles.
 FoFJK:  IHMeth= 1 ICntrl=       0 DoSepK=F KAlg= 0 I1Cent=           0 FoldK=F
 IRaf= 630000000 NMat=       1 IRICut=       1 DoRegI=T DoRafI=F ISym2E= 1 IDoP0=0 IntGTp=1.
 FoFCou: FMM=T IPFlag=           0 FMFlag=      100000 FMFlg1=        2001
         NFxFlg=           0 DoJE=F BraDBF=F KetDBF=F FulRan=T
         wScrn=  0.000000 ICntrl=         0 IOpCl=  0 I1Cent=           0 NGrid=           0
         NMat0=    1 NMatS0=      1 NMatT0=    0 NMatD0=    1 NMtDS0=    0 NMtDT0=    0
 Petite list used in FoFCou.
 FMM levels:  10  Number of levels for PrismC:   9
 Iteration   1 EE= -2038.52311245807                                    Grad=1.708D+00 Max rot=    2.6258 deg.
 Gradient too large for Newton-Raphson -- use scaled steepest descent instead.
 Alpha Gap=     0.152 HL deriv= 1.34D-03
     ILin= 1 X=0.000D+00 Y=-2.038523112458D+03 DE= 0.00D+00 F= -6.08D+00
 RMSU=  5.62D-04    CP:  9.98D-01
     ILin= 2 X=3.000D-01 Y=-2.039698205797D+03 DE=-1.18D+00 F= -1.73D+00 OKLS=F
 RMSU=  8.80D-05    CP:  1.00D+00  1.73D+00
     ILin= 3 X=5.000D-01 Y=-2.039750763824D+03 DE=-1.23D+00 F=  1.21D+00
     Accept linear search using points  2 and  3.
     An  expanding polynomial of degree  3 produced  0.3964
 RMSU=  6.13D-08    CP:  9.99D-01  1.35D+00  3.82D-01
 Iteration   2 EE= -2039.79697498616     Delta-E=       -1.273862528091 Grad=5.100D-01 Max rot=    1.1568 deg.
 Gradient too large for Newton-Raphson -- use scaled steepest descent instead.
 Alpha Gap=     0.172 HL deriv= 2.63D-04
     ILin= 1 X=0.000D+00 Y=-2.039796974986D+03 DE= 0.00D+00 F= -2.82D-01
 RMSU=  1.13D-04    CP:  9.98D-01  1.49D+00  6.53D-01 -3.00D+00
     ILin= 2 X=3.000D-01 Y=-2.039854885562D+03 DE=-5.79D-02 F= -1.05D-01 OKLS=F
 RMSU=  8.31D-06    CP:  9.97D-01  1.64D+00  1.01D+00 -3.00D+00  2.02D+00
     ILin= 3 X=6.000D-01 Y=-2.039860046439D+03 DE=-6.31D-02 F=  7.00D-02
     Accept linear search using points  2 and  3.
     An  expanding polynomial of degree  3 produced  0.4483
 RMSU=  2.95D-08    CP:  9.98D-01  1.56D+00  8.17D-01 -3.00D+00  1.50D+00
                    CP:  3.69D-01
 Iteration   3 EE= -2039.86399044580     Delta-E=       -0.067015459637 Grad=2.578D-01 Max rot=    0.6196 deg.
 Gradient too large for Newton-Raphson -- use scaled steepest descent instead.
 Alpha Gap=     0.173 HL deriv= 1.77D-04
     ILin= 1 X=0.000D+00 Y=-2.039863990446D+03 DE= 0.00D+00 F= -6.88D-02
 RMSU=  8.49D-05    CP:  9.98D-01  1.76D+00  1.25D+00 -3.00D+00  1.77D+00
                    CP: -4.86D-01  3.00D+00
     ILin= 2 X=4.000D-01 Y=-2.039878352928D+03 DE=-1.44D-02 F= -2.95D-03 OKLS=F
 RMSU=  7.70D-06    CP:  1.00D+00  1.96D+00  1.79D+00 -3.00D+00  2.03D+00
                    CP: -1.16D+00  3.00D+00  2.01D+00
     ILin= 3 X=8.000D-01 Y=-2.039866331847D+03 DE=-2.34D-03 F=  6.31D-02
     An  expanding polynomial of degree  3 produced  0.4177
     Minimum is close to point  2 DX=  1.77D-02 DF= -2.60D-05 DXR=  4.25D-02 DFR=  1.81D-03 which will be used.
 Iteration   4 EE= -2039.87835292757     Delta-E=       -0.014362481776 Grad=1.431D-01 Max rot=    0.3658 deg.
 Gradient too large for Newton-Raphson -- use scaled steepest descent instead.
 Alpha Gap=     0.170 HL deriv= 6.71D-05
     ILin= 1 X=0.000D+00 Y=-2.039878352928D+03 DE= 0.00D+00 F= -1.74D-02
 RMSU=  2.13D-05    CP:  9.98D-01  1.81D+00  1.42D+00 -3.00D+00  2.20D+00
                    CP:  2.93D-01  3.00D+00  1.09D+00 -4.03D-01
     ILin= 2 X=4.000D-01 Y=-2.039882374723D+03 DE=-4.02D-03 F= -2.68D-03 OKLS=F
 RMSU=  8.94D-07    CP:  9.98D-01  1.87D+00  1.64D+00 -3.00D+00  2.74D+00
                    CP:  1.51D+00 -3.00D+00  1.21D+00 -8.89D-01  2.26D+00
     ILin= 3 X=9.000D-01 Y=-2.039879115971D+03 DE=-7.63D-04 F=  1.57D-02
     An  expanding polynomial of degree  3 produced  0.4730
 RMSU=  1.32D-08    CP:  9.98D-01  1.82D+00  1.45D+00 -3.00D+00  2.28D+00
                    CP:  4.54D-01  3.00D+00  1.11D+00 -4.75D-01  1.18D+00
                    CP:  7.33D-02
 Iteration   5 EE= -2039.88247199494     Delta-E=       -0.004119067364 Grad=7.599D-02 Max rot=    0.1945 deg.
 Gradient too large for Newton-Raphson -- use scaled steepest descent instead.
 Alpha Gap=     0.172 HL deriv= 6.47D-05
     ILin= 1 X=0.000D+00 Y=-2.039882471995D+03 DE= 0.00D+00 F= -6.10D-03
 RMSU=  7.76D-06    CP:  9.98D-01  1.88D+00  1.62D+00 -3.00D+00  2.38D+00
                    CP:  4.39D-01  2.34D+00  1.46D+00 -4.09D-01  1.52D+00
                    CP:  6.18D-01  3.00D+00
     ILin= 2 X=4.000D-01 Y=-2.039883659239D+03 DE=-1.19D-03 F=  1.63D-04 OKLS=T
     Accept linear search using points  1 and  2.
     An  expanding polynomial of degree  2 produced  0.2462
 RMSU=  3.17D-08    CP:  9.98D-01  1.85D+00  1.55D+00 -3.00D+00  2.34D+00
                    CP:  4.41D-01  3.00D+00  1.33D+00 -4.49D-01  1.39D+00
                    CP:  3.88D-01  3.00D+00  6.14D-01
 Iteration   6 EE= -2039.88349903341     Delta-E=       -0.001027038476 Grad=5.103D-02 Max rot=    0.1380 deg.
 Gradient too large for Newton-Raphson -- use scaled steepest descent instead.
 Alpha Gap=     0.172 HL deriv= 1.54D-05
     ILin= 1 X=0.000D+00 Y=-2.039883499033D+03 DE= 0.00D+00 F= -1.43D-03
 RMSU=  2.26D-06    CP:  9.99D-01  1.90D+00  1.69D+00 -3.00D+00  2.50D+00
                    CP:  7.63D-01 -3.00D+00  1.53D+00 -5.91D-01  1.94D+00
                    CP:  9.07D-01  3.00D+00  1.33D+00  3.00D+00
     ILin= 2 X=5.000D-01 Y=-2.039884016440D+03 DE=-5.17D-04 F= -6.41D-04 OKLS=F
 RMSU=  2.02D-07    CP:  9.99D-01  1.93D+00  1.81D+00 -3.00D+00  2.63D+00
                    CP:  1.05D+00 -3.00D+00  1.70D+00 -6.74D-01  2.39D+00
                    CP:  1.45D+00  3.00D+00  1.91D+00  3.00D+00  1.81D+00
     ILin= 3 X=9.000D-01 Y=-2.039884146596D+03 DE=-6.48D-04 F= -1.00D-05
 RMSU=  1.16D-05    CP:  9.99D-01  2.02D+00  2.12D+00 -3.00D+00  2.96D+00
                    CP:  1.90D+00 -3.00D+00  2.11D+00 -7.65D-01  3.00D+00
                    CP:  3.00D+00  3.00D+00  3.00D+00  3.00D+00  3.00D+00
                    CP:  3.00D+00
     ILin= 4 X=1.900D+00 Y=-2.039883367985D+03 DE= 1.31D-04 F=  1.57D-03
     An  expanding polynomial of degree  4 produced  0.9064
     Minimum is close to point  3 DX=  6.36D-03 DF= -3.19D-08 DXR=  7.02D-03 DFR=  4.92D-05 which will be used.
 Iteration   7 EE= -2039.88414659584     Delta-E=       -0.000647562432 Grad=9.974D-03 Max rot=    0.0441 deg.
 SCF Done:  E(RPBE1PBE) =  -2039.88414660     a.u. after    7 cycles
            Convg  =    0.9974D-02                    17 Fock formations.
              S**2 =  0.0000                  -V/T =  2.0048
 Leave Link  508 at Sun Oct 17 21:47:33 2021, MaxMem=  7864320000 cpu:           80163.2 elap:            2539.6
 (Enter /apps/gaussian/g16-c01-avx/g16/l502.exe)
 Integral symmetry usage will be decided dynamically.
 Closed shell SCF:
 Using DIIS extrapolation, IDIIS=  1040.
 NGot=  7864320000 LenX=  7855105002 LenY=  7850540370
 Requested convergence on RMS density matrix=1.00D-08 within 128 cycles.
 Requested convergence on MAX density matrix=1.00D-06.
 Requested convergence on             energy=1.00D-06.
 No special actions if energy rises.
 Fock matrices will be formed incrementally for  20 cycles.

 Cycle   1  Pass 1  IDiag  1:
 FoFJK:  IHMeth= 1 ICntrl=       0 DoSepK=F KAlg= 0 I1Cent=           0 FoldK=F
 IRaf= 630000000 NMat=       1 IRICut=       1 DoRegI=T DoRafI=F ISym2E= 0 IDoP0=0 IntGTp=1.
 FoFCou: FMM=T IPFlag=           0 FMFlag=      100000 FMFlg1=        2001
         NFxFlg=           0 DoJE=F BraDBF=F KetDBF=F FulRan=T
         wScrn=  0.000000 ICntrl=         0 IOpCl=  0 I1Cent=           0 NGrid=           0
         NMat0=    1 NMatS0=      1 NMatT0=    0 NMatD0=    1 NMtDS0=    0 NMtDT0=    0
 Symmetry not used in FoFCou.
 FMM levels:  10  Number of levels for PrismC:   9
 E= -2039.88414659582    
 DIIS: error= 2.19D-04 at cycle   1 NSaved=   1.
 NSaved= 1 IEnMin= 1 EnMin= -2039.88414659582     IErMin= 1 ErrMin= 2.19D-04
 ErrMax= 2.19D-04  0.00D+00 EMaxC= 1.00D-01 BMatC= 4.97D-05 BMatP= 4.97D-05
 IDIUse=3 WtCom= 9.98D-01 WtEn= 2.19D-03
 Coeff-Com:  0.100D+01
 Coeff-En:   0.100D+01
 Coeff:      0.100D+01
 Gap=     0.172 Goal=   None    Shift=    0.000
 RMSDP=2.41D-05 MaxDP=7.69D-03              OVMax= 3.95D-03

 Cycle   2  Pass 1  IDiag  1:
 RMSU=  2.40D-05    CP:  1.00D+00
 E= -2039.88402439490     Delta-E=        0.000122200920 Rises=F Damp=F
 DIIS: error= 4.59D-04 at cycle   2 NSaved=   2.
 NSaved= 2 IEnMin= 1 EnMin= -2039.88414659582     IErMin= 1 ErrMin= 2.19D-04
 ErrMax= 4.59D-04  0.00D+00 EMaxC= 1.00D-01 BMatC= 1.89D-04 BMatP= 4.97D-05
 IDIUse=3 WtCom= 3.18D-01 WtEn= 6.82D-01
 Coeff-Com:  0.674D+00 0.326D+00
 Coeff-En:   0.760D+00 0.240D+00
 Coeff:      0.733D+00 0.267D+00
 Gap=     0.164 Goal=   None    Shift=    0.000
 RMSDP=1.02D-05 MaxDP=4.42D-03 DE= 1.22D-04 OVMax= 2.78D-03

 Cycle   3  Pass 1  IDiag  1:
 RMSU=  9.08D-06    CP:  1.00D+00  8.29D-01
 E= -2039.88418940983     Delta-E=       -0.000165014930 Rises=F Damp=F
 DIIS: error= 4.15D-05 at cycle   3 NSaved=   3.
 NSaved= 3 IEnMin= 3 EnMin= -2039.88418940983     IErMin= 3 ErrMin= 4.15D-05
 ErrMax= 4.15D-05  0.00D+00 EMaxC= 1.00D-01 BMatC= 1.85D-06 BMatP= 4.97D-05
 IDIUse=1 WtCom= 1.00D+00 WtEn= 0.00D+00
 Coeff-Com:  0.225D-01-0.885D-01 0.107D+01
 Coeff:      0.225D-01-0.885D-01 0.107D+01
 Gap=     0.164 Goal=   None    Shift=    0.000
 RMSDP=2.23D-06 MaxDP=1.16D-03 DE=-1.65D-04 OVMax= 2.69D-04

 Cycle   4  Pass 1  IDiag  1:
 RMSU=  1.36D-06    CP:  1.00D+00  8.52D-01  1.17D+00
 E= -2039.88419049044     Delta-E=       -0.000001080616 Rises=F Damp=F
 DIIS: error= 2.04D-05 at cycle   4 NSaved=   4.
 NSaved= 4 IEnMin= 4 EnMin= -2039.88419049044     IErMin= 4 ErrMin= 2.04D-05
 ErrMax= 2.04D-05  0.00D+00 EMaxC= 1.00D-01 BMatC= 5.30D-07 BMatP= 1.85D-06
 IDIUse=1 WtCom= 1.00D+00 WtEn= 0.00D+00
 Coeff-Com: -0.431D-02-0.658D-01 0.668D+00 0.402D+00
 Coeff:     -0.431D-02-0.658D-01 0.668D+00 0.402D+00
 Gap=     0.164 Goal=   None    Shift=    0.000
 RMSDP=1.07D-06 MaxDP=6.97D-04 DE=-1.08D-06 OVMax= 1.60D-04

 Cycle   5  Pass 1  IDiag  1:
 RMSU=  5.71D-07    CP:  1.00D+00  8.56D-01  1.15D+00  3.60D-01
 E= -2039.88419091158     Delta-E=       -0.000000421134 Rises=F Damp=F
 DIIS: error= 5.71D-06 at cycle   5 NSaved=   5.
 NSaved= 5 IEnMin= 5 EnMin= -2039.88419091158     IErMin= 5 ErrMin= 5.71D-06
 ErrMax= 5.71D-06  0.00D+00 EMaxC= 1.00D-01 BMatC= 3.46D-08 BMatP= 5.30D-07
 IDIUse=1 WtCom= 1.00D+00 WtEn= 0.00D+00
 Coeff-Com: -0.605D-02-0.200D-01 0.168D+00 0.225D+00 0.633D+00
 Coeff:     -0.605D-02-0.200D-01 0.168D+00 0.225D+00 0.633D+00
 Gap=     0.164 Goal=   None    Shift=    0.000
 RMSDP=2.34D-07 MaxDP=1.41D-04 DE=-4.21D-07 OVMax= 3.59D-05

 Cycle   6  Pass 1  IDiag  1:
 RMSU=  1.29D-07    CP:  1.00D+00  8.56D-01  1.16D+00  4.44D-01  7.82D-01
 E= -2039.88419093742     Delta-E=       -0.000000025846 Rises=F Damp=F
 DIIS: error= 1.14D-06 at cycle   6 NSaved=   6.
 NSaved= 6 IEnMin= 6 EnMin= -2039.88419093742     IErMin= 6 ErrMin= 1.14D-06
 ErrMax= 1.14D-06  0.00D+00 EMaxC= 1.00D-01 BMatC= 2.08D-09 BMatP= 3.46D-08
 IDIUse=1 WtCom= 1.00D+00 WtEn= 0.00D+00
 Coeff-Com: -0.301D-02-0.620D-02 0.480D-01 0.938D-01 0.319D+00 0.548D+00
 Coeff:     -0.301D-02-0.620D-02 0.480D-01 0.938D-01 0.319D+00 0.548D+00
 Gap=     0.164 Goal=   None    Shift=    0.000
 RMSDP=4.26D-08 MaxDP=1.75D-05 DE=-2.58D-08 OVMax= 1.27D-05

 Cycle   7  Pass 1  IDiag  1:
 RMSU=  2.61D-08    CP:  1.00D+00  8.57D-01  1.16D+00  4.46D-01  8.05D-01
                    CP:  9.11D-01
 E= -2039.88419093927     Delta-E=       -0.000000001848 Rises=F Damp=F
 DIIS: error= 2.54D-07 at cycle   7 NSaved=   7.
 NSaved= 7 IEnMin= 7 EnMin= -2039.88419093927     IErMin= 7 ErrMin= 2.54D-07
 ErrMax= 2.54D-07  0.00D+00 EMaxC= 1.00D-01 BMatC= 1.98D-10 BMatP= 2.08D-09
 IDIUse=1 WtCom= 1.00D+00 WtEn= 0.00D+00
 Coeff-Com: -0.615D-03-0.222D-03 0.964D-03 0.166D-01 0.737D-01 0.264D+00
 Coeff-Com:  0.645D+00
 Coeff:     -0.615D-03-0.222D-03 0.964D-03 0.166D-01 0.737D-01 0.264D+00
 Coeff:      0.645D+00
 Gap=     0.164 Goal=   None    Shift=    0.000
 RMSDP=1.81D-08 MaxDP=6.88D-06 DE=-1.85D-09 OVMax= 4.54D-06

 Cycle   8  Pass 1  IDiag  1:
 RMSU=  1.12D-08    CP:  1.00D+00  8.57D-01  1.16D+00  4.46D-01  8.21D-01
                    CP:  9.40D-01  7.81D-01
 E= -2039.88419093947     Delta-E=       -0.000000000200 Rises=F Damp=F
 DIIS: error= 2.44D-07 at cycle   8 NSaved=   8.
 NSaved= 8 IEnMin= 8 EnMin= -2039.88419093947     IErMin= 8 ErrMin= 2.44D-07
 ErrMax= 2.44D-07  0.00D+00 EMaxC= 1.00D-01 BMatC= 4.41D-11 BMatP= 1.98D-10
 IDIUse=1 WtCom= 1.00D+00 WtEn= 0.00D+00
 Coeff-Com: -0.466D-04 0.517D-03-0.417D-02 0.601D-03 0.132D-01 0.101D+00
 Coeff-Com:  0.388D+00 0.500D+00
 Coeff:     -0.466D-04 0.517D-03-0.417D-02 0.601D-03 0.132D-01 0.101D+00
 Coeff:      0.388D+00 0.500D+00
 Gap=     0.164 Goal=   None    Shift=    0.000
 RMSDP=5.34D-09 MaxDP=1.41D-06 DE=-2.00D-10 OVMax= 1.85D-06

 Cycle   9  Pass 1  IDiag  1:
 RMSU=  4.19D-09    CP:  1.00D+00  8.57D-01  1.16D+00  4.46D-01  8.22D-01
                    CP:  9.41D-01  8.44D-01  8.14D-01
 E= -2039.88419093953     Delta-E=       -0.000000000060 Rises=F Damp=F
 DIIS: error= 3.89D-08 at cycle   9 NSaved=   9.
 NSaved= 9 IEnMin= 9 EnMin= -2039.88419093953     IErMin= 9 ErrMin= 3.89D-08
 ErrMax= 3.89D-08  0.00D+00 EMaxC= 1.00D-01 BMatC= 5.16D-12 BMatP= 4.41D-11
 IDIUse=1 WtCom= 1.00D+00 WtEn= 0.00D+00
 Coeff-Com:  0.819D-04 0.365D-03-0.268D-02-0.283D-02-0.599D-02 0.841D-02
 Coeff-Com:  0.109D+00 0.290D+00 0.604D+00
 Coeff:      0.819D-04 0.365D-03-0.268D-02-0.283D-02-0.599D-02 0.841D-02
 Coeff:      0.109D+00 0.290D+00 0.604D+00
 Gap=     0.164 Goal=   None    Shift=    0.000
 RMSDP=2.68D-09 MaxDP=1.05D-06 DE=-6.00D-11 OVMax= 5.00D-07

 Cycle  10  Pass 1  IDiag  1:
 RMSU=  1.74D-09    CP:  1.00D+00  8.57D-01  1.16D+00  4.46D-01  8.23D-01
                    CP:  9.47D-01  8.71D-01  8.65D-01  7.38D-01
 E= -2039.88419093936     Delta-E=        0.000000000173 Rises=F Damp=F
 DIIS: error= 1.09D-08 at cycle  10 NSaved=  10.
 NSaved=10 IEnMin= 9 EnMin= -2039.88419093953     IErMin=10 ErrMin= 1.09D-08
 ErrMax= 1.09D-08  0.00D+00 EMaxC= 1.00D-01 BMatC= 5.73D-13 BMatP= 5.16D-12
 IDIUse=1 WtCom= 1.00D+00 WtEn= 0.00D+00
 Coeff-Com:  0.403D-04 0.120D-03-0.794D-03-0.147D-02-0.463D-02-0.906D-02
 Coeff-Com:  0.794D-02 0.924D-01 0.318D+00 0.598D+00
 Coeff:      0.403D-04 0.120D-03-0.794D-03-0.147D-02-0.463D-02-0.906D-02
 Coeff:      0.794D-02 0.924D-01 0.318D+00 0.598D+00
 Gap=     0.164 Goal=   None    Shift=    0.000
 RMSDP=1.05D-09 MaxDP=3.51D-07 DE= 1.73D-10 OVMax= 2.12D-07

 SCF Done:  E(RPBE1PBE) =  -2039.88419094     A.U. after   10 cycles
            NFock= 10  Conv=0.11D-08     -V/T= 2.0048
 KE= 2.030204748713D+03 PE=-1.757649631366D+04 EE= 7.088108283300D+03
 Leave Link  502 at Sun Oct 17 22:12:39 2021, MaxMem=  7864320000 cpu:           47495.4 elap:            1505.6
 (Enter /apps/gaussian/g16-c01-avx/g16/l508.exe)
 QCSCF skips out because SCF is already converged.
 Leave Link  508 at Sun Oct 17 22:12:39 2021, MaxMem=  7864320000 cpu:               0.0 elap:               0.0
 (Enter /apps/gaussian/g16-c01-avx/g16/l601.exe)
 Copying SCF densities to generalized density rwf, IOpCl= 0 IROHF=0.
 Hyperfine terms turned off by default for NAtoms > 100.

 **********************************************************************

            Population analysis using the SCF Density.

 **********************************************************************

 Orbital symmetries:
       Occupied  (A) (A) (A) (A) (A) (A) (A) (A) (A) (A) (A) (A)
                 (A) (A) (A) (A) (A) (A) (A) (A) (A) (A) (A) (A)
                 (A) (A) (A) (A) (A) (A) (A) (A) (A) (A) (A) (A)
                 (A) (A) (A) (A) (A) (A) (A) (A) (A) (A) (A) (A)
                 (A) (A) (A) (A) (A) (A) (A) (A) (A) (A) (A) (A)
                 (A) (A) (A) (A) (A) (A) (A) (A) (A) (A) (A) (A)
                 (A) (A) (A) (A) (A) (A) (A) (A) (A) (A) (A) (A)
                 (A) (A) (A) (A) (A) (A) (A) (A) (A) (A) (A) (A)
                 (A) (A) (A) (A) (A) (A) (A) (A) (A) (A) (A) (A)
                 (A) (A) (A) (A) (A) (A) (A) (A) (A) (A) (A) (A)
                 (A) (A) (A) (A) (A) (A) (A) (A) (A) (A) (A) (A)
                 (A) (A) (A) (A) (A) (A) (A) (A) (A) (A) (A) (A)
                 (A) (A) (A) (A) (A) (A) (A) (A) (A) (A) (A) (A)
                 (A) (A) (A) (A) (A) (A) (A) (A) (A) (A) (A) (A)
                 (A) (A) (A) (A) (A) (A) (A) (A) (A) (A) (A) (A)
                 (A) (A)
       Virtual   (A) (A) (A) (A) (A) (A) (A) (A) (A) (A) (A) (A)
                 (A) (A) (A) (A) (A) (A) (A) (A) (A) (A) (A) (A)
                 (A) (A) (A) (A) (A) (A) (A) (A) (A) (A) (A) (A)
                 (A) (A) (A) (A) (A) (A) (A) (A) (A) (A) (A) (A)
                 (A) (A) (A) (A) (A) (A) (A) (A) (A) (A) (A) (A)
                 (A) (A) (A) (A) (A) (A) (A) (A) (A) (A) (A) (A)
                 (A) (A) (A) (A) (A) (A) (A) (A) (A) (A) (A) (A)
                 (A) (A) (A) (A) (A) (A) (A) (A) (A) (A) (A) (A)
                 (A) (A) (A) (A) (A) (A) (A) (A) (A) (A) (A) (A)
                 (A) (A) (A) (A) (A) (A) (A) (A) (A) (A) (A) (A)
                 (A) (A) (A) (A) (A) (A) (A) (A) (A) (A) (A) (A)
                 (A) (A) (A) (A) (A) (A) (A) (A) (A) (A) (A) (A)
                 (A) (A) (A) (A) (A) (A) (A) (A) (A) (A) (A) (A)
                 (A) (A) (A) (A) (A) (A) (A) (A) (A) (A) (A) (A)
                 (A) (A) (A) (A) (A) (A) (A) (A) (A) (A) (A) (A)
                 (A) (A) (A) (A) (A) (A) (A) (A) (A) (A) (A) (A)
                 (A) (A) (A) (A) (A) (A) (A) (A) (A) (A) (A) (A)
                 (A) (A) (A) (A) (A) (A) (A) (A) (A) (A) (A) (A)
                 (A) (A) (A) (A) (A) (A) (A) (A) (A) (A) (A) (A)
                 (A) (A) (A) (A) (A) (A) (A) (A) (A) (A) (A) (A)
                 (A) (A) (A) (A) (A) (A) (A) (A) (A) (A) (A) (A)
                 (A) (A) (A) (A) (A) (A) (A) (A) (A) (A) (A) (A)
                 (A) (A) (A) (A) (A) (A) (A) (A) (A) (A) (A) (A)
                 (A) (A) (A) (A) (A) (A) (A) (A) (A) (A) (A) (A)
                 (A) (A) (A) (A) (A) (A) (A) (A) (A) (A) (A) (A)
                 (A) (A) (A) (A) (A) (A) (A) (A) (A) (A) (A) (A)
                 (A) (A) (A) (A) (A) (A) (A) (A) (A) (A) (A) (A)
                 (A) (A) (A) (A) (A) (A) (A) (A) (A) (A) (A) (A)
                 (A) (A) (A) (A) (A) (A) (A) (A) (A) (A) (A) (A)
                 (A) (A) (A) (A) (A) (A) (A) (A) (A) (A) (A) (A)
                 (A) (A) (A) (A) (A) (A) (A) (A) (A) (A) (A) (A)
                 (A) (A) (A) (A) (A) (A) (A) (A) (A) (A) (A) (A)
                 (A) (A) (A) (A) (A) (A) (A) (A) (A) (A) (A) (A)
                 (A) (A) (A) (A) (A) (A) (A) (A) (A) (A) (A) (A)
                 (A) (A) (A) (A) (A) (A) (A) (A) (A) (A) (A) (A)
                 (A) (A) (A) (A) (A) (A) (A) (A) (A) (A) (A) (A)
                 (A) (A) (A) (A) (A) (A) (A) (A) (A) (A) (A) (A)
                 (A) (A) (A) (A) (A) (A) (A) (A) (A) (A) (A) (A)
                 (A) (A) (A) (A) (A) (A) (A) (A) (A) (A) (A) (A)
                 (A) (A) (A) (A) (A) (A) (A) (A) (A) (A) (A) (A)
                 (A) (A) (A) (A) (A) (A) (A) (A) (A) (A) (A) (A)
                 (A) (A) (A) (A) (A) (A) (A) (A) (A) (A) (A) (A)
                 (A) (A) (A) (A) (A) (A) (A) (A) (A) (A) (A) (A)
                 (A) (A) (A) (A) (A) (A) (A) (A) (A) (A) (A) (A)
                 (A) (A) (A) (A) (A) (A) (A) (A) (A) (A) (A) (A)
                 (A) (A) (A) (A) (A) (A) (A) (A) (A) (A) (A) (A)
                 (A) (A) (A) (A) (A) (A) (A) (A) (A) (A) (A) (A)
                 (A) (A) (A) (A) (A) (A) (A) (A) (A) (A) (A) (A)
                 (A) (A) (A) (A) (A) (A) (A) (A) (A) (A) (A) (A)
                 (A) (A) (A) (A) (A) (A) (A) (A) (A) (A) (A) (A)
                 (A) (A) (A) (A) (A) (A) (A) (A) (A) (A) (A) (A)
                 (A) (A) (A) (A) (A) (A) (A) (A) (A) (A) (A) (A)
                 (A) (A) (A) (A) (A) (A) (A) (A) (A) (A) (A) (A)
                 (A) (A) (A) (A) (A) (A) (A) (A) (A) (A) (A) (A)
                 (A) (A) (A) (A) (A) (A) (A) (A) (A) (A) (A) (A)
                 (A) (A) (A) (A) (A) (A) (A) (A) (A) (A) (A) (A)
                 (A) (A) (A) (A) (A) (A) (A) (A) (A) (A) (A) (A)
                 (A) (A) (A) (A) (A) (A) (A) (A) (A) (A) (A) (A)
                 (A) (A) (A) (A) (A) (A) (A) (A) (A) (A) (A) (A)
                 (A) (A) (A) (A) (A) (A) (A) (A) (A) (A) (A) (A)
                 (A) (A) (A) (A) (A) (A) (A) (A) (A) (A) (A) (A)
                 (A) (A) (A) (A) (A) (A) (A) (A) (A) (A) (A) (A)
                 (A) (A) (A) (A) (A) (A) (A) (A) (A) (A) (A) (A)
                 (A) (A) (A) (A) (A) (A) (A) (A) (A) (A) (A) (A)
                 (A) (A) (A) (A) (A) (A) (A) (A) (A) (A) (A) (A)
                 (A) (A) (A) (A) (A) (A) (A) (A) (A) (A) (A) (A)
                 (A) (A) (A) (A) (A) (A) (A) (A) (A) (A) (A) (A)
                 (A) (A) (A) (A) (A) (A) (A) (A) (A) (A) (A) (A)
                 (A) (A) (A) (A) (A) (A) (A) (A) (A) (A) (A) (A)
                 (A) (A) (A) (A) (A) (A) (A) (A) (A) (A) (A) (A)
                 (A) (A) (A) (A) (A) (A) (A) (A) (A) (A) (A) (A)
                 (A) (A) (A) (A) (A) (A) (A) (A) (A) (A) (A) (A)
                 (A) (A) (A) (A) (A) (A) (A) (A) (A) (A) (A) (A)
                 (A) (A) (A) (A) (A) (A) (A) (A) (A) (A) (A) (A)
                 (A) (A) (A) (A) (A) (A) (A) (A) (A) (A) (A) (A)
                 (A) (A) (A) (A) (A) (A) (A) (A) (A) (A) (A) (A)
                 (A) (A) (A) (A) (A) (A) (A) (A) (A) (A) (A) (A)
                 (A) (A) (A) (A) (A) (A) (A) (A) (A) (A) (A) (A)
                 (A) (A) (A) (A) (A) (A) (A) (A) (A) (A) (A) (A)
                 (A) (A) (A) (A) (A) (A) (A) (A) (A) (A) (A) (A)
                 (A) (A) (A) (A) (A) (A) (A) (A) (A) (A) (A) (A)
                 (A) (A) (A) (A) (A) (A) (A) (A) (A) (A) (A) (A)
                 (A) (A) (A) (A) (A) (A) (A) (A) (A) (A) (A) (A)
                 (A) (A) (A) (A) (A) (A) (A) (A) (A) (A) (A) (A)
                 (A) (A) (A) (A) (A) (A) (A) (A) (A) (A) (A) (A)
                 (A) (A) (A) (A) (A) (A) (A) (A) (A) (A) (A) (A)
                 (A) (A) (A) (A) (A) (A) (A) (A) (A) (A) (A) (A)
                 (A) (A) (A) (A) (A) (A) (A) (A) (A) (A) (A) (A)
                 (A) (A) (A) (A) (A) (A) (A) (A) (A) (A) (A) (A)
                 (A) (A) (A) (A) (A) (A) (A) (A) (A) (A) (A) (A)
                 (A) (A) (A) (A) (A) (A) (A) (A) (A) (A) (A) (A)
                 (A) (A) (A) (A) (A) (A) (A) (A) (A) (A) (A) (A)
                 (A) (A) (A) (A) (A) (A) (A) (A) (A) (A) (A) (A)
                 (A) (A) (A) (A) (A) (A) (A) (A) (A) (A) (A) (A)
                 (A) (A) (A) (A) (A) (A) (A) (A) (A) (A) (A) (A)
                 (A) (A) (A) (A) (A) (A) (A) (A) (A) (A) (A) (A)
                 (A) (A) (A) (A) (A) (A) (A) (A) (A) (A) (A) (A)
                 (A) (A) (A) (A) (A) (A) (A) (A) (A) (A) (A) (A)
                 (A) (A) (A) (A) (A) (A) (A) (A) (A) (A) (A) (A)
                 (A) (A) (A) (A) (A) (A) (A) (A) (A) (A) (A) (A)
                 (A) (A) (A) (A) (A) (A) (A) (A) (A) (A) (A) (A)
                 (A) (A) (A) (A) (A) (A) (A) (A) (A) (A) (A) (A)
                 (A) (A) (A) (A) (A) (A) (A) (A) (A) (A) (A) (A)
                 (A) (A) (A) (A) (A) (A) (A) (A) (A) (A) (A) (A)
                 (A) (A) (A) (A) (A) (A) (A) (A) (A) (A) (A) (A)
                 (A) (A) (A) (A) (A) (A) (A) (A) (A) (A) (A) (A)
                 (A) (A) (A) (A) (A) (A) (A) (A) (A) (A) (A) (A)
                 (A) (A) (A) (A) (A) (A) (A) (A) (A) (A) (A) (A)
                 (A) (A) (A) (A) (A) (A) (A) (A) (A) (A) (A) (A)
                 (A) (A) (A) (A) (A) (A) (A) (A) (A) (A) (A) (A)
                 (A) (A) (A) (A) (A) (A) (A) (A) (A) (A) (A) (A)
                 (A) (A) (A) (A) (A) (A) (A) (A) (A) (A) (A) (A)
                 (A) (A) (A) (A) (A) (A) (A) (A) (A) (A) (A) (A)
                 (A) (A) (A) (A) (A) (A) (A) (A) (A) (A) (A) (A)
                 (A) (A) (A) (A) (A) (A) (A) (A) (A) (A) (A) (A)
                 (A) (A) (A) (A) (A) (A) (A) (A) (A) (A) (A) (A)
                 (A) (A) (A) (A) (A) (A) (A) (A) (A) (A) (A) (A)
                 (A) (A) (A) (A) (A) (A) (A) (A) (A) (A) (A) (A)
                 (A) (A) (A) (A) (A) (A) (A) (A) (A) (A) (A) (A)
                 (A) (A) (A) (A) (A) (A) (A) (A) (A) (A) (A) (A)
                 (A) (A) (A) (A) (A) (A) (A) (A) (A) (A) (A) (A)
                 (A) (A) (A) (A) (A) (A) (A) (A) (A) (A) (A) (A)
                 (A) (A) (A) (A) (A) (A) (A) (A) (A) (A) (A) (A)
                 (A) (A) (A) (A) (A) (A) (A) (A) (A) (A) (A) (A)
                 (A) (A) (A) (A) (A) (A) (A) (A) (A) (A) (A) (A)
                 (A) (A) (A) (A) (A) (A) (A) (A) (A) (A) (A) (A)
                 (A) (A) (A) (A) (A) (A) (A) (A) (A) (A) (A) (A)
                 (A) (A) (A) (A) (A) (A) (A) (A) (A) (A) (A) (A)
                 (A) (A) (A) (A) (A) (A) (A) (A) (A) (A) (A) (A)
                 (A) (A) (A) (A) (A) (A) (A) (A) (A) (A) (A) (A)
                 (A) (A) (A) (A) (A) (A) (A) (A) (A) (A) (A) (A)
                 (A) (A) (A) (A) (A) (A) (A) (A) (A) (A) (A) (A)
                 (A) (A) (A) (A) (A) (A) (A) (A) (A) (A) (A) (A)
                 (A) (A) (A) (A) (A) (A) (A) (A) (A) (A) (A) (A)
                 (A) (A) (A) (A) (A) (A) (A) (A) (A) (A) (A) (A)
                 (A) (A) (A) (A) (A) (A) (A) (A) (A) (A) (A) (A)
                 (A) (A) (A) (A) (A) (A) (A) (A) (A) (A) (A) (A)
                 (A) (A) (A) (A) (A) (A) (A) (A) (A) (A) (A) (A)
                 (A) (A) (A) (A) (A) (A) (A) (A) (A) (A) (A) (A)
                 (A) (A) (A) (A) (A) (A) (A) (A) (A) (A) (A) (A)
                 (A) (A) (A) (A) (A) (A) (A) (A) (A) (A) (A) (A)
                 (A) (A) (A) (A) (A) (A) (A) (A) (A) (A) (A) (A)
                 (A) (A) (A) (A) (A)
 The electronic state is 1-A.
 Alpha  occ. eigenvalues --  -19.20215 -14.37394 -14.37274 -14.37052 -14.36775
 Alpha  occ. eigenvalues --  -14.36718 -14.36692 -10.30886 -10.27799 -10.26685
 Alpha  occ. eigenvalues --  -10.26474 -10.25975 -10.25973 -10.25132 -10.25067
 Alpha  occ. eigenvalues --  -10.24977 -10.24973 -10.24889 -10.24884 -10.24753
 Alpha  occ. eigenvalues --  -10.24575 -10.24514 -10.24471 -10.24416 -10.23575
 Alpha  occ. eigenvalues --  -10.23316 -10.23198 -10.23157 -10.23113 -10.23088
 Alpha  occ. eigenvalues --  -10.23067 -10.22660 -10.22214 -10.22143 -10.22050
 Alpha  occ. eigenvalues --  -10.22047 -10.21790 -10.21399 -10.21250 -10.21199
 Alpha  occ. eigenvalues --  -10.20613 -10.20596 -10.20454 -10.20417 -10.20407
 Alpha  occ. eigenvalues --  -10.20092 -10.19954 -10.19889 -10.19883  -1.07881
 Alpha  occ. eigenvalues --   -0.99570  -0.97453  -0.97251  -0.95274  -0.94891
 Alpha  occ. eigenvalues --   -0.90495  -0.89132  -0.88717  -0.84552  -0.84479
 Alpha  occ. eigenvalues --   -0.83484  -0.82302  -0.82032  -0.81421  -0.80292
 Alpha  occ. eigenvalues --   -0.80083  -0.79230  -0.78974  -0.74842  -0.74392
 Alpha  occ. eigenvalues --   -0.73196  -0.71399  -0.70910  -0.70591  -0.70426
 Alpha  occ. eigenvalues --   -0.70379  -0.70241  -0.69067  -0.68843  -0.68174
 Alpha  occ. eigenvalues --   -0.66397  -0.65219  -0.64679  -0.64204  -0.63321
 Alpha  occ. eigenvalues --   -0.63043  -0.60151  -0.58774  -0.58419  -0.58111
 Alpha  occ. eigenvalues --   -0.58019  -0.57885  -0.57425  -0.57059  -0.56712
 Alpha  occ. eigenvalues --   -0.54812  -0.54119  -0.53589  -0.52695  -0.52489
 Alpha  occ. eigenvalues --   -0.50980  -0.50316  -0.50158  -0.49361  -0.49260
 Alpha  occ. eigenvalues --   -0.48691  -0.48365  -0.48282  -0.47728  -0.47641
 Alpha  occ. eigenvalues --   -0.47145  -0.46857  -0.46679  -0.46279  -0.45819
 Alpha  occ. eigenvalues --   -0.45594  -0.45245  -0.44890  -0.44748  -0.44687
 Alpha  occ. eigenvalues --   -0.44051  -0.43799  -0.43589  -0.43464  -0.42984
 Alpha  occ. eigenvalues --   -0.42377  -0.42009  -0.41740  -0.41644  -0.41449
 Alpha  occ. eigenvalues --   -0.41296  -0.41097  -0.40807  -0.40358  -0.40193
 Alpha  occ. eigenvalues --   -0.40055  -0.39865  -0.39675  -0.39550  -0.39484
 Alpha  occ. eigenvalues --   -0.39287  -0.38980  -0.38718  -0.38483  -0.38235
 Alpha  occ. eigenvalues --   -0.38010  -0.37672  -0.37420  -0.37083  -0.36812
 Alpha  occ. eigenvalues --   -0.36654  -0.36280  -0.35720  -0.35214  -0.35120
 Alpha  occ. eigenvalues --   -0.34949  -0.34668  -0.34575  -0.34461  -0.34257
 Alpha  occ. eigenvalues --   -0.34138  -0.34009  -0.33948  -0.33872  -0.33791
 Alpha  occ. eigenvalues --   -0.32418  -0.32293  -0.32197  -0.32022  -0.31546
 Alpha  occ. eigenvalues --   -0.30077  -0.27688  -0.27495  -0.27332  -0.26620
 Alpha  occ. eigenvalues --   -0.26327  -0.25590  -0.25231  -0.24749  -0.24711
 Alpha  occ. eigenvalues --   -0.24606  -0.23795
 Alpha virt. eigenvalues --   -0.07357  -0.05520  -0.04483  -0.04377  -0.02442
 Alpha virt. eigenvalues --    0.03055   0.03228   0.04050   0.04323   0.04478
 Alpha virt. eigenvalues --    0.04547   0.04987   0.05514   0.05658   0.05705
 Alpha virt. eigenvalues --    0.05930   0.06083   0.06271   0.06709   0.06981
 Alpha virt. eigenvalues --    0.07187   0.07464   0.07993   0.08074   0.08245
 Alpha virt. eigenvalues --    0.08490   0.08650   0.08929   0.09307   0.09487
 Alpha virt. eigenvalues --    0.09745   0.09862   0.10125   0.10302   0.10531
 Alpha virt. eigenvalues --    0.10587   0.10742   0.10909   0.11062   0.11172
 Alpha virt. eigenvalues --    0.11453   0.11755   0.12085   0.12118   0.12172
 Alpha virt. eigenvalues --    0.12302   0.12612   0.12900   0.13096   0.13388
 Alpha virt. eigenvalues --    0.13624   0.13690   0.13978   0.14251   0.14344
 Alpha virt. eigenvalues --    0.14460   0.14727   0.14951   0.15183   0.15297
 Alpha virt. eigenvalues --    0.15410   0.15677   0.15818   0.15999   0.16035
 Alpha virt. eigenvalues --    0.16337   0.16347   0.16436   0.16512   0.16711
 Alpha virt. eigenvalues --    0.16773   0.16785   0.16924   0.17376   0.17459
 Alpha virt. eigenvalues --    0.17788   0.18202   0.18378   0.18495   0.18712
 Alpha virt. eigenvalues --    0.18795   0.19011   0.19283   0.19337   0.19691
 Alpha virt. eigenvalues --    0.19996   0.20155   0.20392   0.20455   0.20583
 Alpha virt. eigenvalues --    0.20660   0.20779   0.21140   0.21413   0.21704
 Alpha virt. eigenvalues --    0.21840   0.22029   0.22178   0.22366   0.22470
 Alpha virt. eigenvalues --    0.22728   0.22962   0.23087   0.23165   0.23627
 Alpha virt. eigenvalues --    0.23670   0.24118   0.24334   0.24554   0.24680
 Alpha virt. eigenvalues --    0.24954   0.25041   0.25293   0.25432   0.25548
 Alpha virt. eigenvalues --    0.25716   0.25802   0.26207   0.26533   0.26603
 Alpha virt. eigenvalues --    0.26711   0.27100   0.27311   0.27537   0.27724
 Alpha virt. eigenvalues --    0.28026   0.28208   0.28362   0.28664   0.28781
 Alpha virt. eigenvalues --    0.28890   0.29117   0.29359   0.29543   0.29589
 Alpha virt. eigenvalues --    0.29744   0.29956   0.30064   0.30298   0.30369
 Alpha virt. eigenvalues --    0.30507   0.30792   0.31049   0.31269   0.31407
 Alpha virt. eigenvalues --    0.31582   0.32119   0.32262   0.32429   0.32696
 Alpha virt. eigenvalues --    0.32880   0.33373   0.33478   0.33681   0.33862
 Alpha virt. eigenvalues --    0.34103   0.34302   0.34403   0.34603   0.34886
 Alpha virt. eigenvalues --    0.35181   0.35249   0.35368   0.35685   0.35829
 Alpha virt. eigenvalues --    0.35916   0.36122   0.36380   0.36611   0.36766
 Alpha virt. eigenvalues --    0.37387   0.37518   0.37614   0.37964   0.38198
 Alpha virt. eigenvalues --    0.38677   0.38762   0.38923   0.39023   0.39360
 Alpha virt. eigenvalues --    0.39671   0.39805   0.39956   0.40074   0.40344
 Alpha virt. eigenvalues --    0.40438   0.40629   0.40688   0.40901   0.41096
 Alpha virt. eigenvalues --    0.41198   0.41244   0.41466   0.41777   0.41846
 Alpha virt. eigenvalues --    0.42060   0.42292   0.42480   0.42661   0.42721
 Alpha virt. eigenvalues --    0.42993   0.43313   0.43500   0.43617   0.43845
 Alpha virt. eigenvalues --    0.43991   0.44052   0.44216   0.44352   0.44515
 Alpha virt. eigenvalues --    0.44663   0.44850   0.44993   0.45059   0.45192
 Alpha virt. eigenvalues --    0.45321   0.45593   0.45753   0.46042   0.46137
 Alpha virt. eigenvalues --    0.46261   0.46365   0.46477   0.46595   0.46664
 Alpha virt. eigenvalues --    0.46886   0.46943   0.47074   0.47121   0.47547
 Alpha virt. eigenvalues --    0.47669   0.47840   0.47974   0.48081   0.48211
 Alpha virt. eigenvalues --    0.48259   0.48423   0.48520   0.48583   0.48690
 Alpha virt. eigenvalues --    0.48787   0.49045   0.49127   0.49250   0.49354
 Alpha virt. eigenvalues --    0.49575   0.49720   0.49796   0.49893   0.50063
 Alpha virt. eigenvalues --    0.50218   0.50257   0.50452   0.50972   0.50990
 Alpha virt. eigenvalues --    0.51184   0.51487   0.51665   0.51964   0.52205
 Alpha virt. eigenvalues --    0.52401   0.52747   0.52901   0.52977   0.53063
 Alpha virt. eigenvalues --    0.53407   0.53867   0.54034   0.54157   0.54366
 Alpha virt. eigenvalues --    0.54514   0.54789   0.54919   0.55066   0.55390
 Alpha virt. eigenvalues --    0.55678   0.55914   0.56174   0.56397   0.56723
 Alpha virt. eigenvalues --    0.56800   0.57108   0.57178   0.57264   0.57359
 Alpha virt. eigenvalues --    0.57594   0.57668   0.58080   0.58256   0.58425
 Alpha virt. eigenvalues --    0.58507   0.58780   0.59141   0.59696   0.59847
 Alpha virt. eigenvalues --    0.59928   0.60033   0.60295   0.60413   0.60774
 Alpha virt. eigenvalues --    0.61273   0.61477   0.61517   0.61823   0.61973
 Alpha virt. eigenvalues --    0.62225   0.62287   0.62626   0.63055   0.63411
 Alpha virt. eigenvalues --    0.63651   0.63807   0.63835   0.64388   0.64573
 Alpha virt. eigenvalues --    0.64599   0.64783   0.65155   0.65489   0.65890
 Alpha virt. eigenvalues --    0.66054   0.66543   0.66784   0.67226   0.67294
 Alpha virt. eigenvalues --    0.67614   0.68046   0.68526   0.69160   0.69454
 Alpha virt. eigenvalues --    0.69681   0.69735   0.70008   0.70188   0.70427
 Alpha virt. eigenvalues --    0.70727   0.71018   0.71223   0.71328   0.71600
 Alpha virt. eigenvalues --    0.72062   0.72265   0.72459   0.72752   0.72937
 Alpha virt. eigenvalues --    0.73017   0.73317   0.73669   0.74069   0.74423
 Alpha virt. eigenvalues --    0.74630   0.74776   0.74933   0.75494   0.75972
 Alpha virt. eigenvalues --    0.76098   0.76601   0.76779   0.77381   0.77609
 Alpha virt. eigenvalues --    0.77748   0.78041   0.78209   0.78508   0.78902
 Alpha virt. eigenvalues --    0.79203   0.79792   0.79806   0.80006   0.80363
 Alpha virt. eigenvalues --    0.80500   0.80888   0.81184   0.81449   0.81722
 Alpha virt. eigenvalues --    0.81979   0.82282   0.82355   0.82772   0.83090
 Alpha virt. eigenvalues --    0.83597   0.84143   0.84403   0.84677   0.84827
 Alpha virt. eigenvalues --    0.85070   0.85366   0.85520   0.85905   0.86184
 Alpha virt. eigenvalues --    0.86358   0.86597   0.86739   0.87110   0.87621
 Alpha virt. eigenvalues --    0.87650   0.87901   0.88181   0.88336   0.88523
 Alpha virt. eigenvalues --    0.88731   0.89416   0.89626   0.89898   0.90096
 Alpha virt. eigenvalues --    0.90183   0.90578   0.90869   0.91029   0.91239
 Alpha virt. eigenvalues --    0.91392   0.91582   0.91668   0.92197   0.92592
 Alpha virt. eigenvalues --    0.92734   0.92988   0.93401   0.93762   0.94254
 Alpha virt. eigenvalues --    0.94378   0.94514   0.94681   0.94896   0.95380
 Alpha virt. eigenvalues --    0.95665   0.95941   0.96326   0.96782   0.96905
 Alpha virt. eigenvalues --    0.97486   0.97541   0.97773   0.98129   0.98426
 Alpha virt. eigenvalues --    0.98752   0.99103   0.99169   0.99739   1.00046
 Alpha virt. eigenvalues --    1.00604   1.00938   1.01310   1.01681   1.02469
 Alpha virt. eigenvalues --    1.02707   1.02808   1.03026   1.03360   1.03506
 Alpha virt. eigenvalues --    1.03701   1.03874   1.04415   1.04659   1.04979
 Alpha virt. eigenvalues --    1.05034   1.05359   1.05638   1.06038   1.06711
 Alpha virt. eigenvalues --    1.06806   1.06913   1.07282   1.07475   1.07963
 Alpha virt. eigenvalues --    1.08127   1.08565   1.08895   1.09118   1.09246
 Alpha virt. eigenvalues --    1.09631   1.09949   1.10288   1.10351   1.10922
 Alpha virt. eigenvalues --    1.11461   1.11684   1.11830   1.12128   1.12221
 Alpha virt. eigenvalues --    1.12776   1.13015   1.13481   1.13698   1.13784
 Alpha virt. eigenvalues --    1.14206   1.14625   1.14838   1.15210   1.15625
 Alpha virt. eigenvalues --    1.15675   1.16230   1.16346   1.16493   1.17027
 Alpha virt. eigenvalues --    1.17424   1.17797   1.18299   1.18493   1.18876
 Alpha virt. eigenvalues --    1.19254   1.19749   1.20110   1.20638   1.21006
 Alpha virt. eigenvalues --    1.21177   1.21312   1.21562   1.21931   1.22202
 Alpha virt. eigenvalues --    1.22714   1.22962   1.23293   1.23699   1.24277
 Alpha virt. eigenvalues --    1.24705   1.24733   1.25176   1.25743   1.26210
 Alpha virt. eigenvalues --    1.26442   1.26732   1.27041   1.27442   1.27558
 Alpha virt. eigenvalues --    1.28585   1.28829   1.28964   1.29383   1.29512
 Alpha virt. eigenvalues --    1.29687   1.30155   1.30546   1.30678   1.30905
 Alpha virt. eigenvalues --    1.31338   1.31625   1.31968   1.32168   1.32802
 Alpha virt. eigenvalues --    1.33020   1.33705   1.34311   1.34630   1.34921
 Alpha virt. eigenvalues --    1.35059   1.35277   1.35551   1.35753   1.36828
 Alpha virt. eigenvalues --    1.37095   1.37337   1.37941   1.38115   1.39133
 Alpha virt. eigenvalues --    1.39369   1.39653   1.39729   1.40388   1.40606
 Alpha virt. eigenvalues --    1.40851   1.41061   1.41722   1.42490   1.42947
 Alpha virt. eigenvalues --    1.43219   1.43393   1.43707   1.43950   1.44288
 Alpha virt. eigenvalues --    1.44360   1.44701   1.45005   1.45242   1.45677
 Alpha virt. eigenvalues --    1.46186   1.46620   1.47258   1.47515   1.47873
 Alpha virt. eigenvalues --    1.48077   1.48244   1.48366   1.48969   1.49645
 Alpha virt. eigenvalues --    1.49840   1.49993   1.50563   1.50831   1.51026
 Alpha virt. eigenvalues --    1.51224   1.51475   1.51686   1.51908   1.52156
 Alpha virt. eigenvalues --    1.52503   1.52894   1.53195   1.53804   1.53908
 Alpha virt. eigenvalues --    1.54603   1.54794   1.54968   1.55626   1.55840
 Alpha virt. eigenvalues --    1.56010   1.56385   1.56781   1.56825   1.57031
 Alpha virt. eigenvalues --    1.57646   1.57820   1.58028   1.58166   1.58480
 Alpha virt. eigenvalues --    1.58647   1.58733   1.59042   1.59124   1.59359
 Alpha virt. eigenvalues --    1.59429   1.59620   1.59758   1.60052   1.60442
 Alpha virt. eigenvalues --    1.60662   1.60792   1.60965   1.61175   1.61388
 Alpha virt. eigenvalues --    1.61668   1.61805   1.62025   1.62191   1.62521
 Alpha virt. eigenvalues --    1.62677   1.62824   1.63133   1.63411   1.63579
 Alpha virt. eigenvalues --    1.63606   1.63996   1.64128   1.64306   1.64475
 Alpha virt. eigenvalues --    1.64840   1.64956   1.64972   1.65171   1.65317
 Alpha virt. eigenvalues --    1.65473   1.65765   1.65962   1.66063   1.66435
 Alpha virt. eigenvalues --    1.66705   1.66981   1.67137   1.67798   1.68112
 Alpha virt. eigenvalues --    1.68250   1.68565   1.68598   1.69058   1.69245
 Alpha virt. eigenvalues --    1.69428   1.69779   1.70098   1.70345   1.70516
 Alpha virt. eigenvalues --    1.70625   1.71047   1.71164   1.71615   1.71985
 Alpha virt. eigenvalues --    1.72280   1.72847   1.72960   1.73410   1.73751
 Alpha virt. eigenvalues --    1.74030   1.74300   1.74560   1.74907   1.75297
 Alpha virt. eigenvalues --    1.75813   1.76129   1.76534   1.76789   1.76936
 Alpha virt. eigenvalues --    1.77272   1.78002   1.78296   1.78647   1.79396
 Alpha virt. eigenvalues --    1.80043   1.80541   1.80652   1.81018   1.81102
 Alpha virt. eigenvalues --    1.81704   1.82192   1.82898   1.83353   1.84095
 Alpha virt. eigenvalues --    1.84475   1.84641   1.84775   1.84922   1.85302
 Alpha virt. eigenvalues --    1.85453   1.86139   1.86356   1.86762   1.86881
 Alpha virt. eigenvalues --    1.87229   1.87658   1.87887   1.88002   1.88193
 Alpha virt. eigenvalues --    1.88736   1.88963   1.89550   1.90202   1.90714
 Alpha virt. eigenvalues --    1.91394   1.91932   1.92761   1.93020   1.93141
 Alpha virt. eigenvalues --    1.93489   1.93795   1.94089   1.94248   1.94369
 Alpha virt. eigenvalues --    1.94641   1.94954   1.95293   1.95579   1.96114
 Alpha virt. eigenvalues --    1.96949   1.97139   1.97593   1.97849   1.97992
 Alpha virt. eigenvalues --    1.98612   1.98685   1.99512   1.99676   2.00311
 Alpha virt. eigenvalues --    2.00467   2.00594   2.00705   2.01086   2.01360
 Alpha virt. eigenvalues --    2.01847   2.01889   2.02384   2.02678   2.03028
 Alpha virt. eigenvalues --    2.03327   2.03546   2.03956   2.04307   2.04697
 Alpha virt. eigenvalues --    2.04869   2.05127   2.05321   2.05899   2.06088
 Alpha virt. eigenvalues --    2.06556   2.06895   2.07322   2.07605   2.08039
 Alpha virt. eigenvalues --    2.08509   2.09039   2.09330   2.09849   2.10179
 Alpha virt. eigenvalues --    2.10359   2.10471   2.10922   2.11189   2.11620
 Alpha virt. eigenvalues --    2.12337   2.12810   2.12928   2.13242   2.13466
 Alpha virt. eigenvalues --    2.13912   2.14087   2.14579   2.14891   2.15390
 Alpha virt. eigenvalues --    2.15657   2.16216   2.16313   2.16866   2.17098
 Alpha virt. eigenvalues --    2.17235   2.17601   2.18424   2.18570   2.19028
 Alpha virt. eigenvalues --    2.19245   2.19823   2.20144   2.20412   2.20569
 Alpha virt. eigenvalues --    2.21361   2.21514   2.21980   2.22133   2.22458
 Alpha virt. eigenvalues --    2.22489   2.22738   2.23488   2.23796   2.24339
 Alpha virt. eigenvalues --    2.24465   2.24969   2.25399   2.25643   2.25818
 Alpha virt. eigenvalues --    2.26263   2.26400   2.26439   2.26865   2.27316
 Alpha virt. eigenvalues --    2.27671   2.28346   2.28651   2.28951   2.29333
 Alpha virt. eigenvalues --    2.30049   2.30285   2.30351   2.30803   2.31247
 Alpha virt. eigenvalues --    2.31424   2.32072   2.32569   2.32855   2.33009
 Alpha virt. eigenvalues --    2.33322   2.33575   2.33929   2.34216   2.35010
 Alpha virt. eigenvalues --    2.35111   2.35389   2.35830   2.36374   2.36527
 Alpha virt. eigenvalues --    2.36847   2.37184   2.37283   2.37415   2.37623
 Alpha virt. eigenvalues --    2.38037   2.38348   2.38567   2.38960   2.39015
 Alpha virt. eigenvalues --    2.39358   2.39698   2.39967   2.40091   2.40204
 Alpha virt. eigenvalues --    2.40674   2.40822   2.41020   2.41517   2.41717
 Alpha virt. eigenvalues --    2.41865   2.41956   2.42403   2.43171   2.43497
 Alpha virt. eigenvalues --    2.43607   2.44164   2.44536   2.44787   2.45170
 Alpha virt. eigenvalues --    2.45565   2.45975   2.46034   2.46429   2.46701
 Alpha virt. eigenvalues --    2.46909   2.47048   2.47268   2.47567   2.48114
 Alpha virt. eigenvalues --    2.48381   2.48390   2.48518   2.48730   2.49109
 Alpha virt. eigenvalues --    2.49493   2.49695   2.49780   2.49891   2.50345
 Alpha virt. eigenvalues --    2.50990   2.51631   2.51929   2.52039   2.52742
 Alpha virt. eigenvalues --    2.52926   2.53058   2.53276   2.53638   2.54051
 Alpha virt. eigenvalues --    2.54343   2.54830   2.55371   2.55716   2.56081
 Alpha virt. eigenvalues --    2.56363   2.56537   2.57128   2.57563   2.58050
 Alpha virt. eigenvalues --    2.58268   2.58616   2.58735   2.59532   2.59671
 Alpha virt. eigenvalues --    2.59784   2.60098   2.60170   2.60451   2.60800
 Alpha virt. eigenvalues --    2.61155   2.61277   2.61667   2.61968   2.62106
 Alpha virt. eigenvalues --    2.62191   2.62248   2.62421   2.62721   2.63013
 Alpha virt. eigenvalues --    2.63131   2.63562   2.63654   2.64068   2.64355
 Alpha virt. eigenvalues --    2.64525   2.64902   2.65097   2.65360   2.65631
 Alpha virt. eigenvalues --    2.65727   2.66288   2.66835   2.67138   2.67201
 Alpha virt. eigenvalues --    2.67543   2.67794   2.68048   2.68517   2.68784
 Alpha virt. eigenvalues --    2.68928   2.69043   2.69635   2.69692   2.69952
 Alpha virt. eigenvalues --    2.70183   2.70316   2.70650   2.71032   2.71192
 Alpha virt. eigenvalues --    2.71317   2.71776   2.72224   2.72715   2.72992
 Alpha virt. eigenvalues --    2.73383   2.73834   2.74261   2.74388   2.74546
 Alpha virt. eigenvalues --    2.74823   2.75086   2.75167   2.75362   2.75559
 Alpha virt. eigenvalues --    2.75996   2.76278   2.76485   2.76566   2.76895
 Alpha virt. eigenvalues --    2.77170   2.77391   2.77603   2.77777   2.77959
 Alpha virt. eigenvalues --    2.78280   2.78448   2.78667   2.78857   2.79123
 Alpha virt. eigenvalues --    2.79261   2.79452   2.79703   2.79883   2.80219
 Alpha virt. eigenvalues --    2.80457   2.80567   2.81324   2.81814   2.82234
 Alpha virt. eigenvalues --    2.82532   2.82691   2.82778   2.83240   2.83539
 Alpha virt. eigenvalues --    2.83772   2.83878   2.83929   2.84711   2.84741
[...]
 Alpha virt. eigenvalues --    2.89213   2.89299   2.89361   2.89624   2.89828
 Alpha virt. eigenvalues --    2.90183   2.90325   2.91068   2.91343   2.91552
 Alpha virt. eigenvalues --    2.91985   2.92314   2.92681   2.92887   2.93301
 Alpha virt. eigenvalues --    2.93334   2.93713   2.94104   2.94280   2.95126
 Alpha virt. eigenvalues --    2.95284   2.95812   2.96233   2.96547   2.96632
 Alpha virt. eigenvalues --    2.96973   2.97464   2.97768   2.97817   2.98301
 Alpha virt. eigenvalues --    2.98601   2.98942   2.99016   2.99858   3.00031
 Alpha virt. eigenvalues --    3.00546   3.00734   3.01352   3.01724   3.01931
 Alpha virt. eigenvalues --    3.02229   3.02812   3.03406   3.03693   3.04104
 Alpha virt. eigenvalues --    3.04529   3.04942   3.05631   3.06037   3.06384
 Alpha virt. eigenvalues --    3.06693   3.07759   3.08321   3.08648   3.08931
 Alpha virt. eigenvalues --    3.09074   3.09192   3.09548   3.09919   3.10137
 Alpha virt. eigenvalues --    3.10324   3.10667   3.10864   3.11483   3.11521
 Alpha virt. eigenvalues --    3.11872   3.11911   3.12133   3.12377   3.12579
 Alpha virt. eigenvalues --    3.12776   3.13073   3.13364   3.13520   3.14133
 Alpha virt. eigenvalues --    3.14350   3.15031   3.15164   3.15456   3.15635
 Alpha virt. eigenvalues --    3.16213   3.16311   3.16798   3.17143   3.17526
 Alpha virt. eigenvalues --    3.17585   3.17730   3.17902   3.18068   3.18418
 Alpha virt. eigenvalues --    3.18711   3.18778   3.19059   3.19295   3.19342
 Alpha virt. eigenvalues --    3.19570   3.19758   3.20129   3.20313   3.20692
 Alpha virt. eigenvalues --    3.21109   3.21354   3.21440   3.22042   3.22357
 Alpha virt. eigenvalues --    3.22583   3.23148   3.23191   3.23279   3.23506
 Alpha virt. eigenvalues --    3.23983   3.24133   3.24382   3.24713   3.24922
 Alpha virt. eigenvalues --    3.25173   3.25475   3.25823   3.26060   3.26314
 Alpha virt. eigenvalues --    3.26662   3.26846   3.26942   3.27043   3.27500
 Alpha virt. eigenvalues --    3.27940   3.28055   3.28503   3.28835   3.29032
 Alpha virt. eigenvalues --    3.29128   3.29504   3.29654   3.29856   3.30246
 Alpha virt. eigenvalues --    3.30354   3.30646   3.30809   3.30899   3.31507
 Alpha virt. eigenvalues --    3.31817   3.31913   3.32269   3.32420   3.32673
 Alpha virt. eigenvalues --    3.32843   3.33081   3.33755   3.34030   3.34529
 Alpha virt. eigenvalues --    3.34650   3.34935   3.35299   3.35498   3.35965
 Alpha virt. eigenvalues --    3.36262   3.36422   3.36488   3.36833   3.37007
 Alpha virt. eigenvalues --    3.37395   3.37470   3.37575   3.37838   3.38076
 Alpha virt. eigenvalues --    3.38724   3.38956   3.39248   3.39321   3.39608
 Alpha virt. eigenvalues --    3.39907   3.40060   3.40219   3.40643   3.40979
 Alpha virt. eigenvalues --    3.41280   3.41451   3.41815   3.42189   3.42353
 Alpha virt. eigenvalues --    3.42490   3.42803   3.43473   3.43599   3.43730
 Alpha virt. eigenvalues --    3.43998   3.44137   3.44824   3.44930   3.45206
 Alpha virt. eigenvalues --    3.45319   3.45579   3.45862   3.45957   3.46181
 Alpha virt. eigenvalues --    3.46531   3.46575   3.47034   3.47601   3.47730
 Alpha virt. eigenvalues --    3.48400   3.48740   3.49157   3.49364   3.50080
 Alpha virt. eigenvalues --    3.50295   3.50634   3.50778   3.51112   3.51330
 Alpha virt. eigenvalues --    3.51615   3.51804   3.52617   3.53060   3.53416
 Alpha virt. eigenvalues --    3.53752   3.54012   3.54463   3.54775   3.55084
 Alpha virt. eigenvalues --    3.55294   3.55699   3.55943   3.56266   3.56573
 Alpha virt. eigenvalues --    3.56905   3.57067   3.57346   3.57719   3.57994
 Alpha virt. eigenvalues --    3.58297   3.58419   3.58731   3.58743   3.59345
 Alpha virt. eigenvalues --    3.59732   3.59802   3.60302   3.60463   3.60635
 Alpha virt. eigenvalues --    3.61114   3.61545   3.61643   3.61770   3.62048
 Alpha virt. eigenvalues --    3.62168   3.62685   3.62929   3.63255   3.63651
 Alpha virt. eigenvalues --    3.63827   3.64232   3.64627   3.65012   3.65213
 Alpha virt. eigenvalues --    3.65706   3.66135   3.66214   3.66427   3.66586
 Alpha virt. eigenvalues --    3.66748   3.67006   3.67162   3.67501   3.67625
 Alpha virt. eigenvalues --    3.68191   3.68546   3.69009   3.69427   3.69503
 Alpha virt. eigenvalues --    3.70126   3.70799   3.71129   3.71260   3.71683
 Alpha virt. eigenvalues --    3.72126   3.72478   3.72746   3.72902   3.73331
 Alpha virt. eigenvalues --    3.73989   3.74122   3.74498   3.74555   3.74984
 Alpha virt. eigenvalues --    3.75155   3.75661   3.76097   3.76320   3.76697
 Alpha virt. eigenvalues --    3.77099   3.77554   3.77690   3.78187   3.78449
 Alpha virt. eigenvalues --    3.79127   3.79290   3.79506   3.79832   3.79964
 Alpha virt. eigenvalues --    3.80638   3.80678   3.80979   3.81370   3.81521
 Alpha virt. eigenvalues --    3.81760   3.82500   3.83157   3.83931   3.84390
 Alpha virt. eigenvalues --    3.84921   3.85223   3.85894   3.86559   3.86895
 Alpha virt. eigenvalues --    3.86975   3.87977   3.88323   3.88946   3.89607
 Alpha virt. eigenvalues --    3.90429   3.90793   3.91433   3.91699   3.92325
 Alpha virt. eigenvalues --    3.92807   3.93327   3.93988   3.94127   3.94976
 Alpha virt. eigenvalues --    3.95397   3.96577   3.96828   3.97339   3.98070
 Alpha virt. eigenvalues --    3.98791   3.99107   3.99522   4.01137   4.01913
 Alpha virt. eigenvalues --    4.02093   4.02284   4.02399   4.03198   4.03380
 Alpha virt. eigenvalues --    4.04594   4.04879   4.05178   4.05583   4.05981
 Alpha virt. eigenvalues --    4.06749   4.06858   4.06998   4.07414   4.08024
 Alpha virt. eigenvalues --    4.08290   4.08796   4.09432   4.09652   4.10385
 Alpha virt. eigenvalues --    4.10908   4.11028   4.11130   4.11433   4.11963
 Alpha virt. eigenvalues --    4.12037   4.12464   4.13001   4.13176   4.13832
 Alpha virt. eigenvalues --    4.14299   4.14666   4.14926   4.15422   4.15564
 Alpha virt. eigenvalues --    4.16164   4.16624   4.16955   4.17313   4.18162
 Alpha virt. eigenvalues --    4.18556   4.18954   4.19478   4.20147   4.20281
 Alpha virt. eigenvalues --    4.20550   4.21249   4.21728   4.22014   4.22904
 Alpha virt. eigenvalues --    4.23165   4.23665   4.23881   4.24183   4.24663
 Alpha virt. eigenvalues --    4.25073   4.25504   4.25625   4.25845   4.26000
 Alpha virt. eigenvalues --    4.26863   4.27503   4.27558   4.27729   4.28100
 Alpha virt. eigenvalues --    4.29136   4.29547   4.29785   4.30055   4.30208
 Alpha virt. eigenvalues --    4.30640   4.31773   4.31928   4.32652   4.32703
 Alpha virt. eigenvalues --    4.33309   4.34090   4.34647   4.35018   4.35589
 Alpha virt. eigenvalues --    4.36056   4.36295   4.36586   4.38497   4.38802
 Alpha virt. eigenvalues --    4.39241   4.40267   4.40776   4.41598   4.41998
 Alpha virt. eigenvalues --    4.43052   4.43267   4.43372   4.43598   4.43700
 Alpha virt. eigenvalues --    4.44230   4.44817   4.45073   4.45391   4.45570
 Alpha virt. eigenvalues --    4.45746   4.46056   4.46783   4.46800   4.47080
 Alpha virt. eigenvalues --    4.47574   4.47929   4.48136   4.48776   4.49576
 Alpha virt. eigenvalues --    4.49977   4.50247   4.50902   4.51488   4.52571
 Alpha virt. eigenvalues --    4.53010   4.53535   4.54530   4.55267   4.55630
 Alpha virt. eigenvalues --    4.56293   4.57491   4.58266   4.58599   4.58711
 Alpha virt. eigenvalues --    4.59001   4.59329   4.59871   4.60081   4.60419
 Alpha virt. eigenvalues --    4.60733   4.61767   4.62475   4.63273   4.64167
 Alpha virt. eigenvalues --    4.64577   4.65419   4.66760   4.66961   4.67892
 Alpha virt. eigenvalues --    4.68786   4.68969   4.69388   4.70735   4.70869
 Alpha virt. eigenvalues --    4.71060   4.71514   4.72117   4.72622   4.74243
 Alpha virt. eigenvalues --    4.74947   4.75653   4.76032   4.77029   4.79237
 Alpha virt. eigenvalues --    4.79957   4.80964   4.81756   4.82268   4.82408
 Alpha virt. eigenvalues --    4.82883   4.83718   4.84130   4.84295   4.84532
 Alpha virt. eigenvalues --    4.86476   4.86720   4.87270   4.88673   4.89486
 Alpha virt. eigenvalues --    4.91299   4.91594   4.92092   4.92267   4.92850
 Alpha virt. eigenvalues --    4.93380   4.94383   4.95319   4.95900   4.96482
 Alpha virt. eigenvalues --    4.96896   4.96923   4.97797   4.98155   4.98306
 Alpha virt. eigenvalues --    4.98909   5.00245   5.00556   5.01183   5.01404
 Alpha virt. eigenvalues --    5.01698   5.02647   5.03607   5.04540   5.05255
 Alpha virt. eigenvalues --    5.06282   5.07154   5.10511   5.13130   5.13960
 Alpha virt. eigenvalues --    5.15578   5.16046   5.16925   5.17803   5.18202
 Alpha virt. eigenvalues --    5.18749   5.19397   5.19913   5.21417   5.21661
 Alpha virt. eigenvalues --    5.23657   5.23974   5.24155   5.24728   5.25031
 Alpha virt. eigenvalues --    5.26378   5.27421   5.28345   5.29311   5.30249
 Alpha virt. eigenvalues --    5.31421   5.33277   5.33963   5.35320   5.36420
 Alpha virt. eigenvalues --    5.37063   5.37189   5.37905   5.38610   5.39578
 Alpha virt. eigenvalues --    5.40843   5.41457   5.43332   5.44222   5.45502
 Alpha virt. eigenvalues --    5.45778   5.46229   5.46893   5.48310   5.48898
 Alpha virt. eigenvalues --    5.49313   5.50268   5.51195   5.53637   5.54871
 Alpha virt. eigenvalues --    5.56553   5.58798   5.60203   5.61229   5.62073
 Alpha virt. eigenvalues --    5.62880   5.64238   5.65507   5.70971   5.72123
 Alpha virt. eigenvalues --    5.72225   5.75759   5.76187   5.78917   5.79496
 Alpha virt. eigenvalues --    5.80813   5.83035   5.83697   5.84593   5.85939
 Alpha virt. eigenvalues --    5.86904   5.92631   5.94928   5.97606   6.03223
 Alpha virt. eigenvalues --    6.07385   6.10085   6.11729   6.12284   6.13486
 Alpha virt. eigenvalues --    6.14299   6.15137   6.16698   6.36778   6.42310
 Alpha virt. eigenvalues --    6.51894   6.56049   6.81530   7.02859   7.10212
 Alpha virt. eigenvalues --   22.42780  22.44832  22.47633  22.48756  22.49154
 Alpha virt. eigenvalues --   22.49210  22.49376  22.49474  22.50892  22.52697
 Alpha virt. eigenvalues --   22.52746  22.53061  22.53309  22.53764  22.71663
 Alpha virt. eigenvalues --   22.73718  22.76207  22.77343  22.77504  22.77926
 Alpha virt. eigenvalues --   22.78157  22.81704  22.83799  22.87225  22.89796
 Alpha virt. eigenvalues --   22.93553  22.94317  22.95329  22.97884  22.99940
 Alpha virt. eigenvalues --   23.06228  23.07336  23.10014  23.13632  23.14873
 Alpha virt. eigenvalues --   23.15561  23.17856  23.18290  23.23142  23.25835
 Alpha virt. eigenvalues --   23.50581  23.52746  32.57252  32.78910  32.97630
 Alpha virt. eigenvalues --   32.97871  32.99672  33.00514  43.97078
          Condensed to atoms (all electrons):
 Mulliken charges:
               1
     1  C    0.437504
     2  C   -0.238148
     3  C   -0.346027
     4  C    0.241051
     5  H    0.132176
     6  C   -0.313406
     7  C    0.388651
     8  H    0.114219
     9  C   -0.356086
    10  C   -0.241170
    11  H    0.257295
    12  C    0.049724
    13  H    0.069184
    14  H    0.077145
    15  C    0.407733
    16  C   -0.261312
    17  C   -0.354968
    18  C    0.430002
    19  H    0.249385
    20  C   -0.332583
    21  C    0.302703
    22  H    0.115583
    23  C   -0.381331
    24  C   -0.115208
    25  H    0.099768
    26  C   -0.266165
    27  H    0.070125
    28  C    0.057768
    29  C    0.059709
    30  N   -0.177828
    31  H    0.067867
    32  C   -0.050664
    33  N   -0.177124
    34  H    0.070560
    35  C   -0.054169
    36  H    0.105926
    37  C   -0.395942
    38  C   -0.397325
    39  C   -0.371135
    40  O   -0.282131
    41  C    0.060452
    42  C    0.057254
    43  N   -0.174996
    44  H    0.068715
    45  C   -0.054128
    46  N   -0.178284
    47  H    0.067522
    48  C   -0.050897
    49  H    0.112220
    50  C   -0.397168
    51  H    0.106823
    52  C   -0.396117
    53  C    0.163306
    54  C   -0.084888
    55  N   -0.295432
    56  H    0.060829
    57  C   -0.147130
    58  C   -0.056190
    59  H    0.085360
    60  C   -0.341501
    61  H    0.077725
    62  C   -0.391438
    63  H    0.068993
    64  H    0.069946
    65  C   -0.372523
    66  H    0.111176
    67  C   -0.371836
    68  C   -0.372322
    69  C   -0.372635
    70  C   -0.348313
    71  H    0.121642
    72  H    0.137540
    73  H    0.102973
    74  H    0.113859
    75  H    0.122304
    76  H    0.124875
    77  H    0.101372
    78  H    0.121036
    79  H    0.139580
    80  H    0.113666
    81  H    0.123390
    82  H    0.124659
    83  H    0.107017
    84  H    0.121680
    85  H    0.123337
    86  H    0.118107
    87  H    0.127954
    88  H    0.128681
    89  H    0.126761
    90  H    0.102924
    91  H    0.130965
    92  H    0.135159
    93  H    0.107416
    94  H    0.119730
    95  H    0.124117
    96  H    0.113277
    97  H    0.123652
    98  H    0.125053
    99  H    0.114047
   100  H    0.119778
   101  H    0.121012
   102  H    0.140497
   103  H    0.101248
   104  H    0.101485
   105  H    0.121966
   106  H    0.137974
   107  H    0.184998
   108  N   -0.240657
   109  H    0.050574
   110  H    0.074028
   111  H    0.194447
 Sum of Mulliken charges =   0.00000
 Mulliken charges with hydrogens summed into heavy atoms:
               1
     1  C    0.437504
     2  C   -0.161003
     3  C   -0.213851
     4  C    0.241051
     6  C   -0.199187
     7  C    0.388651
     9  C   -0.098791
    10  C   -0.171987
    12  C    0.119670
    15  C    0.407733
    16  C   -0.192319
    17  C   -0.105583
    18  C    0.430002
    20  C   -0.216999
    21  C    0.302703
    23  C   -0.281563
    24  C   -0.041180
    26  C   -0.196039
    28  C    0.125635
    29  C    0.130269
    30  N   -0.177828
    32  C    0.055262
    33  N   -0.177124
    35  C    0.057007
    37  C   -0.034904
    38  C   -0.035610
    39  C   -0.008979
    40  O   -0.282131
    41  C    0.129167
    42  C    0.124777
    43  N   -0.174996
    45  C    0.058092
    46  N   -0.178284
    48  C    0.055927
    50  C   -0.036123
    52  C   -0.037239
    53  C    0.224134
    54  C   -0.034314
    55  N   -0.110435
    57  C   -0.061770
    58  C    0.021535
    60  C    0.010533
    62  C   -0.016697
    65  C   -0.010535
    67  C   -0.010411
    68  C   -0.009566
    69  C   -0.011984
    70  C    0.013993
   108  N   -0.046210
 Electronic spatial extent (au):  <R**2>=          43629.8588
 Charge=              0.0000 electrons
 Dipole moment (field-independent basis, Debye):
    X=             -5.2514    Y=              1.6737    Z=             -0.7924  Tot=              5.5683
 Quadrupole moment (field-independent basis, Debye-Ang):
   XX=           -315.9582   YY=           -283.2942   ZZ=           -300.4331
   XY=              9.6656   XZ=              0.8422   YZ=              2.9052
 Traceless Quadrupole moment (field-independent basis, Debye-Ang):
   XX=            -16.0630   YY=             16.6009   ZZ=             -0.5379
   XY=              9.6656   XZ=              0.8422   YZ=              2.9052
 Octapole moment (field-independent basis, Debye-Ang**2):
  XXX=           -666.7842  YYY=              1.4869  ZZZ=              2.4184  XYY=             71.9286
  XXY=            122.0190  XXZ=            -51.8182  XZZ=            -23.5514  YZZ=              4.1173
  YYZ=             -3.3528  XYZ=            -10.4256
 Hexadecapole moment (field-independent basis, Debye-Ang**3):
 XXXX=         -46478.1235 YYYY=         -12798.3248 ZZZZ=          -5144.3640 XXXY=           1030.6970
 XXXZ=           -171.4165 YYYX=             30.5150 YYYZ=             20.0855 ZZZX=             -8.3098
 ZZZY=             -2.9518 XXYY=          -8888.4432 XXZZ=          -7848.3359 YYZZ=          -3079.6111
 XXYZ=            103.9039 YYXZ=             27.1746 ZZXY=            -44.9128
 N-N= 6.418299090705D+03 E-N=-1.757649633181D+04  KE= 2.030204748713D+03
 Leave Link  601 at Sun Oct 17 22:12:41 2021, MaxMem=  7864320000 cpu:              33.6 elap:               1.4
 (Enter /apps/gaussian/g16-c01-avx/g16/l9999.exe)
 Unable to Open any file for archive entry.
 1\1\GINC-CX3-5-0\SP\RPBE1PBE\def2TZVP\C42H62N6O1\ROOT\17-Oct-2021\0\\#
 P PBE1PBE/Def2TZVP SP SCF=(YQC,MaxCycle=900) int=(Grid=Superfinegrid) 
 EmpiricalDispersion=GD3\\_2_alde1_3_ami1_1_opt_gas\\0,1\C,0,-5.8085,-2
 .2719,0.0221\C,0,-4.7031,-2.5938,0.9194\C,0,-7.0132,-2.963,0.0903\C,0,
 -8.0562,-2.6504,-0.782\H,0,-7.1656,-3.7535,0.8114\C,0,-7.8922,-1.6378,
 -1.7254\C,0,-6.6938,-0.9338,-1.7971\H,0,-8.7043,-1.399,-2.399\C,0,-5.6
 591,-1.2582,-0.9222\C,0,-6.5062,0.1367,-2.7714\H,0,-4.7284,-0.7162,-0.
 9773\C,0,-9.3199,-3.3909,-0.6995\H,0,-7.3314,0.2966,-3.4868\H,0,-4.904
 8,-3.3603,1.6863\C,0,-0.2357,1.3183,-0.1046\C,0,-0.5448,0.4775,1.0452\
 C,0,-1.1406,1.3994,-1.1575\C,0,-0.8674,2.1949,-2.2649\H,0,-2.0613,0.84
 12,-1.1141\C,0,0.3242,2.9164,-2.3111\C,0,1.2304,2.8478,-1.2627\H,0,0.5
 566,3.5457,-3.1579\C,0,0.9516,2.0465,-0.1654\C,0,2.5313,3.6029,-1.3382
 \H,0,1.6631,1.9904,0.6467\C,0,-1.8308,2.2644,-3.3565\H,0,-1.5921,2.962
 8,-4.1773\C,0,-2.0207,-0.9277,2.2256\C,0,-2.4793,-2.285,1.6272\N,0,-1.
 6637,-0.0911,1.1313\H,0,-1.1811,-1.108,2.923\C,0,-3.1562,-0.232,3.0119
 \N,0,-3.5951,-2.0143,0.7875\H,0,-2.72,-2.9812,2.4519\C,0,-1.3756,-2.93
 04,0.7569\H,0,-3.9686,-0.0404,2.3049\C,0,-3.6701,-1.0973,4.1597\C,0,-0
 .0959,-3.1789,1.551\C,0,-1.8804,-4.2502,0.1751\O,0,-9.5607,-4.2789,0.0
 784\C,0,-5.211,1.8791,-3.6815\C,0,-3.8479,1.5829,-4.3637\N,0,-5.4531,0
 .823,-2.7604\H,0,-5.9944,1.9612,-4.4581\C,0,-5.1792,3.2057,-2.8869\N,0
 ,-2.8667,1.5509,-3.3336\H,0,-3.6506,2.3617,-5.1244\C,0,-3.8457,0.2082,
 -5.0717\H,0,-4.4161,3.0978,-2.1107\C,0,-4.8369,4.3961,-3.7788\H,0,-4.0
 208,-0.5507,-4.3036\C,0,-4.9307,0.1138,-6.1413\C,0,3.7669,5.0724,-2.70
 85\C,0,4.5626,3.7641,-2.4268\N,0,2.4322,4.7826,-2.1968\H,0,3.6749,5.21
 33,-3.7958\C,0,4.43,6.3394,-2.1282\C,0,5.3434,3.2153,-3.6239\H,0,5.483
 5,6.315,-2.4257\C,0,3.7933,7.5918,-2.731\H,0,4.6279,3.0148,-4.4312\C,0
 ,6.3846,4.2101,-4.1314\H,0,0.2451,0.3833,1.8105\H,0,-10.0782,-3.0615,-
 1.4391\C,0,-2.6602,1.1044,3.5627\H,0,-1.168,-2.2392,-0.0649\C,0,-6.532
 4,3.4416,-2.2172\C,0,-2.4789,-0.0437,-5.7068\C,0,4.3703,6.406,-0.6026\
 C,0,6.0295,1.9054,-3.2375\H,0,-1.1145,-4.6999,-0.4525\H,0,-2.7685,-4.0
 898,-0.4309\H,0,-2.1244,-4.9502,0.9729\H,0,-2.847,-1.4151,4.7976\H,0,-
 4.1895,-1.9789,3.7954\H,0,-4.37,-0.5256,4.7653\H,0,-1.8324,0.9481,4.25
 29\H,0,-3.4611,1.61,4.0972\H,0,-2.3241,1.7514,2.7564\H,0,-0.3099,-3.74
 64,2.4552\H,0,0.3888,-2.2476,1.8291\H,0,0.605,-3.7508,0.9468\H,0,2.731
 7,7.6385,-2.4956\H,0,3.9006,7.5936,-3.8136\H,0,4.2699,8.4871,-2.3377\H
 ,0,7.0833,4.4648,-3.3371\H,0,5.92,5.1238,-4.4925\H,0,6.9477,3.769,-4.9
 51\H,0,4.8159,5.523,-0.1504\H,0,3.3435,6.4921,-0.2509\H,0,4.9166,7.278
 6,-0.2507\H,0,5.3105,1.2013,-2.8293\H,0,6.7898,2.0917,-2.4823\H,0,6.50
 84,1.458,-4.1056\H,0,-4.9533,5.3204,-3.217\H,0,-5.5021,4.4337,-4.64\H,
 0,-3.8108,4.3488,-4.1316\H,0,-4.8139,-0.8113,-6.7017\H,0,-4.855,0.947,
 -6.8379\H,0,-5.9252,0.114,-5.7042\H,0,-2.4625,-1.0195,-6.1867\H,0,-1.6
 954,-0.0187,-4.9537\H,0,-2.2636,0.7129,-6.46\H,0,-7.3194,3.5228,-2.965
 7\H,0,-6.51,4.3647,-1.6428\H,0,-6.7761,2.625,-1.5423\H,0,2.0086,5.5717
 ,-1.7269\N,0,3.5722,2.7989,-1.9535\H,0,5.2632,3.936,-1.6001\H,0,2.8712
 ,3.8507,-0.3144\H,0,3.1674,2.3202,-2.7554\\Version=ES64L-G16RevC.01\St
 ate=1-A\HF=-2039.8841909\RMSD=1.052e-09\Dipole=1.3603251,1.581358,-0.6
 694453\Quadrupole=-2.3047577,-5.1714545,7.4762123,-7.1764512,10.401271
 3,0.7703571\PG=C01 [X(C42H62N6O1)]\\@
 The archive entry for this job was punched.


 Children are likely to live up to what you believe of them.
 -- Lady Bird Johnson
 Job cpu time:       1 days 11 hours 50 minutes  0.1 seconds.
 Elapsed time:       0 days  1 hours  8 minutes  8.2 seconds.
 File lengths (MBytes):  RWF=   2128 Int=      0 D2E=      0 Chk=    216 Scr=     16
 Normal termination of Gaussian 16 at Sun Oct 17 22:12:41 2021.
