 Entering Gaussian System, Link 0=g16
 Initial command:
 /apps/gaussian/g16-c01-avx/g16/l1.exe "/rds/general/ephemeral/user/atarzia/ephemeral/xtb_spe_DFT/Gau-3744158.inp" -scrdir="/rds/general/ephemeral/user/atarzia/ephemeral/xtb_spe_DFT/"
 Entering Link 1 = /apps/gaussian/g16-c01-avx/g16/l1.exe PID=   3744159.
  
 Copyright (c) 1988-2019, Gaussian, Inc.  All Rights Reserved.
  
 This is part of the Gaussian(R) 16 program.  It is based on
 the Gaussian(R) 09 system (copyright 2009, Gaussian, Inc.),
 the Gaussian(R) 03 system (copyright 2003, Gaussian, Inc.),
 the Gaussian(R) 98 system (copyright 1998, Gaussian, Inc.),
 the Gaussian(R) 94 system (copyright 1995, Gaussian, Inc.),
 the Gaussian 92(TM) system (copyright 1992, Gaussian, Inc.),
 the Gaussian 90(TM) system (copyright 1990, Gaussian, Inc.),
 the Gaussian 88(TM) system (copyright 1988, Gaussian, Inc.),
 the Gaussian 86(TM) system (copyright 1986, Carnegie Mellon
 University), and the Gaussian 82(TM) system (copyright 1983,
 Carnegie Mellon University). Gaussian is a federally registered
 trademark of Gaussian, Inc.
  
 This software contains proprietary and confidential information,
 including trade secrets, belonging to Gaussian, Inc.
  
 This software is provided under written license and may be
 used, copied, transmitted, or stored only in accord with that
 written license.
  
 The following legend is applicable only to US Government
 contracts under FAR:
  
                    RESTRICTED RIGHTS LEGEND
  
 Use, reproduction and disclosure by the US Government is
 subject to restrictions as set forth in subparagraphs (a)
 and (c) of the Commercial Computer Software - Restricted
 Rights clause in FAR 52.227-19.
  
 Gaussian, Inc.
 340 Quinnipiac St., Bldg. 40, Wallingford CT 06492
  
  
 ---------------------------------------------------------------
 Warning -- This program may not be used in any manner that
 competes with the business of Gaussian, Inc. or will provide
 assistance to any competitor of Gaussian, Inc.  The licensee
 of this program is prohibited from giving any competitor of
 Gaussian, Inc. access to this program.  By using this program,
 the user acknowledges that Gaussian, Inc. is engaged in the
 business of creating and licensing software in the field of
 computational chemistry and represents and warrants to the
 licensee that it is not a competitor of Gaussian, Inc. and that
 it will not use this program in any manner prohibited above.
 ---------------------------------------------------------------
  

 Cite this work as:
 Gaussian 16, Revision C.01,
 M. J. Frisch, G. W. Trucks, H. B. Schlegel, G. E. Scuseria, 
 M. A. Robb, J. R. Cheeseman, G. Scalmani, V. Barone, 
 G. A. Petersson, H. Nakatsuji, X. Li, M. Caricato, A. V. Marenich, 
 J. Bloino, B. G. Janesko, R. Gomperts, B. Mennucci, H. P. Hratchian, 
 J. V. Ortiz, A. F. Izmaylov, J. L. Sonnenberg, D. Williams-Young, 
 F. Ding, F. Lipparini, F. Egidi, J. Goings, B. Peng, A. Petrone, 
 T. Henderson, D. Ranasinghe, V. G. Zakrzewski, J. Gao, N. Rega, 
 G. Zheng, W. Liang, M. Hada, M. Ehara, K. Toyota, R. Fukuda, 
 J. Hasegawa, M. Ishida, T. Nakajima, Y. Honda, O. Kitao, H. Nakai, 
 T. Vreven, K. Throssell, J. A. Montgomery, Jr., J. E. Peralta, 
 F. Ogliaro, M. J. Bearpark, J. J. Heyd, E. N. Brothers, K. N. Kudin, 
 V. N. Staroverov, T. A. Keith, R. Kobayashi, J. Normand, 
 K. Raghavachari, A. P. Rendell, J. C. Burant, S. S. Iyengar, 
 J. Tomasi, M. Cossi, J. M. Millam, M. Klene, C. Adamo, R. Cammi, 
 J. W. Ochterski, R. L. Martin, K. Morokuma, O. Farkas, 
 J. B. Foresman, and D. J. Fox, Gaussian, Inc., Wallingford CT, 2019.
 
 ******************************************
 Gaussian 16:  ES64L-G16RevC.01  3-Jul-2019
                26-Oct-2021 
 ******************************************
 %chk=_2_alde1_3_ami2_2_opt_dcm_mp2.chk
 %mem=60000mb
 %nprocshared=32
 Will use up to   32 processors via shared memory.
 ----------------------------------------------------------------------
 #P MP2/aug-cc-pVDZ SP SCF=(YQC,MaxCycle=900) int=(Grid=Superfinegrid) 
 SCRF=(PCM,Solvent=Dichloromethane)
 ----------------------------------------------------------------------
 1/38=1,172=1/1;
 2/12=2,17=6,18=5,40=1/2;
 3/5=16,7=10,11=9,25=1,30=1,70=2201,72=9,75=-7/1,2,3;
 4//1;
 5/5=2,7=900,8=4,13=1,38=1,53=9/8,2,8;
 8/10=1/1;
 9/16=-3/6;
 6/7=2,8=2,9=2,10=2/1;
 99/5=1,9=1/99;
 Leave Link    1 at Tue Oct 26 02:21:19 2021, MaxMem=  7864320000 cpu:               5.4 elap:               0.2
 (Enter /apps/gaussian/g16-c01-avx/g16/l101.exe)
 -----------------------------
 _2_alde1_3_ami2_2_opt_dcm_mp2
 -----------------------------
 Symbolic Z-matrix:
 Charge =  0 Multiplicity = 1
 C                    -4.2754   -1.8598   -0.2684 
 C                    -3.675    -1.7578    1.0611 
 C                    -4.9757   -3.0076   -0.6189 
 C                    -5.5221   -3.1428   -1.8958 
 H                    -5.1045   -3.8181    0.0846 
 C                    -5.3732   -2.1161   -2.8202 
 C                    -4.6878   -0.95     -2.4788 
 H                    -5.7871   -2.1951   -3.814 
 C                    -4.1405   -0.8311   -1.2044 
 C                    -4.5563    0.1281   -3.4595 
 H                    -3.5951    0.0547   -0.9135 
 C                    -6.2521   -4.3684   -2.2496 
 H                    -4.1434    1.0668   -3.0724 
 H                    -3.9536   -2.5627    1.7539 
 C                    -0.334     0.2032   -1.2321 
 C                    -0.4465   -0.6081   -0.0308 
 C                    -0.968    -0.2415   -2.3901 
 C                    -1.0632    0.584    -3.505 
 H                    -1.4482   -1.2108   -2.4001 
 C                    -0.4467    1.8327   -3.4858 
 C                     0.2496    2.2608   -2.3585 
 H                    -0.5279    2.4603   -4.3604 
 C                     0.279     1.4511   -1.2238 
 C                     0.9128    3.5571   -2.3658 
 H                     0.7699    1.7997   -0.3303 
 C                    -1.9055    0.1728   -4.6188 
 H                    -2.1445   -0.9002   -4.6782 
 C                    -0.68     -0.913     2.244 
 C                    -2.1809   -0.638     2.5673 
 N                    -0.2934   -0.1213    1.1226 
 H                    -0.5664   -1.9933    2.0552 
 N                    -2.886    -0.8161    1.3307 
 C                    -2.3531    0.8377    2.9442 
 O                    -6.4253   -5.3095   -1.5186 
 C                    -4.7887    0.8942   -5.7081 
 C                    -3.3859    0.6346   -6.3469 
 N                    -4.9248   -0.0654   -4.6511 
 C                    -5.8693    0.5556   -6.7396 
 N                    -2.3858    1.0258   -5.4172 
 H                    -3.2946    1.2573   -7.2387 
 C                     2.2326    5.2301   -1.4122 
 C                     3.7613    5.0143   -1.1976 
 N                     1.5585    3.9788   -1.368 
 H                     2.0628    5.7776   -2.3548 
 N                     4.0409    4.2626    0.0122 
 C                     4.4431    6.3788   -1.0879 
 H                    -0.7614   -1.651    -0.1943 
 H                     0.8146    4.1413   -3.2946 
 H                     3.5638    3.3682   -0.0289 
 H                    -6.6495   -4.3652   -3.2839 
 H                    -0.0759   -0.6234    3.1057 
 C                    -2.6109   -1.5408    3.728 
 C                    -4.8973    2.3624   -5.284 
 H                    -3.3299   -0.43     -6.6201 
 H                     1.8546    5.8328   -0.579 
 C                     4.3363    4.2338   -2.3813 
 H                    -5.7432    1.1524   -7.6388 
 H                    -6.8511    0.7564   -6.3178 
 H                    -5.8156   -0.4978   -7.0001 
 H                    -2.0405   -1.2851    4.6167 
 H                    -2.4344   -2.5905    3.5007 
 H                    -3.6685   -1.3978    3.9422 
 H                     4.2164    4.7935   -3.3056 
 H                     3.8301    3.2762   -2.4823 
 H                     5.3933    4.0498   -2.2118 
 H                     3.6889    4.7584    0.8244 
 H                    -4.9459    2.9927   -6.1677 
 H                    -4.0311    2.6609   -4.7 
 H                    -5.8005    2.5118   -4.6951 
 H                     4.3033    6.9538   -1.9995 
 H                     5.5066    6.2357   -0.919 
 H                     4.0353    6.9453   -0.2533 
 H                    -3.4025    1.0531    3.1321 
 H                    -2.0035    1.4572    2.1239 
 H                    -1.7775    1.0683    3.8361 
 
 ITRead=  0  0  0  0  0  0  0  0  0  0  0  0  0  0  0  0  0  0  0  0
 ITRead=  0  0  0  0  0  0  0  0  0  0  0  0  0  0  0  0  0  0  0  0
 ITRead=  0  0  0  0  0  0  0  0  0  0  0  0  0  0  0  0  0  0  0  0
 ITRead=  0  0  0  0  0  0  0  0  0  0  0  0  0  0  0
 MicOpt= -1 -1 -1 -1 -1 -1 -1 -1 -1 -1 -1 -1 -1 -1 -1 -1 -1 -1 -1 -1
 MicOpt= -1 -1 -1 -1 -1 -1 -1 -1 -1 -1 -1 -1 -1 -1 -1 -1 -1 -1 -1 -1
 MicOpt= -1 -1 -1 -1 -1 -1 -1 -1 -1 -1 -1 -1 -1 -1 -1 -1 -1 -1 -1 -1
 MicOpt= -1 -1 -1 -1 -1 -1 -1 -1 -1 -1 -1 -1 -1 -1 -1
 NAtoms=     75 NQM=       75 NQMF=       0 NMMI=      0 NMMIF=      0
                NMic=       0 NMicF=      0.
                    Isotopes and Nuclear Properties:
 (Nuclear quadrupole moments (NQMom) in fm**2, nuclear magnetic moments (NMagM)
  in nuclear magnetons)

  Atom         1           2           3           4           5           6           7           8           9          10
 IAtWgt=          12          12          12          12           1          12          12           1          12          12
 AtmWgt=  12.0000000  12.0000000  12.0000000  12.0000000   1.0078250  12.0000000  12.0000000   1.0078250  12.0000000  12.0000000
 NucSpn=           0           0           0           0           1           0           0           1           0           0
 AtZEff=  -0.0000000  -0.0000000  -0.0000000  -0.0000000  -0.0000000  -0.0000000  -0.0000000  -0.0000000  -0.0000000  -0.0000000
 NQMom=    0.0000000   0.0000000   0.0000000   0.0000000   0.0000000   0.0000000   0.0000000   0.0000000   0.0000000   0.0000000
 NMagM=    0.0000000   0.0000000   0.0000000   0.0000000   2.7928460   0.0000000   0.0000000   2.7928460   0.0000000   0.0000000
 AtZNuc=   6.0000000   6.0000000   6.0000000   6.0000000   1.0000000   6.0000000   6.0000000   1.0000000   6.0000000   6.0000000

  Atom        11          12          13          14          15          16          17          18          19          20
 IAtWgt=           1          12           1           1          12          12          12          12           1          12
 AtmWgt=   1.0078250  12.0000000   1.0078250   1.0078250  12.0000000  12.0000000  12.0000000  12.0000000   1.0078250  12.0000000
 NucSpn=           1           0           1           1           0           0           0           0           1           0
 AtZEff=  -0.0000000  -0.0000000  -0.0000000  -0.0000000  -0.0000000  -0.0000000  -0.0000000  -0.0000000  -0.0000000  -0.0000000
 NQMom=    0.0000000   0.0000000   0.0000000   0.0000000   0.0000000   0.0000000   0.0000000   0.0000000   0.0000000   0.0000000
 NMagM=    2.7928460   0.0000000   2.7928460   2.7928460   0.0000000   0.0000000   0.0000000   0.0000000   2.7928460   0.0000000
 AtZNuc=   1.0000000   6.0000000   1.0000000   1.0000000   6.0000000   6.0000000   6.0000000   6.0000000   1.0000000   6.0000000

  Atom        21          22          23          24          25          26          27          28          29          30
 IAtWgt=          12           1          12          12           1          12           1          12          12          14
 AtmWgt=  12.0000000   1.0078250  12.0000000  12.0000000   1.0078250  12.0000000   1.0078250  12.0000000  12.0000000  14.0030740
 NucSpn=           0           1           0           0           1           0           1           0           0           2
 AtZEff=  -0.0000000  -0.0000000  -0.0000000  -0.0000000  -0.0000000  -0.0000000  -0.0000000  -0.0000000  -0.0000000  -0.0000000
 NQMom=    0.0000000   0.0000000   0.0000000   0.0000000   0.0000000   0.0000000   0.0000000   0.0000000   0.0000000   2.0440000
 NMagM=    0.0000000   2.7928460   0.0000000   0.0000000   2.7928460   0.0000000   2.7928460   0.0000000   0.0000000   0.4037610
 AtZNuc=   6.0000000   1.0000000   6.0000000   6.0000000   1.0000000   6.0000000   1.0000000   6.0000000   6.0000000   7.0000000

  Atom        31          32          33          34          35          36          37          38          39          40
 IAtWgt=           1          14          12          16          12          12          14          12          14           1
 AtmWgt=   1.0078250  14.0030740  12.0000000  15.9949146  12.0000000  12.0000000  14.0030740  12.0000000  14.0030740   1.0078250
 NucSpn=           1           2           0           0           0           0           2           0           2           1
 AtZEff=  -0.0000000  -0.0000000  -0.0000000  -0.0000000  -0.0000000  -0.0000000  -0.0000000  -0.0000000  -0.0000000  -0.0000000
 NQMom=    0.0000000   2.0440000   0.0000000   0.0000000   0.0000000   0.0000000   2.0440000   0.0000000   2.0440000   0.0000000
 NMagM=    2.7928460   0.4037610   0.0000000   0.0000000   0.0000000   0.0000000   0.4037610   0.0000000   0.4037610   2.7928460
 AtZNuc=   1.0000000   7.0000000   6.0000000   8.0000000   6.0000000   6.0000000   7.0000000   6.0000000   7.0000000   1.0000000

  Atom        41          42          43          44          45          46          47          48          49          50
 IAtWgt=          12          12          14           1          14          12           1           1           1           1
 AtmWgt=  12.0000000  12.0000000  14.0030740   1.0078250  14.0030740  12.0000000   1.0078250   1.0078250   1.0078250   1.0078250
 NucSpn=           0           0           2           1           2           0           1           1           1           1
 AtZEff=  -0.0000000  -0.0000000  -0.0000000  -0.0000000  -0.0000000  -0.0000000  -0.0000000  -0.0000000  -0.0000000  -0.0000000
 NQMom=    0.0000000   0.0000000   2.0440000   0.0000000   2.0440000   0.0000000   0.0000000   0.0000000   0.0000000   0.0000000
 NMagM=    0.0000000   0.0000000   0.4037610   2.7928460   0.4037610   0.0000000   2.7928460   2.7928460   2.7928460   2.7928460
 AtZNuc=   6.0000000   6.0000000   7.0000000   1.0000000   7.0000000   6.0000000   1.0000000   1.0000000   1.0000000   1.0000000

  Atom        51          52          53          54          55          56          57          58          59          60
 IAtWgt=           1          12          12           1           1          12           1           1           1           1
 AtmWgt=   1.0078250  12.0000000  12.0000000   1.0078250   1.0078250  12.0000000   1.0078250   1.0078250   1.0078250   1.0078250
 NucSpn=           1           0           0           1           1           0           1           1           1           1
 AtZEff=  -0.0000000  -0.0000000  -0.0000000  -0.0000000  -0.0000000  -0.0000000  -0.0000000  -0.0000000  -0.0000000  -0.0000000
 NQMom=    0.0000000   0.0000000   0.0000000   0.0000000   0.0000000   0.0000000   0.0000000   0.0000000   0.0000000   0.0000000
 NMagM=    2.7928460   0.0000000   0.0000000   2.7928460   2.7928460   0.0000000   2.7928460   2.7928460   2.7928460   2.7928460
 AtZNuc=   1.0000000   6.0000000   6.0000000   1.0000000   1.0000000   6.0000000   1.0000000   1.0000000   1.0000000   1.0000000

  Atom        61          62          63          64          65          66          67          68          69          70
 IAtWgt=           1           1           1           1           1           1           1           1           1           1
 AtmWgt=   1.0078250   1.0078250   1.0078250   1.0078250   1.0078250   1.0078250   1.0078250   1.0078250   1.0078250   1.0078250
 NucSpn=           1           1           1           1           1           1           1           1           1           1
 AtZEff=  -0.0000000  -0.0000000  -0.0000000  -0.0000000  -0.0000000  -0.0000000  -0.0000000  -0.0000000  -0.0000000  -0.0000000
 NQMom=    0.0000000   0.0000000   0.0000000   0.0000000   0.0000000   0.0000000   0.0000000   0.0000000   0.0000000   0.0000000
 NMagM=    2.7928460   2.7928460   2.7928460   2.7928460   2.7928460   2.7928460   2.7928460   2.7928460   2.7928460   2.7928460
 AtZNuc=   1.0000000   1.0000000   1.0000000   1.0000000   1.0000000   1.0000000   1.0000000   1.0000000   1.0000000   1.0000000

  Atom        71          72          73          74          75
 IAtWgt=           1           1           1           1           1
 AtmWgt=   1.0078250   1.0078250   1.0078250   1.0078250   1.0078250
 NucSpn=           1           1           1           1           1
 AtZEff=  -0.0000000  -0.0000000  -0.0000000  -0.0000000  -0.0000000
 NQMom=    0.0000000   0.0000000   0.0000000   0.0000000   0.0000000
 NMagM=    2.7928460   2.7928460   2.7928460   2.7928460   2.7928460
 AtZNuc=   1.0000000   1.0000000   1.0000000   1.0000000   1.0000000
 Leave Link  101 at Tue Oct 26 02:21:19 2021, MaxMem=  7864320000 cpu:               2.5 elap:               0.1
 (Enter /apps/gaussian/g16-c01-avx/g16/l202.exe)
 Stoichiometry    C30H38N6O
 Framework group  C1[X(C30H38N6O)]
 Deg. of freedom   219
 Full point group                 C1      NOp   1
 Largest Abelian subgroup         C1      NOp   1
 Largest concise Abelian subgroup C1      NOp   1
                         Standard orientation:                         
 ---------------------------------------------------------------------
 Center     Atomic      Atomic             Coordinates (Angstroms)
 Number     Number       Type             X           Y           Z
 ---------------------------------------------------------------------
      1          6           0        3.231124    1.864318    0.232485
      2          6           0        2.544822    3.148296    0.369751
      3          6           0        4.524160    1.828132   -0.274926
      4          6           0        5.182629    0.610621   -0.452097
      5          1           0        5.040897    2.737375   -0.548189
      6          6           0        4.543056   -0.574009   -0.108008
      7          6           0        3.251446   -0.554065    0.418739
      8          1           0        5.030550   -1.528815   -0.234060
      9          6           0        2.602593    0.666521    0.582841
     10          6           0        2.600405   -1.810301    0.792077
     11          1           0        1.598463    0.714168    0.978034
     12          6           0        6.547064    0.593245   -0.998163
     13          1           0        1.655805   -1.705105    1.338113
     14          1           0        3.176169    4.028209    0.189171
     15          6           0       -0.998421    0.747095   -1.025324
     16          6           0       -0.552091    2.125497   -1.146916
     17          6           0       -0.095170   -0.268164   -1.332024
     18          6           0       -0.398383   -1.594359   -1.044305
     19          1           0        0.876647   -0.017462   -1.735700
     20          6           0       -1.649414   -1.911646   -0.520909
     21          6           0       -2.587443   -0.912510   -0.274457
     22          1           0       -1.869904   -2.946247   -0.305533
     23          6           0       -2.244956    0.419436   -0.503902
     24          6           0       -3.901068   -1.264734    0.245743
     25          1           0       -2.946597    1.201213   -0.264379
     26          6           0        0.641513   -2.603365   -1.184411
     27          1           0        1.494820   -2.337068   -1.827008
     28          6           0       -0.448389    4.331736   -0.480615
     29          6           0        0.514964    4.370356    0.745480
     30          7           0       -1.105727    3.066641   -0.515663
     31          1           0        0.149601    4.520133   -1.387540
     32          7           0        1.318855    3.186136    0.648275
     33          6           0       -0.302534    4.222654    2.033609
     34          8           0        7.175539    1.565696   -1.328900
     35          6           0        2.573231   -4.196673    0.751995
     36          6           0        1.713777   -4.547731   -0.505543
     37          7           0        3.146050   -2.908036    0.491424
     38          6           0        3.744660   -5.179930    0.837426
     39          7           0        0.584661   -3.686514   -0.536880
     40          1           0        1.363808   -5.576756   -0.405407
     41          6           0       -6.070699   -0.761794    0.945676
     42          6           0       -7.155021   -0.311860   -0.079679
     43          7           0       -4.780568   -0.390898    0.476513
     44          1           0       -6.164886   -1.844397    1.135889
     45          7           0       -7.052078    1.100799   -0.396921
     46          6           0       -8.538776   -0.574394    0.516176
     47          1           0        0.354052    2.275471   -1.755149
     48          1           0       -4.075271   -2.338011    0.422754
     49          1           0       -6.125114    1.298263   -0.758874
     50          1           0        6.975864   -0.424434   -1.088560
     51          1           0       -1.198287    5.116119   -0.363448
     52          6           0        1.269886    5.703487    0.740283
     53          6           0        1.705238   -4.290235    2.011002
     54          1           0        2.356888   -4.450348   -1.393277
     55          1           0       -6.244081   -0.220755    1.882463
     56          6           0       -6.984909   -1.100764   -1.379543
     57          1           0        3.384352   -6.203394    0.895150
     58          1           0        4.337381   -4.964184    1.723034
     59          1           0        4.381191   -5.074553   -0.036713
     60          1           0        0.563961    6.520324    0.862647
     61          1           0        1.804510    5.853122   -0.195920
     62          1           0        1.981532    5.734489    1.563355
     63          1           0       -7.127648   -2.164360   -1.205303
     64          1           0       -5.989378   -0.942278   -1.788489
     65          1           0       -7.715720   -0.758509   -2.106600
     66          1           0       -7.177523    1.660027    0.440287
     67          1           0        1.458731   -5.330452    2.205296
     68          1           0        0.777959   -3.738711    1.882800
     69          1           0        2.248756   -3.891803    2.865832
     70          1           0       -8.676894   -1.633385    0.717780
     71          1           0       -9.299743   -0.245281   -0.185716
     72          1           0       -8.666818   -0.023712    1.445764
     73          1           0        0.361258    4.206331    2.895036
     74          1           0       -0.860298    3.291865    1.995860
     75          1           0       -0.997449    5.051284    2.135799
 ---------------------------------------------------------------------
 Rotational constants (GHZ):           0.1221200           0.0610554           0.0436242
 Leave Link  202 at Tue Oct 26 02:21:20 2021, MaxMem=  7864320000 cpu:               0.6 elap:               0.0
 (Enter /apps/gaussian/g16-c01-avx/g16/l301.exe)
 Standard basis: Aug-CC-pVDZ (5D, 7F)
 Ernie: Thresh=  0.10000D-02 Tol=  0.10000D-05 Strict=F.
 Ernie:  74 primitive shells out of 1191 were deleted.
 There are  1267 symmetry adapted cartesian basis functions of A   symmetry.
 There are  1193 symmetry adapted basis functions of A   symmetry.
  1193 basis functions,  2009 primitive gaussians,  1267 cartesian basis functions
   134 alpha electrons      134 beta electrons
       nuclear repulsion energy      3953.5140583551 Hartrees.
 IExCor=    0 DFT=F Ex=HF Corr=None ExCW=0 ScaHFX=  1.000000
 ScaDFX=  1.000000  1.000000  1.000000  1.000000 ScalE2=  1.000000  1.000000
 IRadAn=      7 IRanWt=     -1 IRanGd=            0 ICorTp=0 IEmpDi=  4
 NAtoms=   75 NActive=   75 NUniq=   75 SFac= 1.00D+00 NAtFMM=   60 NAOKFM=T Big=T
 Integral buffers will be    131072 words long.
 Raffenetti 1 integral format.
 Two-electron integral symmetry is turned on.
 ------------------------------------------------------------------------------
 Polarizable Continuum Model (PCM)
 =================================
 Model                : PCM.
 Atomic radii         : UFF (Universal Force Field).
 Polarization charges : Total charges.
 Charge compensation  : None.
 Solution method      : On-the-fly selection.
 Cavity type          : Scaled VdW (van der Waals Surface) (Alpha=1.100).
 Cavity algorithm     : GePol (No added spheres)
                        Default sphere list used, NSphG=   75.
                        Lebedev-Laikov grids with approx.  5.0 points / Ang**2.
                        Smoothing algorithm: York/Karplus (Gamma=1.0000).
                        Polarization charges: spherical gaussians, with
                                              point-specific exponents (IZeta= 3).
                        Self-potential: point-specific (ISelfS= 7).
                        Self-field    : sphere-specific E.n sum rule (ISelfD= 2).
 Solvent              : Dichloromethane, Eps=   8.930000 Eps(inf)=   2.028346
 ------------------------------------------------------------------------------
 GePol: Number of generator spheres                  =      75
 GePol: Total number of spheres                      =      75
 GePol: Number of exposed spheres                    =      75 (100.00%)
 GePol: Number of points                             =    4710
 GePol: Average weight of points                     =       0.13
 GePol: Minimum weight of points                     =   0.49D-10
 GePol: Maximum weight of points                     =    0.20577
 GePol: Number of points with low weight             =     313
 GePol: Fraction of low-weight points (<1% of avg)   =       6.65%
 GePol: Cavity surface area                          =    617.654 Ang**2
 GePol: Cavity volume                                =    727.067 Ang**3
 Leave Link  301 at Tue Oct 26 02:21:21 2021, MaxMem=  7864320000 cpu:               4.4 elap:               0.2
 (Enter /apps/gaussian/g16-c01-avx/g16/l302.exe)
 NPDir=0 NMtPBC=     1 NCelOv=     1 NCel=       1 NClECP=     1 NCelD=      1
         NCelK=      1 NCelE2=     1 NClLst=     1 CellRange=     0.0.
 One-electron integrals computed using PRISM.
 One-electron integral symmetry used in STVInt
 NBasis=  1193 RedAO= T EigKep=  1.12D-06  NBF=  1193
 NBsUse=  1187 1.00D-06 EigRej=  9.90D-07 NBFU=  1187
 Leave Link  302 at Tue Oct 26 02:21:24 2021, MaxMem=  7864320000 cpu:              81.6 elap:               2.6
 (Enter /apps/gaussian/g16-c01-avx/g16/l303.exe)
 DipDrv:  MaxL=1.
 Leave Link  303 at Tue Oct 26 02:21:25 2021, MaxMem=  7864320000 cpu:              11.8 elap:               0.4
 (Enter /apps/gaussian/g16-c01-avx/g16/l401.exe)
 ExpMin= 2.97D-02 ExpMax= 1.17D+04 ExpMxC= 4.01D+02 IAcc=3 IRadAn=         7 AccDes= 0.00D+00
 Harris functional with IExCor=  205 and IRadAn=       7 diagonalized for initial guess.
 HarFok:  IExCor=  205 AccDes= 0.00D+00 IRadAn=         7 IDoV= 1 UseB2=F ITyADJ=14
 ICtDFT=  3500011 ScaDFX=  1.000000  1.000000  1.000000  1.000000
 FoFCou: FMM=F IPFlag=           0 FMFlag=      100000 FMFlg1=        2001
         NFxFlg=           0 DoJE=T BraDBF=F KetDBF=T FulRan=T
         wScrn=  0.000000 ICntrl=       500 IOpCl=  0 I1Cent=   200000004 NGrid=           0
         NMat0=    1 NMatS0=      1 NMatT0=    0 NMatD0=    1 NMtDS0=    0 NMtDT0=    0
 Petite list used in FoFCou.
 Harris En= -1562.05879761377    
 JPrj=0 DoOrth=F DoCkMO=F.
 Leave Link  401 at Tue Oct 26 02:21:36 2021, MaxMem=  7864320000 cpu:             349.7 elap:              11.0
 (Enter /apps/gaussian/g16-c01-avx/g16/l508.exe)
 Integral symmetry usage will be decided dynamically.
 Tight linear equation convergence will be used.
 RHF wavefunction.
 Linear searches until partial convergence.
 Full line searches.
 Fock matrices will be formed incrementally for  20 cycles.
 Inv3:  Mode=1 IEnd=    66552300.
 Iteration    1 A*A^-1 deviation from unit magnitude is 5.66D-15 for   4704.
 Iteration    1 A*A^-1 deviation from orthogonality  is 2.65D-15 for    789    744.
 Iteration    1 A^-1*A deviation from unit magnitude is 5.44D-15 for   4704.
 Iteration    1 A^-1*A deviation from orthogonality  is 3.03D-15 for    789    744.
 FoFJK:  IHMeth= 1 ICntrl=       0 DoSepK=F KAlg= 0 I1Cent=           0 FoldK=F
 IRaf= 990000000 NMat=       1 IRICut=       1 DoRegI=T DoRafI=F ISym2E= 1 IDoP0=0 IntGTp=1.
 Iteration   1 EE= -1558.45246564468                                    Grad=1.884D+00 Max rot=    2.8989 deg.
 Gradient too large for Newton-Raphson -- use scaled steepest descent instead.
 Alpha Gap=     0.416 HL deriv= 6.24D-04
     ILin= 1 X=0.000D+00 Y=-1.558452465645D+03 DE= 0.00D+00 F= -4.27D+00
 RMSU=  8.05D-03    CP:  7.91D-01
     ILin= 2 X=3.000D-01 Y=-1.559420127530D+03 DE=-9.68D-01 F= -2.18D+00 OKLS=F
 RMSU=  1.61D-03    CP:  6.80D-01  1.51D+00
     ILin= 3 X=5.000D-01 Y=-1.559714961235D+03 DE=-1.26D+00 F= -7.72D-01
 RMSU=  3.84D-03    CP:  5.23D-01  2.16D+00  3.00D+00
     ILin= 4 X=9.000D-01 Y=-1.559464267516D+03 DE=-1.01D+00 F=  2.02D+00
     An  expanding polynomial of degree  4 produced  0.6105
 RMSU=  4.35D-06    CP:  6.28D-01  1.74D+00  1.89D+00  1.27D-05
 Iteration   2 EE= -1559.75738011262     Delta-E=       -1.304914467948 Grad=6.200D-01 Max rot=    1.5281 deg.
 Gradient too large for Newton-Raphson -- use scaled steepest descent instead.
 Alpha Gap=     0.444 HL deriv= 1.27D-04
     ILin= 1 X=0.000D+00 Y=-1.559757380113D+03 DE= 0.00D+00 F= -2.16D-01
 RMSU=  1.84D-03    CP:  5.71D-01  1.88D+00  3.00D+00  2.42D-03  3.00D+00
     ILin= 2 X=4.000D-01 Y=-1.559822826084D+03 DE=-6.54D-02 F= -1.11D-01 OKLS=F
 RMSU=  4.43D-04    CP:  5.13D-01  2.00D+00  3.00D+00  7.44D-01  3.00D+00
                    CP:  2.18D+00
     ILin= 3 X=9.000D-01 Y=-1.559845382172D+03 DE=-8.80D-02 F=  2.05D-02
     Accept linear search using points  2 and  3.
     An  expanding polynomial of degree  3 produced  0.7039
 RMSU=  1.85D-06    CP:  5.34D-01  1.96D+00  3.00D+00  4.32D-01  3.00D+00
                    CP:  1.73D+00  4.76D-01
 Iteration   3 EE= -1559.84436231261     Delta-E=       -0.086982199984 Grad=2.112D-01 Max rot=    0.4249 deg.
 Gradient too large for Newton-Raphson -- use scaled steepest descent instead.
 Alpha Gap=     0.438 HL deriv= 1.16D-03
     ILin= 1 X=0.000D+00 Y=-1.559844362313D+03 DE= 0.00D+00 F= -2.89D-02
 RMSU=  7.80D-04    CP:  5.06D-01  1.99D+00  3.00D+00  8.55D-01  3.00D+00
                    CP:  2.18D+00  1.15D+00  3.00D+00
     ILin= 2 X=7.000D-01 Y=-1.559856701652D+03 DE=-1.23D-02 F= -6.31D-03 OKLS=T
     Reject lnstep IMin12=  1  2 Big=T Turn=F Min= 1.234D+00 FVal=-1.559860412604D+03 Lims=  0.00D+00  7.00D-01
 RMSU=  7.42D-05    CP:  4.85D-01  2.01D+00  3.00D+00  1.25D+00  3.00D+00
                    CP:  2.56D+00  1.88D+00  3.00D+00  1.80D+00
     ILin= 3 X=1.300D+00 Y=-1.559854671287D+03 DE=-1.03D-02 F=  1.31D-02
     An  expanding polynomial of degree  3 produced  0.8953
 RMSU=  3.05D-07    CP:  4.99D-01  1.99D+00  3.00D+00  9.79D-01  3.00D+00
                    CP:  2.31D+00  1.37D+00  3.00D+00  1.27D+00  2.23D-01
 Iteration   4 EE= -1559.85731843102     Delta-E=       -0.012956118416 Grad=6.689D-02 Max rot=    0.2308 deg.
 Gradient too large for Newton-Raphson -- use scaled steepest descent instead.
 Alpha Gap=     0.446 HL deriv= 2.74D-04
     ILin= 1 X=0.000D+00 Y=-1.559857318431D+03 DE= 0.00D+00 F= -6.42D-03
 RMSU=  3.70D-04    CP:  4.90D-01  1.98D+00  3.00D+00  1.03D+00  3.00D+00
                    CP:  2.45D+00  1.49D+00  3.00D+00  1.38D+00  1.14D+00
                    CP: -3.00D+00
     ILin= 2 X=8.000D-01 Y=-1.559859151069D+03 DE=-1.83D-03 F=  1.84D-03 OKLS=T
     Accept linear search using points  1 and  2.
     An  expanding polynomial of degree  2 produced  0.5683
 RMSU=  1.82D-06    CP:  4.93D-01  1.99D+00  3.00D+00  1.01D+00  3.00D+00
                    CP:  2.41D+00  1.46D+00  3.00D+00  1.35D+00  8.70D-01
                    CP: -3.00D+00  7.11D-01
 Iteration   5 EE= -1559.85929992863     Delta-E=       -0.001981497603 Grad=2.498D-02 Max rot=    0.0917 deg.
 Gradient too large for Newton-Raphson -- use scaled steepest descent instead.
 Alpha Gap=     0.443 HL deriv= 2.35D-04
     ILin= 1 X=0.000D+00 Y=-1.559859299929D+03 DE= 0.00D+00 F= -8.38D-04
 RMSU=  6.09D-05    CP:  4.89D-01  1.98D+00  3.00D+00  1.05D+00  3.00D+00
                    CP:  2.46D+00  1.53D+00  3.00D+00  1.57D+00  1.33D+00
                    CP: -3.00D+00  9.95D-01 -6.22D-01
     ILin= 2 X=7.000D-01 Y=-1.559859712803D+03 DE=-4.13D-04 F= -3.42D-04 OKLS=F
 RMSU=  2.34D-06    CP:  4.86D-01  1.97D+00  3.00D+00  1.08D+00  3.00D+00
                    CP:  2.51D+00  1.60D+00  3.00D+00  1.78D+00  1.83D+00
                    CP: -3.00D+00  1.28D+00 -3.00D+00  2.00D+00
     ILin= 3 X=1.400D+00 Y=-1.559859778135D+03 DE=-4.78D-04 F=  1.55D-04
     Accept linear search using points  2 and  3.
     An  expanding polynomial of degree  3 produced  1.1258
 RMSU=  4.78D-07    CP:  4.87D-01  1.98D+00  3.00D+00  1.07D+00  3.00D+00
                    CP:  2.49D+00  1.57D+00  3.00D+00  1.70D+00  1.63D+00
                    CP: -3.00D+00  1.17D+00 -2.28D+00  1.61D+00  3.78D-01
 Iteration   6 EE= -1559.85979396827     Delta-E=       -0.000494039639 Grad=1.207D-02 Max rot=    0.0597 deg.
 Gradient too large for Newton-Raphson -- use scaled steepest descent instead.
 Alpha Gap=     0.446 HL deriv= 1.68D-04
     ILin= 1 X=0.000D+00 Y=-1.559859793968D+03 DE= 0.00D+00 F= -2.77D-04
 RMSU=  3.66D-05    CP:  4.86D-01  1.97D+00  3.00D+00  1.06D+00  3.00D+00
                    CP:  2.49D+00  1.55D+00  3.00D+00  1.71D+00  1.73D+00
                    CP: -3.00D+00  1.37D+00 -4.46D-01  1.84D+00  8.42D-01
                    CP:  2.23D+00
     ILin= 2 X=8.000D-01 Y=-1.559859865101D+03 DE=-7.11D-05 F=  9.89D-05 OKLS=T
     Accept linear search using points  1 and  2.
     An  expanding polynomial of degree  2 produced  0.5403
 RMSU=  4.95D-08    CP:  4.86D-01  1.97D+00  3.00D+00  1.06D+00  3.00D+00
                    CP:  2.49D+00  1.56D+00  3.00D+00  1.71D+00  1.70D+00
                    CP: -3.00D+00  1.30D+00 -1.01D+00  1.76D+00  6.85D-01
                    CP:  1.81D+00  6.76D-01
 Iteration   7 EE= -1559.85987495995     Delta-E=       -0.000080991681 Grad=4.107D-03 Max rot=    0.0275 deg.
 SCF Done:  E(RHF) =  -1559.85987496     a.u. after    7 cycles
            Convg  =    0.4107D-02                    18 Fock formations.
              S**2 =  0.0000                  -V/T =  2.0003
 Leave Link  508 at Tue Oct 26 02:45:32 2021, MaxMem=  7864320000 cpu:           45410.9 elap:            1435.5
 (Enter /apps/gaussian/g16-c01-avx/g16/l502.exe)
 Integral symmetry usage will be decided dynamically.
 Closed shell SCF:
 Using DIIS extrapolation, IDIIS=  1040.
 NGot=  7864320000 LenX=  7861055344 LenY=  7859448788
 Requested convergence on RMS density matrix=1.00D-08 within 128 cycles.
 Requested convergence on MAX density matrix=1.00D-06.
 Requested convergence on             energy=1.00D-06.
 No special actions if energy rises.
 Fock matrices will be formed incrementally for  20 cycles.

 Cycle   1  Pass 1  IDiag  1:
 FoFJK:  IHMeth= 1 ICntrl=       0 DoSepK=F KAlg= 0 I1Cent=           0 FoldK=F
 IRaf= 990000000 NMat=       1 IRICut=       1 DoRegI=T DoRafI=F ISym2E= 0 IDoP0=0 IntGTp=1.
 FoFCou: FMM=T IPFlag=           0 FMFlag=      100000 FMFlg1=        2001
         NFxFlg=           0 DoJE=F BraDBF=F KetDBF=F FulRan=T
         wScrn=  0.000000 ICntrl=         0 IOpCl=  0 I1Cent=           0 NGrid=           0
         NMat0=    1 NMatS0=      1 NMatT0=    0 NMatD0=    1 NMtDS0=    0 NMtDT0=    0
 Symmetry not used in FoFCou.
 FMM levels:  10  Number of levels for PrismC:   9
 E= -1559.85987496519    
 DIIS: error= 6.96D-05 at cycle   1 NSaved=   1.
 NSaved= 1 IEnMin= 1 EnMin= -1559.85987496519     IErMin= 1 ErrMin= 6.96D-05
 ErrMax= 6.96D-05  0.00D+00 EMaxC= 1.00D-01 BMatC= 8.43D-06 BMatP= 8.43D-06
 IDIUse=1 WtCom= 1.00D+00 WtEn= 0.00D+00
 Coeff-Com:  0.100D+01
 Coeff:      0.100D+01
 Gap=     0.445 Goal=   None    Shift=    0.000
 RMSDP=8.07D-05 MaxDP=1.11D-02              OVMax= 2.06D-03

 Cycle   2  Pass 1  IDiag  1:
 RMSU=  7.70D-05    CP:  9.99D-01
 E= -1559.85990488394     Delta-E=       -0.000029918746 Rises=F Damp=F
 DIIS: error= 2.93D-05 at cycle   2 NSaved=   2.
 NSaved= 2 IEnMin= 2 EnMin= -1559.85990488394     IErMin= 2 ErrMin= 2.93D-05
 ErrMax= 2.93D-05  0.00D+00 EMaxC= 1.00D-01 BMatC= 2.25D-06 BMatP= 8.43D-06
 IDIUse=1 WtCom= 1.00D+00 WtEn= 0.00D+00
 Coeff-Com:  0.377D-02 0.996D+00
 Coeff:      0.377D-02 0.996D+00
 Gap=     0.355 Goal=   None    Shift=    0.000
 RMSDP=2.76D-05 MaxDP=3.84D-03 DE=-2.99D-05 OVMax= 1.02D-03

 Cycle   3  Pass 1  IDiag  1:
 RMSU=  1.57D-05    CP:  9.99D-01  1.27D+00
 E= -1559.85991253692     Delta-E=       -0.000007652982 Rises=F Damp=F
 DIIS: error= 1.99D-05 at cycle   3 NSaved=   3.
 NSaved= 3 IEnMin= 3 EnMin= -1559.85991253692     IErMin= 3 ErrMin= 1.99D-05
 ErrMax= 1.99D-05  0.00D+00 EMaxC= 1.00D-01 BMatC= 1.06D-06 BMatP= 2.25D-06
 IDIUse=1 WtCom= 1.00D+00 WtEn= 0.00D+00
 Coeff-Com: -0.318D+00 0.328D+00 0.990D+00
 Coeff:     -0.318D+00 0.328D+00 0.990D+00
 Gap=     0.355 Goal=   None    Shift=    0.000
 RMSDP=1.92D-05 MaxDP=2.08D-03 DE=-7.65D-06 OVMax= 9.05D-04

 Cycle   4  Pass 1  IDiag  1:
 RMSU=  1.01D-05    CP:  9.99D-01  1.45D+00  1.49D+00
 E= -1559.85991634625     Delta-E=       -0.000003809327 Rises=F Damp=F
 DIIS: error= 9.62D-06 at cycle   4 NSaved=   4.
 NSaved= 4 IEnMin= 4 EnMin= -1559.85991634625     IErMin= 4 ErrMin= 9.62D-06
 ErrMax= 9.62D-06  0.00D+00 EMaxC= 1.00D-01 BMatC= 1.36D-07 BMatP= 1.06D-06
 IDIUse=1 WtCom= 1.00D+00 WtEn= 0.00D+00
 Coeff-Com:  0.207D+00-0.337D+00-0.658D+00 0.179D+01
 Coeff:      0.207D+00-0.337D+00-0.658D+00 0.179D+01
 Gap=     0.355 Goal=   None    Shift=    0.000
 RMSDP=1.30D-05 MaxDP=1.40D-03 DE=-3.81D-06 OVMax= 6.20D-04

 Cycle   5  Pass 1  IDiag  1:
 RMSU=  5.06D-06    CP:  9.99D-01  1.47D+00  1.91D+00  1.90D+00
 E= -1559.85991742079     Delta-E=       -0.000001074541 Rises=F Damp=F
 DIIS: error= 3.43D-06 at cycle   5 NSaved=   5.
 NSaved= 5 IEnMin= 5 EnMin= -1559.85991742079     IErMin= 5 ErrMin= 3.43D-06
 ErrMax= 3.43D-06  0.00D+00 EMaxC= 1.00D-01 BMatC= 2.34D-08 BMatP= 1.36D-07
 IDIUse=1 WtCom= 1.00D+00 WtEn= 0.00D+00
 Coeff-Com:  0.463D-01-0.392D-01-0.176D+00-0.146D-01 0.118D+01
 Coeff:      0.463D-01-0.392D-01-0.176D+00-0.146D-01 0.118D+01
 Gap=     0.355 Goal=   None    Shift=    0.000
 RMSDP=5.03D-06 MaxDP=4.79D-04 DE=-1.07D-06 OVMax= 2.12D-04

 Cycle   6  Pass 1  IDiag  1:
 RMSU=  1.51D-06    CP:  9.99D-01  1.48D+00  2.00D+00  2.26D+00  1.44D+00
 E= -1559.85991755389     Delta-E=       -0.000000133099 Rises=F Damp=F
 DIIS: error= 1.05D-06 at cycle   6 NSaved=   6.
 NSaved= 6 IEnMin= 6 EnMin= -1559.85991755389     IErMin= 6 ErrMin= 1.05D-06
 ErrMax= 1.05D-06  0.00D+00 EMaxC= 1.00D-01 BMatC= 3.41D-09 BMatP= 2.34D-08
 IDIUse=1 WtCom= 1.00D+00 WtEn= 0.00D+00
 Coeff-Com: -0.370D-01 0.746D-01 0.104D+00-0.406D+00 0.249D+00 0.102D+01
 Coeff:     -0.370D-01 0.746D-01 0.104D+00-0.406D+00 0.249D+00 0.102D+01
 Gap=     0.355 Goal=   None    Shift=    0.000
 RMSDP=1.68D-06 MaxDP=1.62D-04 DE=-1.33D-07 OVMax= 7.56D-05

 Cycle   7  Pass 1  IDiag  1:
 RMSU=  5.27D-07    CP:  9.99D-01  1.49D+00  2.03D+00  2.36D+00  1.60D+00
                    CP:  1.32D+00
 E= -1559.85991756865     Delta-E=       -0.000000014768 Rises=F Damp=F
 DIIS: error= 3.33D-07 at cycle   7 NSaved=   7.
 NSaved= 7 IEnMin= 7 EnMin= -1559.85991756865     IErMin= 7 ErrMin= 3.33D-07
 ErrMax= 3.33D-07  0.00D+00 EMaxC= 1.00D-01 BMatC= 3.26D-10 BMatP= 3.41D-09
 IDIUse=1 WtCom= 1.00D+00 WtEn= 0.00D+00
 Coeff-Com: -0.743D-02 0.133D-01 0.210D-01-0.393D-01-0.641D-01 0.151D+00
 Coeff-Com:  0.926D+00
 Coeff:     -0.743D-02 0.133D-01 0.210D-01-0.393D-01-0.641D-01 0.151D+00
 Coeff:      0.926D+00
 Gap=     0.355 Goal=   None    Shift=    0.000
 RMSDP=2.58D-07 MaxDP=2.70D-05 DE=-1.48D-08 OVMax= 1.03D-05

 Cycle   8  Pass 1  IDiag  1:
 RMSU=  1.76D-07    CP:  9.99D-01  1.49D+00  2.03D+00  2.37D+00  1.60D+00
                    CP:  1.37D+00  1.22D+00
 E= -1559.85991756962     Delta-E=       -0.000000000969 Rises=F Damp=F
 DIIS: error= 1.15D-07 at cycle   8 NSaved=   8.
 NSaved= 8 IEnMin= 8 EnMin= -1559.85991756962     IErMin= 8 ErrMin= 1.15D-07
 ErrMax= 1.15D-07  0.00D+00 EMaxC= 1.00D-01 BMatC= 8.14D-11 BMatP= 3.26D-10
 IDIUse=1 WtCom= 1.00D+00 WtEn= 0.00D+00
 Coeff-Com:  0.616D-02-0.120D-01-0.201D-01 0.752D-01-0.696D-01-0.167D+00
 Coeff-Com:  0.165D+00 0.102D+01
 Coeff:      0.616D-02-0.120D-01-0.201D-01 0.752D-01-0.696D-01-0.167D+00
 Coeff:      0.165D+00 0.102D+01
 Gap=     0.355 Goal=   None    Shift=    0.000
 RMSDP=1.89D-07 MaxDP=2.05D-05 DE=-9.69D-10 OVMax= 8.58D-06

 Cycle   9  Pass 1  IDiag  1:
 RMSU=  8.78D-08    CP:  9.99D-01  1.49D+00  2.03D+00  2.37D+00  1.60D+00
                    CP:  1.41D+00  1.33D+00  1.19D+00
 E= -1559.85991756985     Delta-E=       -0.000000000223 Rises=F Damp=F
 DIIS: error= 6.42D-08 at cycle   9 NSaved=   9.
 NSaved= 9 IEnMin= 9 EnMin= -1559.85991756985     IErMin= 9 ErrMin= 6.42D-08
 ErrMax= 6.42D-08  0.00D+00 EMaxC= 1.00D-01 BMatC= 1.27D-11 BMatP= 8.14D-11
 IDIUse=1 WtCom= 1.00D+00 WtEn= 0.00D+00
 Coeff-Com:  0.410D-03-0.289D-04-0.205D-02-0.195D-02 0.152D-01 0.327D-02
 Coeff-Com: -0.159D+00-0.163D+00 0.131D+01
 Coeff:      0.410D-03-0.289D-04-0.205D-02-0.195D-02 0.152D-01 0.327D-02
 Coeff:     -0.159D+00-0.163D+00 0.131D+01
 Gap=     0.355 Goal=   None    Shift=    0.000
 RMSDP=7.68D-08 MaxDP=8.89D-06 DE=-2.23D-10 OVMax= 4.04D-06

 Cycle  10  Pass 1  IDiag  1:
 RMSU=  3.74D-08    CP:  9.99D-01  1.49D+00  2.04D+00  2.38D+00  1.60D+00
                    CP:  1.41D+00  1.34D+00  1.35D+00  1.52D+00
 E= -1559.85991757004     Delta-E=       -0.000000000191 Rises=F Damp=F
 DIIS: error= 3.06D-08 at cycle  10 NSaved=  10.
 NSaved=10 IEnMin=10 EnMin= -1559.85991757004     IErMin=10 ErrMin= 3.06D-08
 ErrMax= 3.06D-08  0.00D+00 EMaxC= 1.00D-01 BMatC= 2.38D-12 BMatP= 1.27D-11
 IDIUse=1 WtCom= 1.00D+00 WtEn= 0.00D+00
 Coeff-Com: -0.132D-02 0.287D-02 0.408D-02-0.162D-01 0.169D-01 0.398D-01
 Coeff-Com: -0.466D-01-0.255D+00 0.149D+00 0.111D+01
 Coeff:     -0.132D-02 0.287D-02 0.408D-02-0.162D-01 0.169D-01 0.398D-01
 Coeff:     -0.466D-01-0.255D+00 0.149D+00 0.111D+01
 Gap=     0.355 Goal=   None    Shift=    0.000
 RMSDP=3.20D-08 MaxDP=5.83D-06 DE=-1.91D-10 OVMax= 2.45D-06

 Cycle  11  Pass 1  IDiag  1:
 RMSU=  2.25D-08    CP:  9.99D-01  1.49D+00  2.03D+00  2.38D+00  1.60D+00
                    CP:  1.41D+00  1.34D+00  1.36D+00  1.72D+00  1.27D+00
 E= -1559.85991756981     Delta-E=        0.000000000227 Rises=F Damp=F
 DIIS: error= 9.92D-09 at cycle  11 NSaved=  11.
 NSaved=11 IEnMin=10 EnMin= -1559.85991757004     IErMin=11 ErrMin= 9.92D-09
 ErrMax= 9.92D-09  0.00D+00 EMaxC= 1.00D-01 BMatC= 3.16D-13 BMatP= 2.38D-12
 IDIUse=1 WtCom= 1.00D+00 WtEn= 0.00D+00
 Coeff-Com: -0.102D-03 0.619D-04 0.478D-03-0.322D-03-0.214D-02 0.652D-03
 Coeff-Com:  0.255D-01 0.115D-01-0.193D+00 0.373D-01 0.112D+01
 Coeff:     -0.102D-03 0.619D-04 0.478D-03-0.322D-03-0.214D-02 0.652D-03
 Coeff:      0.255D-01 0.115D-01-0.193D+00 0.373D-01 0.112D+01
 Gap=     0.355 Goal=   None    Shift=    0.000
 RMSDP=1.92D-08 MaxDP=3.88D-06 DE= 2.27D-10 OVMax= 7.63D-07

 Cycle  12  Pass 1  IDiag  1:
 RMSU=  1.23D-08    CP:  9.99D-01  1.49D+00  2.03D+00  2.38D+00  1.60D+00
                    CP:  1.41D+00  1.34D+00  1.36D+00  1.73D+00  1.43D+00
                    CP:  1.31D+00
 E= -1559.85991756982     Delta-E=       -0.000000000010 Rises=F Damp=F
 DIIS: error= 3.87D-09 at cycle  12 NSaved=  12.
 NSaved=12 IEnMin=10 EnMin= -1559.85991757004     IErMin=12 ErrMin= 3.87D-09
 ErrMax= 3.87D-09  0.00D+00 EMaxC= 1.00D-01 BMatC= 5.63D-14 BMatP= 3.16D-13
 IDIUse=1 WtCom= 1.00D+00 WtEn= 0.00D+00
 Coeff-Com:  0.184D-03-0.447D-03-0.492D-03 0.242D-02-0.304D-02-0.580D-02
 Coeff-Com:  0.134D-01 0.374D-01-0.578D-01-0.152D+00 0.171D+00 0.996D+00
 Coeff:      0.184D-03-0.447D-03-0.492D-03 0.242D-02-0.304D-02-0.580D-02
 Coeff:      0.134D-01 0.374D-01-0.578D-01-0.152D+00 0.171D+00 0.996D+00
 Gap=     0.355 Goal=   None    Shift=    0.000
 RMSDP=2.53D-08 MaxDP=2.48D-06 DE=-1.05D-11 OVMax= 2.49D-07

 Cycle  13  Pass 1  IDiag  1:
 RMSU=  2.03D-08    CP:  9.99D-01  1.49D+00  2.03D+00  2.38D+00  1.60D+00
                    CP:  1.41D+00  1.34D+00  1.36D+00  1.75D+00  1.45D+00
                    CP:  1.89D+00  1.54D+00
 E= -1559.85991756990     Delta-E=       -0.000000000077 Rises=F Damp=F
 DIIS: error= 5.45D-09 at cycle  13 NSaved=  13.
 NSaved=13 IEnMin=10 EnMin= -1559.85991757004     IErMin=12 ErrMin= 3.87D-09
 ErrMax= 5.45D-09  0.00D+00 EMaxC= 1.00D-01 BMatC= 1.24D-14 BMatP= 5.63D-14
 IDIUse=1 WtCom= 1.00D+00 WtEn= 0.00D+00
 Coeff-Com:  0.365D-04-0.685D-04-0.106D-03 0.325D-03-0.241D-04-0.643D-03
 Coeff-Com: -0.212D-02 0.441D-03 0.281D-01-0.184D-01-0.192D+00 0.162D+00
 Coeff-Com:  0.102D+01
 Coeff:      0.365D-04-0.685D-04-0.106D-03 0.325D-03-0.241D-04-0.643D-03
 Coeff:     -0.212D-02 0.441D-03 0.281D-01-0.184D-01-0.192D+00 0.162D+00
 Coeff:      0.102D+01
 Gap=     0.355 Goal=   None    Shift=    0.000
 RMSDP=2.63D-08 MaxDP=3.25D-06 DE=-7.73D-11 OVMax= 1.06D-07

 Cycle  14  Pass 1  IDiag  1:
 RMSU=  1.12D-08    CP:  9.99D-01  1.49D+00  2.03D+00  2.38D+00  1.60D+00
                    CP:  1.41D+00  1.34D+00  1.36D+00  1.76D+00  1.48D+00
                    CP:  2.28D+00  2.54D+00  1.89D+00
 E= -1559.85991757004     Delta-E=       -0.000000000144 Rises=F Damp=F
 DIIS: error= 8.72D-09 at cycle  14 NSaved=  14.
 NSaved=14 IEnMin=14 EnMin= -1559.85991757004     IErMin=12 ErrMin= 3.87D-09
 ErrMax= 8.72D-09  0.00D+00 EMaxC= 1.00D-01 BMatC= 5.42D-15 BMatP= 1.24D-14
 IDIUse=1 WtCom= 1.00D+00 WtEn= 0.00D+00
 Coeff-Com: -0.487D-05 0.157D-04 0.190D-04-0.119D-03 0.240D-03 0.352D-03
 Coeff-Com: -0.170D-02-0.384D-02 0.142D-01 0.974D-02-0.860D-01-0.248D-01
 Coeff-Com:  0.336D+00 0.756D+00
 Coeff:     -0.487D-05 0.157D-04 0.190D-04-0.119D-03 0.240D-03 0.352D-03
 Coeff:     -0.170D-02-0.384D-02 0.142D-01 0.974D-02-0.860D-01-0.248D-01
 Coeff:      0.336D+00 0.756D+00
 Gap=     0.355 Goal=   None    Shift=    0.000
 RMSDP=3.52D-08 MaxDP=4.09D-06 DE=-1.44D-10 OVMax= 2.85D-08

 Cycle  15  Pass 1  IDiag  1:
 RMSU=  1.22D-08    CP:  9.99D-01  1.49D+00  2.03D+00  2.38D+00  1.61D+00
                    CP:  1.41D+00  1.34D+00  1.37D+00  1.78D+00  1.47D+00
                    CP:  2.92D+00  3.00D+00  3.00D+00  1.63D+00
 E= -1559.85991756985     Delta-E=        0.000000000191 Rises=F Damp=F
 DIIS: error= 1.36D-08 at cycle  15 NSaved=  15.
 NSaved=15 IEnMin=14 EnMin= -1559.85991757004     IErMin=12 ErrMin= 3.87D-09
 ErrMax= 1.36D-08  0.00D+00 EMaxC= 1.00D-01 BMatC= 8.42D-15 BMatP= 5.42D-15
 IDIUse=1 WtCom= 1.00D+00 WtEn= 0.00D+00
 Coeff-Com: -0.178D-04 0.469D-04 0.573D-04-0.298D-03 0.459D-03 0.790D-03
 Coeff-Com: -0.269D-02-0.696D-02 0.192D-01 0.217D-01-0.106D+00-0.928D-01
 Coeff-Com:  0.362D+00 0.143D+01-0.627D+00
 Coeff:     -0.178D-04 0.469D-04 0.573D-04-0.298D-03 0.459D-03 0.790D-03
 Coeff:     -0.269D-02-0.696D-02 0.192D-01 0.217D-01-0.106D+00-0.928D-01
 Coeff:      0.362D+00 0.143D+01-0.627D+00
 Gap=     0.355 Goal=   None    Shift=    0.000
 RMSDP=2.58D-08 MaxDP=3.32D-06 DE= 1.91D-10 OVMax= 4.00D-09

 Cycle  16  Pass 1  IDiag  1:
 RMSU=  8.15D-09    CP:  9.99D-01  1.49D+00  2.03D+00  2.38D+00  1.60D+00
                    CP:  1.41D+00  1.34D+00  1.36D+00  1.77D+00  1.46D+00
                    CP:  2.56D+00  2.53D+00  2.47D+00  5.77D-01  2.42D-01
 E= -1559.85991756994     Delta-E=       -0.000000000093 Rises=F Damp=F
 DIIS: error= 7.97D-09 at cycle  16 NSaved=  16.
 NSaved=16 IEnMin=14 EnMin= -1559.85991757004     IErMin=12 ErrMin= 3.87D-09
 ErrMax= 7.97D-09  0.00D+00 EMaxC= 1.00D-01 BMatC= 5.00D-15 BMatP= 5.42D-15
 IDIUse=1 WtCom= 1.00D+00 WtEn= 0.00D+00
 Large coefficients: NSaved= 16 BigCof=    0.00 CofMax=   10.00 Det=-9.26D-16
 Inversion failed.  Reducing to 15 matrices.
 Coeff-Com:  0.116D-04 0.493D-05-0.100D-03 0.222D-03 0.350D-03-0.137D-02
 Coeff-Com: -0.402D-02 0.754D-02 0.195D-01-0.385D-01-0.127D+00-0.297D-01
 Coeff-Com:  0.149D+01-0.145D+01 0.113D+01
 Coeff:      0.116D-04 0.493D-05-0.100D-03 0.222D-03 0.350D-03-0.137D-02
 Coeff:     -0.402D-02 0.754D-02 0.195D-01-0.385D-01-0.127D+00-0.297D-01
 Coeff:      0.149D+01-0.145D+01 0.113D+01
 Gap=     0.355 Goal=   None    Shift=    0.000
 RMSDP=3.24D-08 MaxDP=3.05D-06 DE=-9.28D-11 OVMax= 1.54D-08

 Cycle  17  Pass 1  IDiag  1:
 RMSU=  1.39D-08    CP:  9.99D-01  1.49D+00  2.03D+00  2.38D+00  1.60D+00
                    CP:  1.41D+00  1.35D+00  1.36D+00  1.77D+00  1.48D+00
                    CP:  2.04D+00  2.30D+00  1.40D+00  4.59D-01 -9.03D-01
                    CP:  1.68D+00
 E= -1559.85991757017     Delta-E=       -0.000000000230 Rises=F Damp=F
 DIIS: error= 3.59D-09 at cycle  17 NSaved=  16.
 NSaved=16 IEnMin=16 EnMin= -1559.85991757017     IErMin=16 ErrMin= 3.59D-09
 ErrMax= 3.59D-09  0.00D+00 EMaxC= 1.00D-01 BMatC= 1.94D-15 BMatP= 5.00D-15
 IDIUse=1 WtCom= 1.00D+00 WtEn= 0.00D+00
 Large coefficients: NSaved= 16 BigCof=    0.00 CofMax=   10.00 Det=-4.89D-16
 Inversion failed.  Reducing to 15 matrices.
 Coeff-Com:  0.398D-05-0.109D-04 0.482D-05 0.739D-04 0.157D-04-0.840D-03
 Coeff-Com: -0.102D-02 0.699D-02 0.331D-02-0.424D-01-0.124D+00 0.583D+00
 Coeff-Com: -0.759D+00 0.449D+00 0.885D+00
 Coeff:      0.398D-05-0.109D-04 0.482D-05 0.739D-04 0.157D-04-0.840D-03
 Coeff:     -0.102D-02 0.699D-02 0.331D-02-0.424D-01-0.124D+00 0.583D+00
 Coeff:     -0.759D+00 0.449D+00 0.885D+00
 Gap=     0.355 Goal=   None    Shift=    0.000
 RMSDP=2.29D-08 MaxDP=1.89D-06 DE=-2.30D-10 OVMax= 1.17D-08

 Cycle  18  Pass 1  IDiag  1:
 RMSU=  1.60D-08    CP:  9.99D-01  1.49D+00  2.03D+00  2.38D+00  1.60D+00
                    CP:  1.41D+00  1.35D+00  1.35D+00  1.76D+00  1.47D+00
                    CP:  2.03D+00  2.29D+00  1.24D+00 -1.55D-02 -8.35D-01
                    CP:  3.00D+00  1.42D+00
 E= -1559.85991756994     Delta-E=        0.000000000231 Rises=F Damp=F
 DIIS: error= 5.16D-09 at cycle  18 NSaved=  16.
 NSaved=16 IEnMin=15 EnMin= -1559.85991757017     IErMin=15 ErrMin= 3.59D-09
 ErrMax= 5.16D-09  0.00D+00 EMaxC= 1.00D-01 BMatC= 2.65D-15 BMatP= 1.94D-15
 IDIUse=1 WtCom= 1.00D+00 WtEn= 0.00D+00
 Large coefficients: NSaved= 16 BigCof=    0.00 CofMax=   10.00 Det=-3.57D-16
 Inversion failed.  Reducing to 15 matrices.
 Coeff-Com: -0.774D-05 0.180D-04 0.691D-04-0.899D-04-0.854D-03-0.255D-03
 Coeff-Com:  0.707D-02 0.709D-03-0.451D-01-0.125D+00 0.587D+00-0.789D+00
 Coeff-Com:  0.483D+00 0.921D+00-0.394D-01
 Coeff:     -0.774D-05 0.180D-04 0.691D-04-0.899D-04-0.854D-03-0.255D-03
 Coeff:      0.707D-02 0.709D-03-0.451D-01-0.125D+00 0.587D+00-0.789D+00
 Coeff:      0.483D+00 0.921D+00-0.394D-01
 Gap=     0.355 Goal=   None    Shift=    0.000
 RMSDP=1.05D-09 MaxDP=7.67D-08 DE= 2.31D-10 OVMax= 1.28D-09

 Error on total polarization charges =  0.02272
 SCF Done:  E(RHF) =  -1559.85991757     A.U. after   18 cycles
            NFock= 18  Conv=0.10D-08     -V/T= 2.0003
 KE= 1.559456050346D+03 PE=-1.154640220157D+04 EE= 4.473572175300D+03
 Leave Link  502 at Tue Oct 26 03:07:03 2021, MaxMem=  7864320000 cpu:           40892.9 elap:            1290.7
 (Enter /apps/gaussian/g16-c01-avx/g16/l508.exe)
 QCSCF skips out because SCF is already converged.
 Leave Link  508 at Tue Oct 26 03:07:04 2021, MaxMem=  7864320000 cpu:               0.1 elap:               0.0
 (Enter /apps/gaussian/g16-c01-avx/g16/l801.exe)
 ExpMin= 2.97D-02 ExpMax= 1.17D+04 ExpMxC= 4.01D+02 IAcc=3 IRadAn=         7 AccDes= 0.00D+00
 HarFok:  IExCor=  205 AccDes= 0.00D+00 IRadAn=         7 IDoV=-2 UseB2=F ITyADJ=14
 ICtDFT= 12500011 ScaDFX=  1.000000  1.000000  1.000000  1.000000
 GSVD:  LWork=       -1665 too small for GESVD, short by        7400 words or        7400 for optimal perf.
 Largest valence mixing into a core orbital is  1.12D-04
 Largest core mixing into a valence orbital is  4.42D-05
 Range of M.O.s used for correlation:    38  1187
 NBasis=  1193 NAE=   134 NBE=   134 NFC=    37 NFV=     0
 NROrb=   1150 NOA=    97 NOB=    97 NVA=  1053 NVB=  1053

 **** Warning!!: The largest alpha MO coefficient is  0.17321044D+03

 Leave Link  801 at Tue Oct 26 03:07:05 2021, MaxMem=  7864320000 cpu:              12.9 elap:               0.4
 (Enter /apps/gaussian/g16-c01-avx/g16/l906.exe)
 FulOut=F Deriv=F AODrv=F NAtomX=    75
   MMem=           1  MDisk=          97 MDiskD=          97
  W3Min=   129412647 MinDsk=   121250063 NBas6D=        1267
 NBas2D=      804949    NTT=      803278    LW2=     2000000
    MDV=  7856165473 MDiskM=       86097 NBas2p=      603344
 Disk-based method using OVN memory for 97 occupieds at a time.
 Estimated scratch disk usage=192735364168 words.
 IMap=   1   2   3   4   5   6   7   8   9  10  11  12  13  14  15  16  17  18  19  20
 IMap=  21  22  23  24  25  26  27  28  29  30  31  32  33  34  35  36  37  38  39  40
 IMap=  41  42  43  44  45  46  47  48  49  50  51  52  53  54  55  56  57  58  59  60
 IMap=  61  62  63  64  65  66  67  68  69  70  71  72  73  74  75  76  77  78  79  80
 IMap=  81  82  83  84  85  86  87  88  89  90  91  92  93  94  95  96  97
 Actual    scratch disk usage=184886376472 words.
 JobTyp=1 Pass  1:  I=   1 to  97 NPSUse= 32 ParTrn=T ParDer=T DoDerP=F.
 Spin components of T(2) and E(2):
     alpha-alpha T2 =       0.2658078862D+00 E2=     -0.7144156506D+00
     alpha-beta  T2 =       0.1400341589D+01 E2=     -0.4008579713D+01
     beta-beta   T2 =       0.2658078862D+00 E2=     -0.7144156506D+00
 The integrals were generated   1 times.
 ANorm=    0.1712295933D+01
 E2 =    -0.5437411014D+01 EUMP2 =    -0.15652973285844D+04
 Leave Link  906 at Tue Oct 26 06:21:01 2021, MaxMem=  7864320000 cpu:          363979.7 elap:           11636.2
 (Enter /apps/gaussian/g16-c01-avx/g16/l601.exe)
 Copying SCF densities to generalized density rwf, IOpCl= 0 IROHF=0.

 **********************************************************************

            Population analysis using the SCF Density.

 **********************************************************************

 Orbital symmetries:
       Occupied  (A) (A) (A) (A) (A) (A) (A) (A) (A) (A) (A) (A)
                 (A) (A) (A) (A) (A) (A) (A) (A) (A) (A) (A) (A)
                 (A) (A) (A) (A) (A) (A) (A) (A) (A) (A) (A) (A)
                 (A) (A) (A) (A) (A) (A) (A) (A) (A) (A) (A) (A)
                 (A) (A) (A) (A) (A) (A) (A) (A) (A) (A) (A) (A)
                 (A) (A) (A) (A) (A) (A) (A) (A) (A) (A) (A) (A)
                 (A) (A) (A) (A) (A) (A) (A) (A) (A) (A) (A) (A)
                 (A) (A) (A) (A) (A) (A) (A) (A) (A) (A) (A) (A)
                 (A) (A) (A) (A) (A) (A) (A) (A) (A) (A) (A) (A)
                 (A) (A) (A) (A) (A) (A) (A) (A) (A) (A) (A) (A)
                 (A) (A) (A) (A) (A) (A) (A) (A) (A) (A) (A) (A)
                 (A) (A)
       Virtual   (A) (A) (A) (A) (A) (A) (A) (A) (A) (A) (A) (A)
                 (A) (A) (A) (A) (A) (A) (A) (A) (A) (A) (A) (A)
                 (A) (A) (A) (A) (A) (A) (A) (A) (A) (A) (A) (A)
                 (A) (A) (A) (A) (A) (A) (A) (A) (A) (A) (A) (A)
                 (A) (A) (A) (A) (A) (A) (A) (A) (A) (A) (A) (A)
                 (A) (A) (A) (A) (A) (A) (A) (A) (A) (A) (A) (A)
                 (A) (A) (A) (A) (A) (A) (A) (A) (A) (A) (A) (A)
                 (A) (A) (A) (A) (A) (A) (A) (A) (A) (A) (A) (A)
                 (A) (A) (A) (A) (A) (A) (A) (A) (A) (A) (A) (A)
                 (A) (A) (A) (A) (A) (A) (A) (A) (A) (A) (A) (A)
                 (A) (A) (A) (A) (A) (A) (A) (A) (A) (A) (A) (A)
                 (A) (A) (A) (A) (A) (A) (A) (A) (A) (A) (A) (A)
                 (A) (A) (A) (A) (A) (A) (A) (A) (A) (A) (A) (A)
                 (A) (A) (A) (A) (A) (A) (A) (A) (A) (A) (A) (A)
                 (A) (A) (A) (A) (A) (A) (A) (A) (A) (A) (A) (A)
                 (A) (A) (A) (A) (A) (A) (A) (A) (A) (A) (A) (A)
                 (A) (A) (A) (A) (A) (A) (A) (A) (A) (A) (A) (A)
                 (A) (A) (A) (A) (A) (A) (A) (A) (A) (A) (A) (A)
                 (A) (A) (A) (A) (A) (A) (A) (A) (A) (A) (A) (A)
                 (A) (A) (A) (A) (A) (A) (A) (A) (A) (A) (A) (A)
                 (A) (A) (A) (A) (A) (A) (A) (A) (A) (A) (A) (A)
                 (A) (A) (A) (A) (A) (A) (A) (A) (A) (A) (A) (A)
                 (A) (A) (A) (A) (A) (A) (A) (A) (A) (A) (A) (A)
                 (A) (A) (A) (A) (A) (A) (A) (A) (A) (A) (A) (A)
                 (A) (A) (A) (A) (A) (A) (A) (A) (A) (A) (A) (A)
                 (A) (A) (A) (A) (A) (A) (A) (A) (A) (A) (A) (A)
                 (A) (A) (A) (A) (A) (A) (A) (A) (A) (A) (A) (A)
                 (A) (A) (A) (A) (A) (A) (A) (A) (A) (A) (A) (A)
                 (A) (A) (A) (A) (A) (A) (A) (A) (A) (A) (A) (A)
                 (A) (A) (A) (A) (A) (A) (A) (A) (A) (A) (A) (A)
                 (A) (A) (A) (A) (A) (A) (A) (A) (A) (A) (A) (A)
                 (A) (A) (A) (A) (A) (A) (A) (A) (A) (A) (A) (A)
                 (A) (A) (A) (A) (A) (A) (A) (A) (A) (A) (A) (A)
                 (A) (A) (A) (A) (A) (A) (A) (A) (A) (A) (A) (A)
                 (A) (A) (A) (A) (A) (A) (A) (A) (A) (A) (A) (A)
                 (A) (A) (A) (A) (A) (A) (A) (A) (A) (A) (A) (A)
                 (A) (A) (A) (A) (A) (A) (A) (A) (A) (A) (A) (A)
                 (A) (A) (A) (A) (A) (A) (A) (A) (A) (A) (A) (A)
                 (A) (A) (A) (A) (A) (A) (A) (A) (A) (A) (A) (A)
                 (A) (A) (A) (A) (A) (A) (A) (A) (A) (A) (A) (A)
                 (A) (A) (A) (A) (A) (A) (A) (A) (A) (A) (A) (A)
                 (A) (A) (A) (A) (A) (A) (A) (A) (A) (A) (A) (A)
                 (A) (A) (A) (A) (A) (A) (A) (A) (A) (A) (A) (A)
                 (A) (A) (A) (A) (A) (A) (A) (A) (A) (A) (A) (A)
                 (A) (A) (A) (A) (A) (A) (A) (A) (A) (A) (A) (A)
                 (A) (A) (A) (A) (A) (A) (A) (A) (A) (A) (A) (A)
                 (A) (A) (A) (A) (A) (A) (A) (A) (A) (A) (A) (A)
                 (A) (A) (A) (A) (A) (A) (A) (A) (A) (A) (A) (A)
                 (A) (A) (A) (A) (A) (A) (A) (A) (A) (A) (A) (A)
                 (A) (A) (A) (A) (A) (A) (A) (A) (A) (A) (A) (A)
                 (A) (A) (A) (A) (A) (A) (A) (A) (A) (A) (A) (A)
                 (A) (A) (A) (A) (A) (A) (A) (A) (A) (A) (A) (A)
                 (A) (A) (A) (A) (A) (A) (A) (A) (A) (A) (A) (A)
                 (A) (A) (A) (A) (A) (A) (A) (A) (A) (A) (A) (A)
                 (A) (A) (A) (A) (A) (A) (A) (A) (A) (A) (A) (A)
                 (A) (A) (A) (A) (A) (A) (A) (A) (A) (A) (A) (A)
                 (A) (A) (A) (A) (A) (A) (A) (A) (A) (A) (A) (A)
                 (A) (A) (A) (A) (A) (A) (A) (A) (A) (A) (A) (A)
                 (A) (A) (A) (A) (A) (A) (A) (A) (A) (A) (A) (A)
                 (A) (A) (A) (A) (A) (A) (A) (A) (A) (A) (A) (A)
                 (A) (A) (A) (A) (A) (A) (A) (A) (A) (A) (A) (A)
                 (A) (A) (A) (A) (A) (A) (A) (A) (A) (A) (A) (A)
                 (A) (A) (A) (A) (A) (A) (A) (A) (A) (A) (A) (A)
                 (A) (A) (A) (A) (A) (A) (A) (A) (A) (A) (A) (A)
                 (A) (A) (A) (A) (A) (A) (A) (A) (A) (A) (A) (A)
                 (A) (A) (A) (A) (A) (A) (A) (A) (A) (A) (A) (A)
                 (A) (A) (A) (A) (A) (A) (A) (A) (A) (A) (A) (A)
                 (A) (A) (A) (A) (A) (A) (A) (A) (A) (A) (A) (A)
                 (A) (A) (A) (A) (A) (A) (A) (A) (A) (A) (A) (A)
                 (A) (A) (A) (A) (A) (A) (A) (A) (A) (A) (A) (A)
                 (A) (A) (A) (A) (A) (A) (A) (A) (A) (A) (A) (A)
                 (A) (A) (A) (A) (A) (A) (A) (A) (A) (A) (A) (A)
                 (A) (A) (A) (A) (A) (A) (A) (A) (A) (A) (A) (A)
                 (A) (A) (A) (A) (A) (A) (A) (A) (A) (A) (A) (A)
                 (A) (A) (A) (A) (A) (A) (A) (A) (A) (A) (A) (A)
                 (A) (A) (A) (A) (A) (A) (A) (A) (A) (A) (A) (A)
                 (A) (A) (A) (A) (A) (A) (A) (A) (A) (A) (A) (A)
                 (A) (A) (A) (A) (A) (A) (A) (A) (A) (A) (A) (A)
                 (A) (A) (A) (A) (A) (A) (A) (A) (A) (A) (A) (A)
                 (A) (A) (A) (A) (A) (A) (A) (A) (A) (A) (A) (A)
                 (A) (A) (A) (A) (A) (A) (A) (A) (A) (A) (A) (A)
                 (A) (A) (A) (A) (A) (A) (A) (A) (A) (A) (A) (A)
                 (A) (A) (A) (A) (A) (A) (A) (A) (A) (A) (A) (A)
                 (A) (A) (A) (A) (A) (A) (A) (A) (A) (A) (A) (A)
                 (A) (A) (A) (A) (A) (A) (A) (A) (A) (A) (A) (A)
                 (A) (A) (A) (A) (A) (A) (A) (A) (A) (A) (A) (A)
                 (A) (A) (A) (A) (A) (A) (A) (A) (A) (A) (A) (A)
                 (A) (A) (A) (A) (A) (A) (A) (A) (A)
 The electronic state is 1-A.
 Alpha  occ. eigenvalues --  -20.57583 -15.56307 -15.56254 -15.56179 -15.56067
 Alpha  occ. eigenvalues --  -15.55649 -15.53980 -11.35045 -11.29196 -11.29082
 Alpha  occ. eigenvalues --  -11.29064 -11.28796 -11.28485 -11.27045 -11.27024
 Alpha  occ. eigenvalues --  -11.26704 -11.26609 -11.26552 -11.26157 -11.25918
 Alpha  occ. eigenvalues --  -11.25886 -11.25833 -11.25823 -11.25667 -11.25559
 Alpha  occ. eigenvalues --  -11.25449 -11.25390 -11.25334 -11.25262 -11.25053
 Alpha  occ. eigenvalues --  -11.25005 -11.21934 -11.21522 -11.21463 -11.21331
 Alpha  occ. eigenvalues --  -11.21146 -11.21030  -1.41317  -1.27170  -1.26715
 Alpha  occ. eigenvalues --   -1.25422  -1.23912  -1.23374  -1.19252  -1.18491
 Alpha  occ. eigenvalues --   -1.17128  -1.09865  -1.08600  -1.06576  -1.05871
 Alpha  occ. eigenvalues --   -1.04991  -1.03217  -1.02439  -0.95444  -0.94899
 Alpha  occ. eigenvalues --   -0.94397  -0.94077  -0.94050  -0.93547  -0.90869
 Alpha  occ. eigenvalues --   -0.90410  -0.88697  -0.88058  -0.85935  -0.82340
 Alpha  occ. eigenvalues --   -0.81111  -0.78948  -0.76943  -0.75647  -0.74819
 Alpha  occ. eigenvalues --   -0.73966  -0.72917  -0.71962  -0.70554  -0.69166
 Alpha  occ. eigenvalues --   -0.68907  -0.67223  -0.66905  -0.65958  -0.65860
 Alpha  occ. eigenvalues --   -0.65570  -0.65064  -0.64744  -0.63560  -0.63117
 Alpha  occ. eigenvalues --   -0.62874  -0.62699  -0.62297  -0.61998  -0.61255
 Alpha  occ. eigenvalues --   -0.60998  -0.59785  -0.59476  -0.57295  -0.56653
 Alpha  occ. eigenvalues --   -0.56320  -0.56205  -0.55358  -0.55138  -0.54760
 Alpha  occ. eigenvalues --   -0.54095  -0.53786  -0.53683  -0.53461  -0.53101
 Alpha  occ. eigenvalues --   -0.52864  -0.52696  -0.52263  -0.52140  -0.51549
 Alpha  occ. eigenvalues --   -0.51194  -0.50696  -0.49910  -0.49857  -0.49165
 Alpha  occ. eigenvalues --   -0.48795  -0.48406  -0.46696  -0.46306  -0.45186
 Alpha  occ. eigenvalues --   -0.44032  -0.43793  -0.42925  -0.40930  -0.40802
 Alpha  occ. eigenvalues --   -0.40425  -0.40184  -0.39597  -0.38887  -0.37953
 Alpha  occ. eigenvalues --   -0.34843  -0.33308  -0.32673  -0.32155
 Alpha virt. eigenvalues --    0.03346   0.03627   0.03690   0.04102   0.04312
 Alpha virt. eigenvalues --    0.04509   0.04608   0.04795   0.04988   0.05053
 Alpha virt. eigenvalues --    0.05275   0.05641   0.05792   0.05996   0.06164
 Alpha virt. eigenvalues --    0.06352   0.06446   0.06539   0.06776   0.06967
 Alpha virt. eigenvalues --    0.07218   0.07472   0.07553   0.07715   0.07904
 Alpha virt. eigenvalues --    0.08188   0.08198   0.08373   0.08537   0.09216
 Alpha virt. eigenvalues --    0.09405   0.09551   0.09948   0.10342   0.10566
 Alpha virt. eigenvalues --    0.10635   0.10893   0.11062   0.11220   0.11666
 Alpha virt. eigenvalues --    0.11869   0.11991   0.12187   0.12530   0.12847
 Alpha virt. eigenvalues --    0.13012   0.13387   0.13506   0.13675   0.13843
 Alpha virt. eigenvalues --    0.13992   0.14263   0.14433   0.14615   0.14880
 Alpha virt. eigenvalues --    0.15041   0.15235   0.15290   0.15522   0.15706
 Alpha virt. eigenvalues --    0.15815   0.16106   0.16386   0.16428   0.16462
 Alpha virt. eigenvalues --    0.16637   0.16874   0.17008   0.17275   0.17375
 Alpha virt. eigenvalues --    0.17547   0.17653   0.17793   0.18043   0.18207
 Alpha virt. eigenvalues --    0.18221   0.18352   0.18491   0.18695   0.19027
 Alpha virt. eigenvalues --    0.19115   0.19174   0.19478   0.19710   0.19864
 Alpha virt. eigenvalues --    0.20120   0.20172   0.20290   0.20633   0.20738
 Alpha virt. eigenvalues --    0.20995   0.21030   0.21372   0.21607   0.21729
 Alpha virt. eigenvalues --    0.21781   0.21863   0.22122   0.22265   0.22395
 Alpha virt. eigenvalues --    0.22618   0.22767   0.22873   0.22956   0.23092
 Alpha virt. eigenvalues --    0.23224   0.23525   0.23641   0.23797   0.24106
 Alpha virt. eigenvalues --    0.24367   0.24615   0.24702   0.24820   0.24899
 Alpha virt. eigenvalues --    0.25171   0.25537   0.25628   0.26021   0.26219
 Alpha virt. eigenvalues --    0.26424   0.26648   0.27184   0.27216   0.27279
 Alpha virt. eigenvalues --    0.27321   0.27539   0.27906   0.28066   0.28181
 Alpha virt. eigenvalues --    0.28447   0.28853   0.28975   0.29176   0.29331
 Alpha virt. eigenvalues --    0.29471   0.29990   0.30299   0.30368   0.30635
 Alpha virt. eigenvalues --    0.30791   0.31071   0.31392   0.31606   0.31696
 Alpha virt. eigenvalues --    0.31852   0.31926   0.32361   0.32543   0.32987
 Alpha virt. eigenvalues --    0.33262   0.33287   0.33360   0.33587   0.33688
 Alpha virt. eigenvalues --    0.33953   0.34146   0.34396   0.34496   0.34759
 Alpha virt. eigenvalues --    0.34822   0.34943   0.35325   0.35495   0.35657
 Alpha virt. eigenvalues --    0.35882   0.35983   0.36026   0.36238   0.36486
 Alpha virt. eigenvalues --    0.36709   0.36740   0.36905   0.36963   0.37292
 Alpha virt. eigenvalues --    0.37607   0.37819   0.37882   0.38015   0.38188
 Alpha virt. eigenvalues --    0.38462   0.38624   0.38738   0.38800   0.39033
 Alpha virt. eigenvalues --    0.39354   0.39490   0.39689   0.39817   0.39949
 Alpha virt. eigenvalues --    0.40062   0.40370   0.40476   0.40555   0.40871
 Alpha virt. eigenvalues --    0.40970   0.41201   0.41325   0.41619   0.41901
 Alpha virt. eigenvalues --    0.42206   0.42316   0.42406   0.42541   0.42766
 Alpha virt. eigenvalues --    0.42978   0.43231   0.43499   0.43574   0.43650
 Alpha virt. eigenvalues --    0.43812   0.43977   0.44197   0.44305   0.44469
 Alpha virt. eigenvalues --    0.44578   0.44819   0.45070   0.45213   0.45602
 Alpha virt. eigenvalues --    0.45645   0.45838   0.46133   0.46199   0.46544
 Alpha virt. eigenvalues --    0.46734   0.47118   0.47281   0.47340   0.47508
 Alpha virt. eigenvalues --    0.47691   0.47802   0.48027   0.48404   0.48619
 Alpha virt. eigenvalues --    0.48877   0.49107   0.49186   0.49333   0.49573
 Alpha virt. eigenvalues --    0.49835   0.49999   0.50238   0.50366   0.50572
 Alpha virt. eigenvalues --    0.50633   0.50998   0.51088   0.51209   0.51486
 Alpha virt. eigenvalues --    0.51584   0.52080   0.52235   0.52326   0.52549
 Alpha virt. eigenvalues --    0.52706   0.53099   0.53173   0.53312   0.53600
 Alpha virt. eigenvalues --    0.53861   0.53911   0.54353   0.54388   0.54651
 Alpha virt. eigenvalues --    0.54897   0.54963   0.55351   0.55486   0.55603
 Alpha virt. eigenvalues --    0.55622   0.56059   0.56487   0.56649   0.57004
 Alpha virt. eigenvalues --    0.57092   0.57310   0.57552   0.57854   0.57917
 Alpha virt. eigenvalues --    0.58223   0.58449   0.58861   0.59165   0.59431
 Alpha virt. eigenvalues --    0.59636   0.59789   0.59854   0.60257   0.60327
 Alpha virt. eigenvalues --    0.60462   0.60798   0.61143   0.61249   0.61342
 Alpha virt. eigenvalues --    0.61535   0.61954   0.62331   0.62394   0.62462
 Alpha virt. eigenvalues --    0.62589   0.62649   0.63265   0.63386   0.63614
 Alpha virt. eigenvalues --    0.63735   0.63829   0.64240   0.64292   0.64515
 Alpha virt. eigenvalues --    0.64696   0.64881   0.64977   0.65328   0.65425
 Alpha virt. eigenvalues --    0.65552   0.65905   0.66179   0.66329   0.66647
 Alpha virt. eigenvalues --    0.66730   0.66929   0.67013   0.67229   0.67464
 Alpha virt. eigenvalues --    0.67613   0.67876   0.67946   0.68327   0.68518
 Alpha virt. eigenvalues --    0.68778   0.68891   0.68993   0.69140   0.69316
 Alpha virt. eigenvalues --    0.69551   0.69733   0.69935   0.70160   0.70418
 Alpha virt. eigenvalues --    0.70456   0.70713   0.70894   0.71033   0.71380
 Alpha virt. eigenvalues --    0.71425   0.71671   0.72117   0.72250   0.72347
 Alpha virt. eigenvalues --    0.72436   0.72552   0.72827   0.72936   0.73354
 Alpha virt. eigenvalues --    0.73539   0.73724   0.73883   0.74152   0.74404
 Alpha virt. eigenvalues --    0.74526   0.74720   0.75029   0.75192   0.75456
 Alpha virt. eigenvalues --    0.75503   0.75762   0.75926   0.76100   0.76171
 Alpha virt. eigenvalues --    0.76357   0.76747   0.76784   0.77085   0.77178
 Alpha virt. eigenvalues --    0.77252   0.77518   0.77929   0.78021   0.78041
 Alpha virt. eigenvalues --    0.78540   0.78614   0.78874   0.79182   0.79519
 Alpha virt. eigenvalues --    0.79827   0.79916   0.80211   0.80291   0.80775
 Alpha virt. eigenvalues --    0.80806   0.81167   0.81353   0.81615   0.81819
 Alpha virt. eigenvalues --    0.81944   0.82276   0.82486   0.82646   0.82871
 Alpha virt. eigenvalues --    0.83105   0.83235   0.83446   0.83660   0.83861
 Alpha virt. eigenvalues --    0.84186   0.84413   0.84636   0.84849   0.85041
 Alpha virt. eigenvalues --    0.85258   0.85398   0.85409   0.85941   0.86139
 Alpha virt. eigenvalues --    0.86259   0.86378   0.86752   0.86998   0.87129
 Alpha virt. eigenvalues --    0.87385   0.87693   0.87938   0.88092   0.88148
 Alpha virt. eigenvalues --    0.88630   0.88642   0.89104   0.89361   0.89551
 Alpha virt. eigenvalues --    0.89755   0.89977   0.90123   0.90215   0.90627
 Alpha virt. eigenvalues --    0.90680   0.90866   0.91210   0.91367   0.91519
 Alpha virt. eigenvalues --    0.91867   0.91989   0.92119   0.92213   0.92767
 Alpha virt. eigenvalues --    0.93129   0.93329   0.93612   0.93823   0.94152
 Alpha virt. eigenvalues --    0.94247   0.94636   0.94969   0.94994   0.95126
 Alpha virt. eigenvalues --    0.95418   0.95553   0.95753   0.95968   0.96040
 Alpha virt. eigenvalues --    0.96199   0.96410   0.96445   0.96976   0.97299
 Alpha virt. eigenvalues --    0.97432   0.97536   0.97837   0.98106   0.98241
 Alpha virt. eigenvalues --    0.98659   0.99025   0.99466   0.99605   0.99904
 Alpha virt. eigenvalues --    1.00076   1.00375   1.00622   1.00762   1.01195
 Alpha virt. eigenvalues --    1.01449   1.01740   1.02052   1.02157   1.02561
 Alpha virt. eigenvalues --    1.02885   1.03257   1.03522   1.03680   1.04009
 Alpha virt. eigenvalues --    1.04261   1.04576   1.04854   1.05059   1.05239
 Alpha virt. eigenvalues --    1.05510   1.05794   1.06060   1.06375   1.06817
 Alpha virt. eigenvalues --    1.06937   1.07167   1.07326   1.07688   1.08332
 Alpha virt. eigenvalues --    1.08768   1.08790   1.09017   1.09241   1.09560
 Alpha virt. eigenvalues --    1.09896   1.10218   1.10690   1.11252   1.11334
 Alpha virt. eigenvalues --    1.11915   1.12007   1.12248   1.12445   1.12927
 Alpha virt. eigenvalues --    1.13354   1.13999   1.14164   1.14364   1.14773
 Alpha virt. eigenvalues --    1.15084   1.15398   1.15574   1.15922   1.16134
 Alpha virt. eigenvalues --    1.16543   1.16933   1.17403   1.17759   1.18021
 Alpha virt. eigenvalues --    1.18187   1.18755   1.18896   1.19227   1.19625
 Alpha virt. eigenvalues --    1.20131   1.20265   1.20897   1.21147   1.21458
 Alpha virt. eigenvalues --    1.21826   1.22348   1.22717   1.23445   1.23773
 Alpha virt. eigenvalues --    1.24361   1.24729   1.25153   1.25460   1.25599
 Alpha virt. eigenvalues --    1.26204   1.26595   1.26961   1.27092   1.27663
 Alpha virt. eigenvalues --    1.27895   1.28240   1.28731   1.29062   1.29664
 Alpha virt. eigenvalues --    1.29809   1.30384   1.30967   1.31048   1.31371
 Alpha virt. eigenvalues --    1.31603   1.32266   1.32662   1.33494   1.33815
 Alpha virt. eigenvalues --    1.34338   1.34523   1.35251   1.35786   1.36649
 Alpha virt. eigenvalues --    1.36916   1.37385   1.37609   1.38037   1.38998
 Alpha virt. eigenvalues --    1.39250   1.39487   1.39832   1.40354   1.40512
 Alpha virt. eigenvalues --    1.40939   1.41279   1.41604   1.42000   1.42636
 Alpha virt. eigenvalues --    1.42876   1.43281   1.43712   1.44067   1.44510
 Alpha virt. eigenvalues --    1.45298   1.45489   1.45990   1.46349   1.46948
 Alpha virt. eigenvalues --    1.47548   1.47624   1.48252   1.48500   1.49097
 Alpha virt. eigenvalues --    1.49326   1.49851   1.50274   1.51185   1.51417
 Alpha virt. eigenvalues --    1.51859   1.52813   1.53470   1.54026   1.54448
 Alpha virt. eigenvalues --    1.54897   1.55780   1.56367   1.56574   1.57024
 Alpha virt. eigenvalues --    1.57541   1.57963   1.58786   1.59226   1.60359
 Alpha virt. eigenvalues --    1.60588   1.61452   1.61831   1.62233   1.62669
 Alpha virt. eigenvalues --    1.63697   1.64065   1.64390   1.65208   1.65628
 Alpha virt. eigenvalues --    1.66210   1.66733   1.66995   1.67259   1.67640
 Alpha virt. eigenvalues --    1.67805   1.68186   1.69297   1.69375   1.70010
 Alpha virt. eigenvalues --    1.70202   1.70433   1.71057   1.71224   1.71983
 Alpha virt. eigenvalues --    1.72359   1.72411   1.72780   1.72955   1.73322
 Alpha virt. eigenvalues --    1.73519   1.73846   1.73971   1.74301   1.75409
 Alpha virt. eigenvalues --    1.75529   1.75948   1.76507   1.76947   1.77146
 Alpha virt. eigenvalues --    1.77630   1.77908   1.78178   1.78659   1.79161
 Alpha virt. eigenvalues --    1.79412   1.79818   1.80059   1.80335   1.80872
 Alpha virt. eigenvalues --    1.81120   1.81457   1.81556   1.82299   1.82453
 Alpha virt. eigenvalues --    1.82998   1.83074   1.83463   1.83877   1.84168
 Alpha virt. eigenvalues --    1.84352   1.85203   1.85340   1.85751   1.86323
 Alpha virt. eigenvalues --    1.86981   1.87077   1.87348   1.87919   1.88137
 Alpha virt. eigenvalues --    1.88308   1.88767   1.89106   1.89508   1.90040
 Alpha virt. eigenvalues --    1.90391   1.90577   1.90692   1.91197   1.91329
 Alpha virt. eigenvalues --    1.92082   1.92636   1.92735   1.93002   1.93497
 Alpha virt. eigenvalues --    1.93649   1.93763   1.94170   1.94486   1.95187
 Alpha virt. eigenvalues --    1.95289   1.95643   1.96078   1.96129   1.96294
 Alpha virt. eigenvalues --    1.96769   1.97432   1.97795   1.97977   1.98406
 Alpha virt. eigenvalues --    1.98677   1.98787   1.99241   1.99426   1.99884
 Alpha virt. eigenvalues --    2.00545   2.01065   2.01421   2.01547   2.01937
 Alpha virt. eigenvalues --    2.02279   2.02958   2.03247   2.03618   2.03785
 Alpha virt. eigenvalues --    2.04470   2.04923   2.05151   2.05409   2.05815
 Alpha virt. eigenvalues --    2.06255   2.06524   2.07088   2.07617   2.08289
 Alpha virt. eigenvalues --    2.08973   2.09083   2.09645   2.09836   2.10614
 Alpha virt. eigenvalues --    2.10981   2.11168   2.11554   2.11846   2.12428
 Alpha virt. eigenvalues --    2.12628   2.13301   2.13695   2.13866   2.14319
 Alpha virt. eigenvalues --    2.14714   2.14836   2.15033   2.15457   2.15936
 Alpha virt. eigenvalues --    2.16178   2.16844   2.17609   2.18044   2.18205
 Alpha virt. eigenvalues --    2.18387   2.19054   2.19446   2.19566   2.20009
 Alpha virt. eigenvalues --    2.20442   2.20658   2.20857   2.21623   2.21866
 Alpha virt. eigenvalues --    2.22093   2.22471   2.22720   2.23301   2.23855
 Alpha virt. eigenvalues --    2.24652   2.25036   2.25108   2.25820   2.25904
 Alpha virt. eigenvalues --    2.26372   2.26849   2.27557   2.27781   2.28451
 Alpha virt. eigenvalues --    2.28642   2.28840   2.29438   2.29834   2.30087
 Alpha virt. eigenvalues --    2.30194   2.30863   2.31400   2.31458   2.31778
 Alpha virt. eigenvalues --    2.32175   2.32584   2.32668   2.33475   2.33858
 Alpha virt. eigenvalues --    2.34027   2.34907   2.35330   2.35504   2.35538
 Alpha virt. eigenvalues --    2.36432   2.36759   2.37218   2.37509   2.37984
 Alpha virt. eigenvalues --    2.38229   2.38381   2.38809   2.39017   2.39347
 Alpha virt. eigenvalues --    2.40031   2.40258   2.40813   2.41184   2.41317
 Alpha virt. eigenvalues --    2.41550   2.42056   2.42615   2.42705   2.42981
 Alpha virt. eigenvalues --    2.43375   2.43531   2.44044   2.44329   2.44378
 Alpha virt. eigenvalues --    2.45186   2.45742   2.46055   2.46243   2.46422
 Alpha virt. eigenvalues --    2.47263   2.47492   2.47970   2.48386   2.48820
 Alpha virt. eigenvalues --    2.49602   2.49809   2.49973   2.50410   2.50852
 Alpha virt. eigenvalues --    2.51077   2.51843   2.52024   2.52144   2.52571
 Alpha virt. eigenvalues --    2.52940   2.53495   2.53811   2.54381   2.54773
 Alpha virt. eigenvalues --    2.55068   2.55287   2.55838   2.56165   2.56428
 Alpha virt. eigenvalues --    2.56584   2.57478   2.58196   2.58707   2.58959
 Alpha virt. eigenvalues --    2.59815   2.60283   2.60551   2.60925   2.61278
 Alpha virt. eigenvalues --    2.61526   2.61924   2.62402   2.62769   2.63416
 Alpha virt. eigenvalues --    2.64026   2.64706   2.65241   2.65920   2.66062
 Alpha virt. eigenvalues --    2.66405   2.66920   2.67239   2.67802   2.67843
 Alpha virt. eigenvalues --    2.68095   2.68812   2.69389   2.69910   2.70465
 Alpha virt. eigenvalues --    2.70515   2.71048   2.71556   2.71921   2.72365
 Alpha virt. eigenvalues --    2.72980   2.73833   2.74083   2.74583   2.75237
 Alpha virt. eigenvalues --    2.75536   2.76050   2.77288   2.78059   2.78635
 Alpha virt. eigenvalues --    2.79151   2.79540   2.80171   2.80876   2.81551
 Alpha virt. eigenvalues --    2.82219   2.83403   2.84261   2.84406   2.85546
 Alpha virt. eigenvalues --    2.85831   2.86388   2.87269   2.87424   2.88239
 Alpha virt. eigenvalues --    2.88711   2.90262   2.90361   2.90844   2.91270
 Alpha virt. eigenvalues --    2.91804   2.92293   2.92896   2.94222   2.94358
 Alpha virt. eigenvalues --    2.95427   2.95796   2.96999   2.97552   2.97888
 Alpha virt. eigenvalues --    2.98246   2.98827   2.99072   3.00485   3.01481
 Alpha virt. eigenvalues --    3.01735   3.02725   3.03085   3.03668   3.03876
 Alpha virt. eigenvalues --    3.04283   3.05097   3.06039   3.06622   3.07462
 Alpha virt. eigenvalues --    3.08744   3.09213   3.09830   3.10133   3.10437
 Alpha virt. eigenvalues --    3.11195   3.12231   3.12722   3.13640   3.14494
 Alpha virt. eigenvalues --    3.14859   3.15007   3.15758   3.16761   3.16776
 Alpha virt. eigenvalues --    3.18121   3.19597   3.20076   3.20950   3.22083
 Alpha virt. eigenvalues --    3.22500   3.23684   3.24336   3.25939   3.26784
 Alpha virt. eigenvalues --    3.27575   3.28685   3.29525   3.31201   3.31766
 Alpha virt. eigenvalues --    3.33376   3.34593   3.35117   3.35786   3.36287
 Alpha virt. eigenvalues --    3.38515   3.42394   3.42746   3.43163   3.46250
 Alpha virt. eigenvalues --    3.47617   3.48270   3.50198   3.52986   3.54514
 Alpha virt. eigenvalues --    3.56911   3.58168   3.59771   3.61604   3.62858
 Alpha virt. eigenvalues --    3.67092   3.69920   3.70879   3.73572   3.74416
 Alpha virt. eigenvalues --    3.74805   3.75791   3.78446   3.79171   3.81563
 Alpha virt. eigenvalues --    3.83223   3.84216   3.86660   3.88174   3.89779
 Alpha virt. eigenvalues --    3.90066   3.91770   3.96943   4.00810   4.03061
 Alpha virt. eigenvalues --    4.05242   4.08961   4.13828   4.15959   4.18628
 Alpha virt. eigenvalues --    4.20319   4.23334   4.27346   4.31014   4.37625
 Alpha virt. eigenvalues --    4.40521   4.95597   5.02140
          Condensed to atoms (all electrons):
 Mulliken charges:
               1
     1  C    0.966678
     2  C   -0.104813
     3  C   -0.147247
     4  C    0.471722
     5  H   -0.756859
     6  C    0.550752
     7  C    1.277135
     8  H   -0.825820
     9  C    0.277632
    10  C    0.119363
    11  H   -1.079356
    12  C    1.167711
    13  H   -0.830478
    14  H   -0.745696
    15  C    1.000253
    16  C    0.660282
    17  C    0.387805
    18  C    0.886172
    19  H   -0.964843
    20  C    0.593535
    21  C    0.866250
    22  H   -0.892834
    23  C   -0.017136
    24  C    0.542410
    25  H   -0.994566
    26  C    0.877823
    27  H   -0.574781
    28  C    1.370992
    29  C   -3.200202
    30  N   -0.630496
    31  H   -0.139875
    32  N    0.424426
    33  C    1.399882
    34  O   -0.868541
    35  C   -3.425864
    36  C    1.413267
    37  N   -0.333004
    38  C    1.500695
    39  N   -0.660258
    40  H   -0.262441
    41  C    1.583724
    42  C   -3.596560
    43  N   -0.397489
    44  H   -0.139909
    45  N   -0.090513
    46  C    1.450153
    47  H   -0.632527
    48  H   -0.683633
    49  H    0.023358
    50  H   -0.300347
    51  H   -0.242058
    52  C    1.528908
    53  C    1.523256
    54  H   -0.143335
    55  H   -0.263523
    56  C    1.438269
    57  H   -0.055811
    58  H   -0.006728
    59  H   -0.018526
    60  H   -0.173965
    61  H    0.017913
    62  H    0.088261
    63  H   -0.001495
    64  H   -0.011142
    65  H   -0.041241
    66  H    0.002366
    67  H   -0.108220
    68  H    0.044404
    69  H    0.029102
    70  H    0.008597
    71  H    0.036434
    72  H   -0.045596
    73  H   -0.090148
    74  H   -0.008371
    75  H   -0.023278
 Sum of Mulliken charges =   0.00000
 Mulliken charges with hydrogens summed into heavy atoms:
               1
     1  C    0.966678
     2  C   -0.850509
     3  C   -0.904106
     4  C    0.471722
     6  C   -0.275068
     7  C    1.277135
     9  C   -0.801724
    10  C   -0.711115
    12  C    0.867364
    15  C    1.000253
    16  C    0.027754
    17  C   -0.577038
    18  C    0.886172
    20  C   -0.299299
    21  C    0.866250
    23  C   -1.011702
    24  C   -0.141223
    26  C    0.303042
    28  C    0.989059
    29  C   -3.200202
    30  N   -0.630496
    32  N    0.424426
    33  C    1.278085
    34  O   -0.868541
    35  C   -3.425864
    36  C    1.007491
    37  N   -0.333004
    38  C    1.419630
    39  N   -0.660258
    41  C    1.180292
    42  C   -3.596560
    43  N   -0.397489
    45  N   -0.064789
    46  C    1.449588
    52  C    1.461117
    53  C    1.488541
    56  C    1.384390
 Electronic spatial extent (au):  <R**2>=          24307.1580
 Charge=              0.0000 electrons
 Dipole moment (field-independent basis, Debye):
    X=              0.7431    Y=             -2.4047    Z=              1.5298  Tot=              2.9454
 Quadrupole moment (field-independent basis, Debye-Ang):
   XX=           -271.6298   YY=           -206.2030   ZZ=           -226.8473
   XY=              0.8612   XZ=             -5.7598   YZ=              2.6467
 Traceless Quadrupole moment (field-independent basis, Debye-Ang):
   XX=            -36.7364   YY=             28.6904   ZZ=              8.0460
   XY=              0.8612   XZ=             -5.7598   YZ=              2.6467
 Octapole moment (field-independent basis, Debye-Ang**2):
  XXX=           -178.8222  YYY=             54.3912  ZZZ=              5.1053  XYY=              8.5797
  XXY=           -205.2639  XXZ=            159.7894  XZZ=             -5.2985  YZZ=             -5.4972
  YYZ=             17.2435  XYZ=             15.9468
 Hexadecapole moment (field-independent basis, Debye-Ang**3):
 XXXX=         -25401.7886 YYYY=          -9926.2006 ZZZZ=          -1486.2445 XXXY=           -451.3423
 XXXZ=           -118.7612 YYYX=             25.7338 YYYZ=            -10.8829 ZZZX=            -43.7197
 ZZZY=             -3.7574 XXYY=          -5471.0969 XXZZ=          -4016.5984 YYZZ=          -2023.7987
 XXYZ=            343.0080 YYXZ=            -21.1345 ZZXY=            -64.4143
 N-N= 3.953514058355D+03 E-N=-1.154640220158D+04  KE= 1.559456050346D+03
 Leave Link  601 at Tue Oct 26 06:21:03 2021, MaxMem=  7864320000 cpu:              29.6 elap:               1.1
 (Enter /apps/gaussian/g16-c01-avx/g16/l9999.exe)
 Unable to Open any file for archive entry.
 1\1\GINC-CX3-2-12\SP\RMP2-FC\Aug-CC-pVDZ\C30H38N6O1\ATARZIA\26-Oct-202
 1\0\\#P MP2/aug-cc-pVDZ SP SCF=(YQC,MaxCycle=900) int=(Grid=Superfineg
 rid) SCRF=(PCM,Solvent=Dichloromethane)\\_2_alde1_3_ami2_2_opt_dcm_mp2
 \\0,1\C,0,-4.2754,-1.8598,-0.2684\C,0,-3.675,-1.7578,1.0611\C,0,-4.975
 7,-3.0076,-0.6189\C,0,-5.5221,-3.1428,-1.8958\H,0,-5.1045,-3.8181,0.08
 46\C,0,-5.3732,-2.1161,-2.8202\C,0,-4.6878,-0.95,-2.4788\H,0,-5.7871,-
 2.1951,-3.814\C,0,-4.1405,-0.8311,-1.2044\C,0,-4.5563,0.1281,-3.4595\H
 ,0,-3.5951,0.0547,-0.9135\C,0,-6.2521,-4.3684,-2.2496\H,0,-4.1434,1.06
 68,-3.0724\H,0,-3.9536,-2.5627,1.7539\C,0,-0.334,0.2032,-1.2321\C,0,-0
 .4465,-0.6081,-0.0308\C,0,-0.968,-0.2415,-2.3901\C,0,-1.0632,0.584,-3.
 505\H,0,-1.4482,-1.2108,-2.4001\C,0,-0.4467,1.8327,-3.4858\C,0,0.2496,
 2.2608,-2.3585\H,0,-0.5279,2.4603,-4.3604\C,0,0.279,1.4511,-1.2238\C,0
 ,0.9128,3.5571,-2.3658\H,0,0.7699,1.7997,-0.3303\C,0,-1.9055,0.1728,-4
 .6188\H,0,-2.1445,-0.9002,-4.6782\C,0,-0.68,-0.913,2.244\C,0,-2.1809,-
 0.638,2.5673\N,0,-0.2934,-0.1213,1.1226\H,0,-0.5664,-1.9933,2.0552\N,0
 ,-2.886,-0.8161,1.3307\C,0,-2.3531,0.8377,2.9442\O,0,-6.4253,-5.3095,-
 1.5186\C,0,-4.7887,0.8942,-5.7081\C,0,-3.3859,0.6346,-6.3469\N,0,-4.92
 48,-0.0654,-4.6511\C,0,-5.8693,0.5556,-6.7396\N,0,-2.3858,1.0258,-5.41
 72\H,0,-3.2946,1.2573,-7.2387\C,0,2.2326,5.2301,-1.4122\C,0,3.7613,5.0
 143,-1.1976\N,0,1.5585,3.9788,-1.368\H,0,2.0628,5.7776,-2.3548\N,0,4.0
 409,4.2626,0.0122\C,0,4.4431,6.3788,-1.0879\H,0,-0.7614,-1.651,-0.1943
 \H,0,0.8146,4.1413,-3.2946\H,0,3.5638,3.3682,-0.0289\H,0,-6.6495,-4.36
 52,-3.2839\H,0,-0.0759,-0.6234,3.1057\C,0,-2.6109,-1.5408,3.728\C,0,-4
 .8973,2.3624,-5.284\H,0,-3.3299,-0.43,-6.6201\H,0,1.8546,5.8328,-0.579
 \C,0,4.3363,4.2338,-2.3813\H,0,-5.7432,1.1524,-7.6388\H,0,-6.8511,0.75
 64,-6.3178\H,0,-5.8156,-0.4978,-7.0001\H,0,-2.0405,-1.2851,4.6167\H,0,
 -2.4344,-2.5905,3.5007\H,0,-3.6685,-1.3978,3.9422\H,0,4.2164,4.7935,-3
 .3056\H,0,3.8301,3.2762,-2.4823\H,0,5.3933,4.0498,-2.2118\H,0,3.6889,4
 .7584,0.8244\H,0,-4.9459,2.9927,-6.1677\H,0,-4.0311,2.6609,-4.7\H,0,-5
 .8005,2.5118,-4.6951\H,0,4.3033,6.9538,-1.9995\H,0,5.5066,6.2357,-0.91
 9\H,0,4.0353,6.9453,-0.2533\H,0,-3.4025,1.0531,3.1321\H,0,-2.0035,1.45
 72,2.1239\H,0,-1.7775,1.0683,3.8361\\Version=ES64L-G16RevC.01\State=1-
 A\HF=-1559.8599176\MP2=-1565.2973286\RMSD=1.047e-09\PG=C01 [X(C30H38N6
 O1)]\\@
 The archive entry for this job was punched.


 SOME THINGS ARE EASY, THEY ARE ONLY HARD TO DO.
            -- A. EINSTEIN TO J. O. HIRSCHFELDER
 THE ONLY TROUBLE WITH A SURE THING IS THE UNCERTAINTY.
     -- FROM A TEABAG (BELONGING TO W.H.?)
 Job cpu time:       5 days  5 hours 13 minutes 27.3 seconds.
 Elapsed time:       0 days  3 hours 59 minutes 39.4 seconds.
 File lengths (MBytes):  RWF=1411536 Int=      0 D2E=      0 Chk=    104 Scr=     16
 Normal termination of Gaussian 16 at Tue Oct 26 06:21:05 2021.
