 Entering Gaussian System, Link 0=g16
 Initial command:
 /apps/gaussian/g16-c01-avx/g16/l1.exe "/rds/general/ephemeral/user/atarzia/ephemeral/Gau-437894.inp" -scrdir="/rds/general/ephemeral/user/atarzia/ephemeral/"
 Entering Link 1 = /apps/gaussian/g16-c01-avx/g16/l1.exe PID=    437895.
  
 Copyright (c) 1988-2019, Gaussian, Inc.  All Rights Reserved.
  
 This is part of the Gaussian(R) 16 program.  It is based on
 the Gaussian(R) 09 system (copyright 2009, Gaussian, Inc.),
 the Gaussian(R) 03 system (copyright 2003, Gaussian, Inc.),
 the Gaussian(R) 98 system (copyright 1998, Gaussian, Inc.),
 the Gaussian(R) 94 system (copyright 1995, Gaussian, Inc.),
 the Gaussian 92(TM) system (copyright 1992, Gaussian, Inc.),
 the Gaussian 90(TM) system (copyright 1990, Gaussian, Inc.),
 the Gaussian 88(TM) system (copyright 1988, Gaussian, Inc.),
 the Gaussian 86(TM) system (copyright 1986, Carnegie Mellon
 University), and the Gaussian 82(TM) system (copyright 1983,
 Carnegie Mellon University). Gaussian is a federally registered
 trademark of Gaussian, Inc.
  
 This software contains proprietary and confidential information,
 including trade secrets, belonging to Gaussian, Inc.
  
 This software is provided under written license and may be
 used, copied, transmitted, or stored only in accord with that
 written license.
  
 The following legend is applicable only to US Government
 contracts under FAR:
  
                    RESTRICTED RIGHTS LEGEND
  
 Use, reproduction and disclosure by the US Government is
 subject to restrictions as set forth in subparagraphs (a)
 and (c) of the Commercial Computer Software - Restricted
 Rights clause in FAR 52.227-19.
  
 Gaussian, Inc.
 340 Quinnipiac St., Bldg. 40, Wallingford CT 06492
  
  
 ---------------------------------------------------------------
 Warning -- This program may not be used in any manner that
 competes with the business of Gaussian, Inc. or will provide
 assistance to any competitor of Gaussian, Inc.  The licensee
 of this program is prohibited from giving any competitor of
 Gaussian, Inc. access to this program.  By using this program,
 the user acknowledges that Gaussian, Inc. is engaged in the
 business of creating and licensing software in the field of
 computational chemistry and represents and warrants to the
 licensee that it is not a competitor of Gaussian, Inc. and that
 it will not use this program in any manner prohibited above.
 ---------------------------------------------------------------
  

 Cite this work as:
 Gaussian 16, Revision C.01,
 M. J. Frisch, G. W. Trucks, H. B. Schlegel, G. E. Scuseria, 
 M. A. Robb, J. R. Cheeseman, G. Scalmani, V. Barone, 
 G. A. Petersson, H. Nakatsuji, X. Li, M. Caricato, A. V. Marenich, 
 J. Bloino, B. G. Janesko, R. Gomperts, B. Mennucci, H. P. Hratchian, 
 J. V. Ortiz, A. F. Izmaylov, J. L. Sonnenberg, D. Williams-Young, 
 F. Ding, F. Lipparini, F. Egidi, J. Goings, B. Peng, A. Petrone, 
 T. Henderson, D. Ranasinghe, V. G. Zakrzewski, J. Gao, N. Rega, 
 G. Zheng, W. Liang, M. Hada, M. Ehara, K. Toyota, R. Fukuda, 
 J. Hasegawa, M. Ishida, T. Nakajima, Y. Honda, O. Kitao, H. Nakai, 
 T. Vreven, K. Throssell, J. A. Montgomery, Jr., J. E. Peralta, 
 F. Ogliaro, M. J. Bearpark, J. J. Heyd, E. N. Brothers, K. N. Kudin, 
 V. N. Staroverov, T. A. Keith, R. Kobayashi, J. Normand, 
 K. Raghavachari, A. P. Rendell, J. C. Burant, S. S. Iyengar, 
 J. Tomasi, M. Cossi, J. M. Millam, M. Klene, C. Adamo, R. Cammi, 
 J. W. Ochterski, R. L. Martin, K. Morokuma, O. Farkas, 
 J. B. Foresman, and D. J. Fox, Gaussian, Inc., Wallingford CT, 2019.
 
 ******************************************
 Gaussian 16:  ES64L-G16RevC.01  3-Jul-2019
                17-Oct-2021 
 ******************************************
 %chk=_2_alde1_3_ami3_2_opt_dcm.chk
 %mem=60000mb
 %nprocshared=32
 Will use up to   32 processors via shared memory.
 ----------------------------------------------------------------------
 #P PBE1PBE/Def2TZVP SP SCF=(YQC,MaxCycle=900) int=(Grid=Superfinegrid)
  EmpiricalDispersion=GD3 SCRF=(PCM,Solvent=Dichloromethane)
 ----------------------------------------------------------------------
 1/38=1,172=1/1;
 2/12=2,17=6,18=5,40=1/2;
 3/5=44,7=101,11=2,25=1,30=1,70=2201,72=9,74=-13,75=-7,124=31/1,2,3;
 4//1;
 5/5=2,7=900,8=4,13=1,38=1,53=9/8,2,8;
 6/7=2,8=2,9=2,10=2,28=1/1;
 99/5=1,9=1/99;
 Leave Link    1 at Sun Oct 17 21:08:58 2021, MaxMem=  7864320000 cpu:               5.4 elap:               0.2
 (Enter /apps/gaussian/g16-c01-avx/g16/l101.exe)
 -------------------------
 _2_alde1_3_ami3_2_opt_dcm
 -------------------------
 Symbolic Z-matrix:
 Charge =  0 Multiplicity = 1
 C                    -3.5553   -1.6797   -0.7664 
 C                    -3.8446   -1.2816    0.6026 
 C                    -2.7189   -2.7583   -1.0475 
 C                    -2.3659   -3.0454   -2.3619 
 H                    -2.3457   -3.3516   -0.2267 
 C                    -2.8178   -2.2271   -3.3988 
 C                    -3.6593   -1.1537   -3.1327 
 H                    -2.5007   -2.4498   -4.4076 
 C                    -4.0434   -0.9068   -1.8155 
 C                    -4.055    -0.2336   -4.1917 
 H                    -4.7024   -0.0734   -1.6284 
 C                    -1.4918   -4.1872   -2.6655 
 H                    -3.4435   -0.2759   -5.1062 
 H                    -4.5737   -0.4651    0.7101 
 C                    -1.2342    1.6456    0.0213 
 C                    -1.2258    0.8695    1.2536 
 C                    -2.4458    1.9754   -0.5842 
 C                    -2.4751    2.578    -1.8366 
 H                    -3.3585    1.7164   -0.0709 
 C                    -1.2748    2.9131   -2.4617 
 C                    -0.0583    2.6368   -1.8473 
 H                    -1.3143    3.3799   -3.434 
 C                    -0.0452    1.9797   -0.616 
 C                     1.1908    3.0064   -2.4999 
 H                     0.9106    1.7438   -0.1734 
 C                    -3.7538    2.7503   -2.5062 
 H                    -4.6387    2.5336   -1.888 
 C                    -2.241    -0.1802    3.0711 
 C                    -3.4299   -1.1548    2.8712 
 N                    -2.2541    0.7309    1.9703 
 H                    -1.3064   -0.7692    3.0985 
 C                    -2.4193    0.5497    4.4028 
 N                    -3.2456   -1.7772    1.597 
 H                    -4.353    -0.549     2.8933 
 C                    -3.4444   -2.1763    4.0032 
 H                    -3.3436    1.1287    4.3676 
 C                    -2.4634   -0.4552    5.5498 
 H                    -2.5165   -2.7496    3.9725 
 C                    -3.5881   -1.467     5.3462 
 H                    -2.6064    0.0738    6.4941 
 H                    -1.5081   -0.9827    5.6027 
 H                    -3.5763   -2.2014    6.1539 
 H                    -4.5497   -0.9493    5.3787 
 O                    -1.1114   -4.5005   -3.7643 
 C                    -5.2302    1.5891   -5.0431 
 C                    -5.1471    2.9662   -4.3366 
 N                    -4.9962    0.5923   -4.0468 
 H                    -4.462     1.5566   -5.8365 
 C                    -6.6165    1.4361   -5.6694 
 N                    -3.8545    3.0477   -3.7288 
 H                    -5.9507    2.992    -3.5789 
 C                    -5.3582    4.0744   -5.3628 
 H                    -7.3673    1.4689   -4.8781 
 C                    -6.8601    2.5511   -6.6815 
 H                    -4.564     4.019    -6.1089 
 C                    -6.7238    3.9227   -6.0255 
 H                    -6.1339    2.465    -7.4931 
 H                    -7.8576    2.4426   -7.1119 
 H                    -6.8593    4.706    -6.7737 
 H                    -7.5052    4.0414   -5.2712 
 C                     4.2898    1.8233   -3.0176 
 C                     3.521     3.1079   -2.655 
 N                     3.5229    1.0948   -4.0184 
 H                     4.4298    1.2478   -2.0844 
 C                     5.6565    2.1756   -3.6035 
 N                     2.3117    2.7372   -1.9883 
 H                     3.3226    3.6612   -3.5901 
 C                     4.3516    3.97     -1.6991 
 H                     5.4978    2.7082   -4.5428 
 C                     6.4698    3.0365   -2.6444 
 H                     4.4857    3.4168   -0.7678 
 C                     5.7065    4.3119   -2.3052 
 H                     7.4321    3.2839   -3.0967 
 H                     6.6637    2.4757   -1.727 
 H                     6.2805    4.9173   -1.6008 
 H                     5.5608    4.9      -3.2141 
 H                    -0.2737    0.3686    1.4896 
 H                     2.6071    0.8577   -3.6512 
 H                     1.0915    3.5321   -3.4617 
 H                    -1.1936   -4.7674   -1.7697 
 H                    -1.5899    1.2469    4.5402 
 H                    -4.2735   -2.8696    3.8495 
 H                    -6.6821    0.4605   -6.1561 
 H                    -5.2837    5.0424   -4.8636 
 H                     6.1959    1.2529   -3.8299 
 H                     3.7944    4.881    -1.4707 
 H                     3.9943    0.2298   -4.2603 
 
 ITRead=  0  0  0  0  0  0  0  0  0  0  0  0  0  0  0  0  0  0  0  0
 ITRead=  0  0  0  0  0  0  0  0  0  0  0  0  0  0  0  0  0  0  0  0
 ITRead=  0  0  0  0  0  0  0  0  0  0  0  0  0  0  0  0  0  0  0  0
 ITRead=  0  0  0  0  0  0  0  0  0  0  0  0  0  0  0  0  0  0  0  0
 ITRead=  0  0  0  0  0  0  0
 MicOpt= -1 -1 -1 -1 -1 -1 -1 -1 -1 -1 -1 -1 -1 -1 -1 -1 -1 -1 -1 -1
 MicOpt= -1 -1 -1 -1 -1 -1 -1 -1 -1 -1 -1 -1 -1 -1 -1 -1 -1 -1 -1 -1
 MicOpt= -1 -1 -1 -1 -1 -1 -1 -1 -1 -1 -1 -1 -1 -1 -1 -1 -1 -1 -1 -1
 MicOpt= -1 -1 -1 -1 -1 -1 -1 -1 -1 -1 -1 -1 -1 -1 -1 -1 -1 -1 -1 -1
 MicOpt= -1 -1 -1 -1 -1 -1 -1
 NAtoms=     87 NQM=       87 NQMF=       0 NMMI=      0 NMMIF=      0
                NMic=       0 NMicF=      0.
                    Isotopes and Nuclear Properties:
 (Nuclear quadrupole moments (NQMom) in fm**2, nuclear magnetic moments (NMagM)
  in nuclear magnetons)

  Atom         1           2           3           4           5           6           7           8           9          10
 IAtWgt=          12          12          12          12           1          12          12           1          12          12
 AtmWgt=  12.0000000  12.0000000  12.0000000  12.0000000   1.0078250  12.0000000  12.0000000   1.0078250  12.0000000  12.0000000
 NucSpn=           0           0           0           0           1           0           0           1           0           0
 AtZEff=  -0.0000000  -0.0000000  -0.0000000  -0.0000000  -0.0000000  -0.0000000  -0.0000000  -0.0000000  -0.0000000  -0.0000000
 NQMom=    0.0000000   0.0000000   0.0000000   0.0000000   0.0000000   0.0000000   0.0000000   0.0000000   0.0000000   0.0000000
 NMagM=    0.0000000   0.0000000   0.0000000   0.0000000   2.7928460   0.0000000   0.0000000   2.7928460   0.0000000   0.0000000
 AtZNuc=   6.0000000   6.0000000   6.0000000   6.0000000   1.0000000   6.0000000   6.0000000   1.0000000   6.0000000   6.0000000

  Atom        11          12          13          14          15          16          17          18          19          20
 IAtWgt=           1          12           1           1          12          12          12          12           1          12
 AtmWgt=   1.0078250  12.0000000   1.0078250   1.0078250  12.0000000  12.0000000  12.0000000  12.0000000   1.0078250  12.0000000
 NucSpn=           1           0           1           1           0           0           0           0           1           0
 AtZEff=  -0.0000000  -0.0000000  -0.0000000  -0.0000000  -0.0000000  -0.0000000  -0.0000000  -0.0000000  -0.0000000  -0.0000000
 NQMom=    0.0000000   0.0000000   0.0000000   0.0000000   0.0000000   0.0000000   0.0000000   0.0000000   0.0000000   0.0000000
 NMagM=    2.7928460   0.0000000   2.7928460   2.7928460   0.0000000   0.0000000   0.0000000   0.0000000   2.7928460   0.0000000
 AtZNuc=   1.0000000   6.0000000   1.0000000   1.0000000   6.0000000   6.0000000   6.0000000   6.0000000   1.0000000   6.0000000

  Atom        21          22          23          24          25          26          27          28          29          30
 IAtWgt=          12           1          12          12           1          12           1          12          12          14
 AtmWgt=  12.0000000   1.0078250  12.0000000  12.0000000   1.0078250  12.0000000   1.0078250  12.0000000  12.0000000  14.0030740
 NucSpn=           0           1           0           0           1           0           1           0           0           2
 AtZEff=  -0.0000000  -0.0000000  -0.0000000  -0.0000000  -0.0000000  -0.0000000  -0.0000000  -0.0000000  -0.0000000  -0.0000000
 NQMom=    0.0000000   0.0000000   0.0000000   0.0000000   0.0000000   0.0000000   0.0000000   0.0000000   0.0000000   2.0440000
 NMagM=    0.0000000   2.7928460   0.0000000   0.0000000   2.7928460   0.0000000   2.7928460   0.0000000   0.0000000   0.4037610
 AtZNuc=   6.0000000   1.0000000   6.0000000   6.0000000   1.0000000   6.0000000   1.0000000   6.0000000   6.0000000   7.0000000

  Atom        31          32          33          34          35          36          37          38          39          40
 IAtWgt=           1          12          14           1          12           1          12           1          12           1
 AtmWgt=   1.0078250  12.0000000  14.0030740   1.0078250  12.0000000   1.0078250  12.0000000   1.0078250  12.0000000   1.0078250
 NucSpn=           1           0           2           1           0           1           0           1           0           1
 AtZEff=  -0.0000000  -0.0000000  -0.0000000  -0.0000000  -0.0000000  -0.0000000  -0.0000000  -0.0000000  -0.0000000  -0.0000000
 NQMom=    0.0000000   0.0000000   2.0440000   0.0000000   0.0000000   0.0000000   0.0000000   0.0000000   0.0000000   0.0000000
 NMagM=    2.7928460   0.0000000   0.4037610   2.7928460   0.0000000   2.7928460   0.0000000   2.7928460   0.0000000   2.7928460
 AtZNuc=   1.0000000   6.0000000   7.0000000   1.0000000   6.0000000   1.0000000   6.0000000   1.0000000   6.0000000   1.0000000

  Atom        41          42          43          44          45          46          47          48          49          50
 IAtWgt=           1           1           1          16          12          12          14           1          12          14
 AtmWgt=   1.0078250   1.0078250   1.0078250  15.9949146  12.0000000  12.0000000  14.0030740   1.0078250  12.0000000  14.0030740
 NucSpn=           1           1           1           0           0           0           2           1           0           2
 AtZEff=  -0.0000000  -0.0000000  -0.0000000  -0.0000000  -0.0000000  -0.0000000  -0.0000000  -0.0000000  -0.0000000  -0.0000000
 NQMom=    0.0000000   0.0000000   0.0000000   0.0000000   0.0000000   0.0000000   2.0440000   0.0000000   0.0000000   2.0440000
 NMagM=    2.7928460   2.7928460   2.7928460   0.0000000   0.0000000   0.0000000   0.4037610   2.7928460   0.0000000   0.4037610
 AtZNuc=   1.0000000   1.0000000   1.0000000   8.0000000   6.0000000   6.0000000   7.0000000   1.0000000   6.0000000   7.0000000

  Atom        51          52          53          54          55          56          57          58          59          60
 IAtWgt=           1          12           1          12           1          12           1           1           1           1
 AtmWgt=   1.0078250  12.0000000   1.0078250  12.0000000   1.0078250  12.0000000   1.0078250   1.0078250   1.0078250   1.0078250
 NucSpn=           1           0           1           0           1           0           1           1           1           1
 AtZEff=  -0.0000000  -0.0000000  -0.0000000  -0.0000000  -0.0000000  -0.0000000  -0.0000000  -0.0000000  -0.0000000  -0.0000000
 NQMom=    0.0000000   0.0000000   0.0000000   0.0000000   0.0000000   0.0000000   0.0000000   0.0000000   0.0000000   0.0000000
 NMagM=    2.7928460   0.0000000   2.7928460   0.0000000   2.7928460   0.0000000   2.7928460   2.7928460   2.7928460   2.7928460
 AtZNuc=   1.0000000   6.0000000   1.0000000   6.0000000   1.0000000   6.0000000   1.0000000   1.0000000   1.0000000   1.0000000

  Atom        61          62          63          64          65          66          67          68          69          70
 IAtWgt=          12          12          14           1          12          14           1          12           1          12
 AtmWgt=  12.0000000  12.0000000  14.0030740   1.0078250  12.0000000  14.0030740   1.0078250  12.0000000   1.0078250  12.0000000
 NucSpn=           0           0           2           1           0           2           1           0           1           0
 AtZEff=  -0.0000000  -0.0000000  -0.0000000  -0.0000000  -0.0000000  -0.0000000  -0.0000000  -0.0000000  -0.0000000  -0.0000000
 NQMom=    0.0000000   0.0000000   2.0440000   0.0000000   0.0000000   2.0440000   0.0000000   0.0000000   0.0000000   0.0000000
 NMagM=    0.0000000   0.0000000   0.4037610   2.7928460   0.0000000   0.4037610   2.7928460   0.0000000   2.7928460   0.0000000
 AtZNuc=   6.0000000   6.0000000   7.0000000   1.0000000   6.0000000   7.0000000   1.0000000   6.0000000   1.0000000   6.0000000

  Atom        71          72          73          74          75          76          77          78          79          80
 IAtWgt=           1          12           1           1           1           1           1           1           1           1
 AtmWgt=   1.0078250  12.0000000   1.0078250   1.0078250   1.0078250   1.0078250   1.0078250   1.0078250   1.0078250   1.0078250
 NucSpn=           1           0           1           1           1           1           1           1           1           1
 AtZEff=  -0.0000000  -0.0000000  -0.0000000  -0.0000000  -0.0000000  -0.0000000  -0.0000000  -0.0000000  -0.0000000  -0.0000000
 NQMom=    0.0000000   0.0000000   0.0000000   0.0000000   0.0000000   0.0000000   0.0000000   0.0000000   0.0000000   0.0000000
 NMagM=    2.7928460   0.0000000   2.7928460   2.7928460   2.7928460   2.7928460   2.7928460   2.7928460   2.7928460   2.7928460
 AtZNuc=   1.0000000   6.0000000   1.0000000   1.0000000   1.0000000   1.0000000   1.0000000   1.0000000   1.0000000   1.0000000

  Atom        81          82          83          84          85          86          87
 IAtWgt=           1           1           1           1           1           1           1
 AtmWgt=   1.0078250   1.0078250   1.0078250   1.0078250   1.0078250   1.0078250   1.0078250
 NucSpn=           1           1           1           1           1           1           1
 AtZEff=  -0.0000000  -0.0000000  -0.0000000  -0.0000000  -0.0000000  -0.0000000  -0.0000000
 NQMom=    0.0000000   0.0000000   0.0000000   0.0000000   0.0000000   0.0000000   0.0000000
 NMagM=    2.7928460   2.7928460   2.7928460   2.7928460   2.7928460   2.7928460   2.7928460
 AtZNuc=   1.0000000   1.0000000   1.0000000   1.0000000   1.0000000   1.0000000   1.0000000
 Leave Link  101 at Sun Oct 17 21:08:59 2021, MaxMem=  7864320000 cpu:               2.0 elap:               0.1
 (Enter /apps/gaussian/g16-c01-avx/g16/l202.exe)
 Stoichiometry    C36H44N6O
 Framework group  C1[X(C36H44N6O)]
 Deg. of freedom   255
 Full point group                 C1      NOp   1
 Largest Abelian subgroup         C1      NOp   1
 Largest concise Abelian subgroup C1      NOp   1
                         Standard orientation:                         
 ---------------------------------------------------------------------
 Center     Atomic      Atomic             Coordinates (Angstroms)
 Number     Number       Type             X           Y           Z
 ---------------------------------------------------------------------
      1          6           0       -2.733332    1.064861    1.458540
      2          6           0       -3.098842    2.080956    0.483710
      3          6           0       -2.252880    1.408999    2.720559
      4          6           0       -1.801249    0.421646    3.589953
      5          1           0       -2.228693    2.451637    2.998621
      6          6           0       -1.791499   -0.913578    3.182433
      7          6           0       -2.275932   -1.270832    1.929911
      8          1           0       -1.402544   -1.657908    3.862516
      9          6           0       -2.769927   -0.275789    1.087671
     10          6           0       -2.177503   -2.645209    1.454472
     11          1           0       -3.148138   -0.572253    0.121799
     12          6           0       -1.302212    0.777426    4.925735
     13          1           0       -1.471388   -3.285483    2.005364
     14          1           0       -3.534902    1.699448   -0.451233
     15          6           0        0.370106    1.276524   -1.259817
     16          6           0       -0.071791    2.651466   -1.072127
     17          6           0       -0.555953    0.287385   -1.587522
     18          6           0       -0.185904   -1.052238   -1.618581
     19          1           0       -1.574297    0.586955   -1.779390
     20          6           0        1.143418   -1.399413   -1.381653
     21          6           0        2.089750   -0.419158   -1.103703
     22          1           0        1.414743   -2.443672   -1.408756
     23          6           0        1.690553    0.915621   -1.019684
     24          6           0        3.480151   -0.789436   -0.874747
     25          1           0        2.434595    1.656126   -0.768385
     26          6           0       -1.214617   -2.063749   -1.796689
     27          1           0       -2.210563   -1.676637   -2.062048
     28          6           0       -1.651914    4.365199   -1.118396
     29          6           0       -3.041116    4.191534   -0.452630
     30          7           0       -1.192560    3.061216   -1.479866
     31          1           0       -0.973163    4.846844   -0.391440
     32          6           0       -1.801394    5.265120   -2.345493
     33          7           0       -2.860948    3.308331    0.657517
     34          1           0       -3.711820    3.751830   -1.211848
     35          6           0       -3.566704    5.553626   -0.012677
     36          1           0       -2.472468    4.782693   -3.058048
     37          6           0       -2.351724    6.626928   -1.933189
     38          1           0       -2.879699    5.975837    0.722426
     39          6           0       -3.692346    6.480217   -1.218101
     40          1           0       -2.469514    7.256617   -2.817275
     41          1           0       -1.638100    7.116223   -1.266118
     42          1           0       -4.048475    7.460054   -0.894134
     43          1           0       -4.428915    6.069331   -1.912640
     44          8           0       -0.868566    0.000395    5.737152
     45          6           0       -2.550878   -4.354241   -0.084364
     46          6           0       -2.147025   -4.165407   -1.568849
     47          7           0       -2.814553   -3.054451    0.446676
     48          1           0       -1.715152   -4.845983    0.445186
     49          6           0       -3.791342   -5.245465   -0.017593
     50          7           0       -1.013897   -3.292148   -1.586728
     51          1           0       -3.012109   -3.713192   -2.086226
     52          6           0       -1.821392   -5.523767   -2.180877
     53          1           0       -4.610394   -4.750942   -0.542506
     54          6           0       -3.496153   -6.602375   -0.648918
     55          1           0       -0.976460   -5.958041   -1.644235
     56          6           0       -3.036190   -6.442491   -2.095663
     57          1           0       -2.713833   -7.103735   -0.074385
     58          1           0       -4.391509   -7.225980   -0.610497
     59          1           0       -2.789506   -7.419406   -2.515788
     60          1           0       -3.850221   -6.018904   -2.688597
     61          6           0        6.076854   -0.001997    1.102274
     62          6           0        5.712234   -0.324508   -0.359153
     63          7           0        5.290890   -0.864025    1.973834
     64          1           0        5.870828    1.071703    1.264706
     65          6           0        7.560564   -0.274151    1.346818
     66          7           0        4.356318    0.069739   -0.583597
     67          1           0        5.856961   -1.408366   -0.514786
     68          6           0        6.607789    0.469083   -1.315736
     69          1           0        7.736382   -1.343845    1.220425
     70          6           0        8.439070    0.517982    0.385970
     71          1           0        6.403717    1.531857   -1.173615
     72          6           0        8.080447    0.179072   -1.056548
     73          1           0        9.490030    0.290822    0.574875
     74          1           0        8.290626    1.587245    0.554368
     75          1           0        8.695280    0.763611   -1.743905
     76          1           0        8.281232   -0.878632   -1.241306
     77          1           0        0.617523    3.295474   -0.503628
     78          1           0        4.300495   -0.704150    1.821189
     79          1           0        3.712850   -1.860724   -0.972085
     80          1           0       -1.356035    1.862477    5.144322
     81          1           0       -0.826377    5.378530   -2.824400
     82          1           0       -4.537532    5.424312    0.469469
     83          1           0       -4.085980   -5.368663    1.026909
     84          1           0       -1.522924   -5.384297   -3.221665
     85          1           0        7.804957   -0.015394    2.379728
     86          1           0        6.342710    0.211231   -2.343260
     87          1           0        5.492859   -0.657517    2.946213
 ---------------------------------------------------------------------
 Rotational constants (GHZ):           0.0612012           0.0522700           0.0370994
 Leave Link  202 at Sun Oct 17 21:08:59 2021, MaxMem=  7864320000 cpu:               0.2 elap:               0.0
 (Enter /apps/gaussian/g16-c01-avx/g16/l301.exe)
 Standard basis: def2TZVP (5D, 7F)
 Ernie: Thresh=  0.10000D-02 Tol=  0.10000D-05 Strict=F.
 There are  1812 symmetry adapted cartesian basis functions of A   symmetry.
 There are  1597 symmetry adapted basis functions of A   symmetry.
  1597 basis functions,  2545 primitive gaussians,  1812 cartesian basis functions
   155 alpha electrons      155 beta electrons
       nuclear repulsion energy      4951.1819139863 Hartrees.
 IExCor= 1009 DFT=T Ex+Corr=PBE1PBE ExCW=0 ScaHFX=  0.250000
 ScaDFX=  0.750000  0.750000  1.000000  1.000000 ScalE2=  1.000000  1.000000
 IRadAn=      7 IRanWt=     -1 IRanGd=            0 ICorTp=0 IEmpDi=131
 NAtoms=   87 NActive=   87 NUniq=   87 SFac= 1.00D+00 NAtFMM=   60 NAOKFM=T Big=T
 Integral buffers will be    131072 words long.
 Raffenetti 2 integral format.
 Two-electron integral symmetry is turned on.
 R6Disp:  Grimme-D3 Dispersion energy=       -0.0662136609 Hartrees.
 Nuclear repulsion after empirical dispersion term =     4951.1157003255 Hartrees.
 ------------------------------------------------------------------------------
 Polarizable Continuum Model (PCM)
 =================================
 Model                : PCM.
 Atomic radii         : UFF (Universal Force Field).
 Polarization charges : Total charges.
 Charge compensation  : None.
 Solution method      : On-the-fly selection.
 Cavity type          : Scaled VdW (van der Waals Surface) (Alpha=1.100).
 Cavity algorithm     : GePol (No added spheres)
                        Default sphere list used, NSphG=   87.
                        Lebedev-Laikov grids with approx.  5.0 points / Ang**2.
                        Smoothing algorithm: York/Karplus (Gamma=1.0000).
                        Polarization charges: spherical gaussians, with
                                              point-specific exponents (IZeta= 3).
                        Self-potential: point-specific (ISelfS= 7).
                        Self-field    : sphere-specific E.n sum rule (ISelfD= 2).
 Solvent              : Dichloromethane, Eps=   8.930000 Eps(inf)=   2.028346
 ------------------------------------------------------------------------------
 GePol: Number of generator spheres                  =      87
 GePol: Total number of spheres                      =      87
 GePol: Number of exposed spheres                    =      87 (100.00%)
 GePol: Number of points                             =    5409
 GePol: Average weight of points                     =       0.13
 GePol: Minimum weight of points                     =   0.44D-11
 GePol: Maximum weight of points                     =    0.20577
 GePol: Number of points with low weight             =     402
 GePol: Fraction of low-weight points (<1% of avg)   =       7.43%
 GePol: Cavity surface area                          =    701.396 Ang**2
 GePol: Cavity volume                                =    825.110 Ang**3
 Leave Link  301 at Sun Oct 17 21:08:59 2021, MaxMem=  7864320000 cpu:               4.0 elap:               0.1
 (Enter /apps/gaussian/g16-c01-avx/g16/l302.exe)
 NPDir=0 NMtPBC=     1 NCelOv=     1 NCel=       1 NClECP=     1 NCelD=      1
         NCelK=      1 NCelE2=     1 NClLst=     1 CellRange=     0.0.
 One-electron integrals computed using PRISM.
 One-electron integral symmetry used in STVInt
   1 Symmetry operations used in ECPInt.
 ECPInt:  NShTT=  210925 NPrTT=  633328 LenC2=  145004 LenP2D=  287506.
 LDataN:  DoStor=T MaxTD1= 6 Len=  172
 NBasis=  1597 RedAO= T EigKep=  5.16D-06  NBF=  1597
 NBsUse=  1597 1.00D-06 EigRej= -1.00D+00 NBFU=  1597
 Precomputing XC quadrature grid using
 IXCGrd= 4 IRadAn=           7 IRanWt=          -1 IRanGd=           0 AccXCQ= 0.00D+00.
 Generated NRdTot=       0 NPtTot=           0 NUsed=           0 NTot=          32
 NSgBfM=  1711  1711  1711  1711  1711 MxSgAt=    87 MxSgA2=    87.
 Leave Link  302 at Sun Oct 17 21:09:05 2021, MaxMem=  7864320000 cpu:             208.4 elap:               6.6
 (Enter /apps/gaussian/g16-c01-avx/g16/l303.exe)
 DipDrv:  MaxL=1.
 Leave Link  303 at Sun Oct 17 21:09:06 2021, MaxMem=  7864320000 cpu:              11.0 elap:               0.5
 (Enter /apps/gaussian/g16-c01-avx/g16/l401.exe)
 ExpMin= 9.52D-02 ExpMax= 2.70D+04 ExpMxC= 9.22D+02 IAcc=3 IRadAn=         7 AccDes= 0.00D+00
 Harris functional with IExCor= 1009 and IRadAn=       7 diagonalized for initial guess.
 HarFok:  IExCor= 1009 AccDes= 0.00D+00 IRadAn=         7 IDoV= 1 UseB2=F ITyADJ=14
 ICtDFT=  3500011 ScaDFX=  1.000000  1.000000  1.000000  1.000000
 FoFCou: FMM=F IPFlag=           0 FMFlag=      100000 FMFlg1=        2001
         NFxFlg=           0 DoJE=T BraDBF=F KetDBF=T FulRan=T
         wScrn=  0.000000 ICntrl=       500 IOpCl=  0 I1Cent=   200000004 NGrid=           0
         NMat0=    1 NMatS0=      1 NMatT0=    0 NMatD0=    1 NMtDS0=    0 NMtDT0=    0
 Petite list used in FoFCou.
 Harris En= -1801.14622354707    
 JPrj=0 DoOrth=F DoCkMO=F.
 Leave Link  401 at Sun Oct 17 21:09:28 2021, MaxMem=  7864320000 cpu:             689.8 elap:              21.7
 (Enter /apps/gaussian/g16-c01-avx/g16/l508.exe)
 Integral symmetry usage will be decided dynamically.
 Tight linear equation convergence will be used.
 RPBE1PBE wavefunction.
 Linear searches until partial convergence.
 Full line searches.
 Fock matrices will be formed incrementally for  20 cycles.
 Inv3:  Mode=1 IEnd=    87771843.
 Iteration    1 A*A^-1 deviation from unit magnitude is 1.20D-14 for   5408.
 Iteration    1 A*A^-1 deviation from orthogonality  is 3.45D-15 for   5400   5376.
 Iteration    1 A^-1*A deviation from unit magnitude is 1.19D-14 for   5408.
 Iteration    1 A^-1*A deviation from orthogonality  is 3.04D-15 for   5391   4204.
 FoFJK:  IHMeth= 1 ICntrl=       0 DoSepK=F KAlg= 0 I1Cent=           0 FoldK=F
 IRaf= 660000000 NMat=       1 IRICut=       1 DoRegI=T DoRafI=F ISym2E= 1 IDoP0=0 IntGTp=1.
 Iteration   1 EE= -1799.68398488694                                    Grad=1.449D+00 Max rot=    2.4896 deg.
 Gradient too large for Newton-Raphson -- use scaled steepest descent instead.
 Alpha Gap=     0.175 HL deriv= 3.20D-03
     ILin= 1 X=0.000D+00 Y=-1.799683984887D+03 DE= 0.00D+00 F= -4.04D+00
 RMSU=  5.84D-04    CP:  1.00D+00
     ILin= 2 X=3.000D-01 Y=-1.800483195242D+03 DE=-7.99D-01 F= -1.28D+00 OKLS=F
 RMSU=  8.98D-05    CP:  1.00D+00  1.73D+00
     ILin= 3 X=5.000D-01 Y=-1.800551127536D+03 DE=-8.67D-01 F=  5.99D-01
     Accept linear search using points  2 and  3.
     An  expanding polynomial of degree  3 produced  0.3926
 RMSU=  4.52D-08    CP:  1.00D+00  1.33D+00  3.64D-01
 Iteration   2 EE= -1800.56126451235     Delta-E=       -0.877279625410 Grad=4.712D-01 Max rot=    1.7271 deg.
 Gradient too large for Newton-Raphson -- use scaled steepest descent instead.
 Alpha Gap=     0.195 HL deriv= 4.41D-03
     ILin= 1 X=0.000D+00 Y=-1.800561264512D+03 DE= 0.00D+00 F= -2.16D-01
 RMSU=  1.14D-04    CP:  1.00D+00  1.58D+00  8.46D-01 -3.00D+00
     ILin= 2 X=3.000D-01 Y=-1.800609702010D+03 DE=-4.84D-02 F= -1.07D-01 OKLS=F
 RMSU=  1.59D-05    CP:  1.00D+00  1.93D+00  1.76D+00 -3.00D+00  2.37D+00
     ILin= 3 X=7.000D-01 Y=-1.800623721556D+03 DE=-6.25D-02 F=  3.70D-02
     Accept linear search using points  2 and  3.
     An  expanding polynomial of degree  3 produced  0.5106
 RMSU=  3.29D-08    CP:  1.00D+00  1.76D+00  1.29D+00 -3.00D+00  1.72D+00
                    CP:  3.84D-01
 Iteration   3 EE= -1800.62427083941     Delta-E=       -0.063006327056 Grad=1.999D-01 Max rot=    0.7803 deg.
 Gradient too large for Newton-Raphson -- use scaled steepest descent instead.
 Alpha Gap=     0.187 HL deriv= 3.15D-03
     ILin= 1 X=0.000D+00 Y=-1.800624270839D+03 DE= 0.00D+00 F= -3.25D-02
 RMSU=  6.19D-05    CP:  1.00D+00  1.98D+00  1.95D+00 -3.00D+00  2.17D+00
                    CP:  6.51D-01 -3.00D+00
     ILin= 2 X=4.000D-01 Y=-1.800632239183D+03 DE=-7.97D-03 F= -7.35D-03 OKLS=F
 RMSU=  4.29D-06    CP:  1.01D+00  2.25D+00  2.91D+00 -3.00D+00  2.75D+00
                    CP:  1.29D+00 -3.00D+00  2.27D+00
     ILin= 3 X=9.000D-01 Y=-1.800628046666D+03 DE=-3.78D-03 F=  2.41D-02
     An  expanding polynomial of degree  3 produced  0.5167
 RMSU=  1.64D-08    CP:  1.00D+00  2.04D+00  2.16D+00 -3.00D+00  2.31D+00
                    CP:  7.70D-01 -3.00D+00  1.29D+00  1.34D-01
 Iteration   4 EE= -1800.63266909233     Delta-E=       -0.008398252923 Grad=9.923D-02 Max rot=    0.3615 deg.
 Gradient too large for Newton-Raphson -- use scaled steepest descent instead.
 Alpha Gap=     0.194 HL deriv= 2.10D-03
     ILin= 1 X=0.000D+00 Y=-1.800632669092D+03 DE= 0.00D+00 F= -9.57D-03
 RMSU=  3.02D-05    CP:  1.00D+00  2.08D+00  2.35D+00 -3.00D+00  2.78D+00
                    CP:  1.49D+00 -3.00D+00  1.39D+00  2.37D-02  3.00D+00
     ILin= 2 X=5.000D-01 Y=-1.800634572867D+03 DE=-1.90D-03 F=  1.94D-03 OKLS=T
     Accept linear search using points  1 and  2.
     An  expanding polynomial of degree  2 produced  0.3008
 RMSU=  1.39D-07    CP:  1.00D+00  2.07D+00  2.27D+00 -3.00D+00  2.59D+00
                    CP:  1.19D+00 -3.00D+00  1.35D+00  5.75D-02  3.00D+00
                    CP:  6.01D-01
 Iteration   5 EE= -1800.63450408928     Delta-E=       -0.001834996950 Grad=5.968D-02 Max rot=    0.2450 deg.
 Gradient too large for Newton-Raphson -- use scaled steepest descent instead.
 Alpha Gap=     0.191 HL deriv= 7.97D-05
     ILin= 1 X=0.000D+00 Y=-1.800634504089D+03 DE= 0.00D+00 F= -1.76D-03
 RMSU=  6.15D-06    CP:  1.00D+00  2.13D+00  2.51D+00 -3.00D+00  2.82D+00
                    CP:  1.56D+00 -3.00D+00  1.61D+00  8.17D-02  3.00D+00
                    CP:  9.59D-01  3.00D+00
     ILin= 2 X=4.000D-01 Y=-1.800635060790D+03 DE=-5.57D-04 F= -1.03D-03 OKLS=F
 RMSU=  6.15D-06    CP:  1.00D+00  2.19D+00  2.76D+00 -3.00D+00  3.00D+00
                    CP:  1.97D+00 -3.00D+00  1.87D+00  1.63D-01  3.00D+00
                    CP:  1.32D+00  3.00D+00  2.01D+00
     ILin= 3 X=8.000D-01 Y=-1.800635324837D+03 DE=-8.21D-04 F= -2.94D-04
 RMSU=  4.85D-05    CP:  1.00D+00  2.31D+00  3.00D+00 -3.00D+00  3.00D+00
                    CP:  2.89D+00 -3.00D+00  2.38D+00  4.95D-01  3.00D+00
                    CP:  2.05D+00  3.00D+00  3.00D+00  3.00D+00
     ILin= 4 X=1.600D+00 Y=-1.800634974795D+03 DE=-4.71D-04 F=  1.17D-03
     An  expanding polynomial of degree  4 produced  0.9609
 RMSU=  3.16D-07    CP:  1.00D+00  2.21D+00  2.86D+00 -3.00D+00  3.00D+00
                    CP:  2.14D+00 -3.00D+00  1.97D+00  2.11D-01  3.00D+00
                    CP:  1.47D+00  3.00D+00  2.42D+00  2.73D+00  1.96D-04
 Iteration   6 EE= -1800.63534850426     Delta-E=       -0.000844414976 Grad=5.994D-03 Max rot=    0.0152 deg.
 SCF Done:  E(RPBE1PBE) =  -1800.63534850     a.u. after    6 cycles
            Convg  =    0.5994D-02                    16 Fock formations.
              S**2 =  0.0000                  -V/T =  2.0047
 Leave Link  508 at Sun Oct 17 21:33:52 2021, MaxMem=  7864320000 cpu:           46356.8 elap:            1464.1
 (Enter /apps/gaussian/g16-c01-avx/g16/l502.exe)
 Integral symmetry usage will be decided dynamically.
 Closed shell SCF:
 Using DIIS extrapolation, IDIIS=  1040.
 NGot=  7864320000 LenX=  7857677346 LenY=  7854392190
 Requested convergence on RMS density matrix=1.00D-08 within 128 cycles.
 Requested convergence on MAX density matrix=1.00D-06.
 Requested convergence on             energy=1.00D-06.
 No special actions if energy rises.
 Fock matrices will be formed incrementally for  20 cycles.

 Cycle   1  Pass 1  IDiag  1:
 FoFJK:  IHMeth= 1 ICntrl=       0 DoSepK=F KAlg= 0 I1Cent=           0 FoldK=F
 IRaf= 660000000 NMat=       1 IRICut=       1 DoRegI=T DoRafI=F ISym2E= 0 IDoP0=0 IntGTp=1.
 FoFCou: FMM=T IPFlag=           0 FMFlag=      100000 FMFlg1=        2001
         NFxFlg=           0 DoJE=F BraDBF=F KetDBF=F FulRan=T
         wScrn=  0.000000 ICntrl=         0 IOpCl=  0 I1Cent=           0 NGrid=           0
         NMat0=    1 NMatS0=      1 NMatT0=    0 NMatD0=    1 NMtDS0=    0 NMtDT0=    0
 Symmetry not used in FoFCou.
 FMM levels:  10  Number of levels for PrismC:   9
 E= -1800.63534850426    
 DIIS: error= 5.14D-05 at cycle   1 NSaved=   1.
 NSaved= 1 IEnMin= 1 EnMin= -1800.63534850426     IErMin= 1 ErrMin= 5.14D-05
 ErrMax= 5.14D-05  0.00D+00 EMaxC= 1.00D-01 BMatC= 1.80D-05 BMatP= 1.80D-05
 IDIUse=1 WtCom= 1.00D+00 WtEn= 0.00D+00
 Coeff-Com:  0.100D+01
 Coeff:      0.100D+01
 Gap=     0.192 Goal=   None    Shift=    0.000
 RMSDP=3.11D-05 MaxDP=5.81D-03              OVMax= 9.36D-04

 Cycle   2  Pass 1  IDiag  1:
 RMSU=  2.96D-05    CP:  1.00D+00
 E= -1800.63535584850     Delta-E=       -0.000007344231 Rises=F Damp=F
 DIIS: error= 8.75D-05 at cycle   2 NSaved=   2.
 NSaved= 2 IEnMin= 2 EnMin= -1800.63535584850     IErMin= 1 ErrMin= 5.14D-05
 ErrMax= 8.75D-05  0.00D+00 EMaxC= 1.00D-01 BMatC= 1.54D-05 BMatP= 1.80D-05
 IDIUse=1 WtCom= 1.00D+00 WtEn= 0.00D+00
 Coeff-Com:  0.475D+00 0.525D+00
 Coeff:      0.475D+00 0.525D+00
 Gap=     0.175 Goal=   None    Shift=    0.000
 RMSDP=7.40D-06 MaxDP=3.24D-03 DE=-7.34D-06 OVMax= 9.97D-04

 Cycle   3  Pass 1  IDiag  1:
 RMSU=  7.37D-06    CP:  1.00D+00  1.02D+00
 E= -1800.63536487617     Delta-E=       -0.000009027670 Rises=F Damp=F
 DIIS: error= 4.82D-05 at cycle   3 NSaved=   3.
 NSaved= 3 IEnMin= 3 EnMin= -1800.63536487617     IErMin= 3 ErrMin= 4.82D-05
 ErrMax= 4.82D-05  0.00D+00 EMaxC= 1.00D-01 BMatC= 3.98D-06 BMatP= 1.54D-05
 IDIUse=1 WtCom= 1.00D+00 WtEn= 0.00D+00
 Coeff-Com:  0.686D-01 0.335D+00 0.597D+00
 Coeff:      0.686D-01 0.335D+00 0.597D+00
 Gap=     0.175 Goal=   None    Shift=    0.000
 RMSDP=3.08D-06 MaxDP=1.53D-03 DE=-9.03D-06 OVMax= 4.32D-04

 Cycle   4  Pass 1  IDiag  1:
 RMSU=  1.10D-06    CP:  1.00D+00  1.08D+00  7.07D-01
 E= -1800.63536768878     Delta-E=       -0.000002812620 Rises=F Damp=F
 DIIS: error= 8.99D-06 at cycle   4 NSaved=   4.
 NSaved= 4 IEnMin= 4 EnMin= -1800.63536768878     IErMin= 4 ErrMin= 8.99D-06
 ErrMax= 8.99D-06  0.00D+00 EMaxC= 1.00D-01 BMatC= 2.38D-07 BMatP= 3.98D-06
 IDIUse=1 WtCom= 1.00D+00 WtEn= 0.00D+00
 Coeff-Com:  0.695D-02 0.145D+00 0.319D+00 0.529D+00
 Coeff:      0.695D-02 0.145D+00 0.319D+00 0.529D+00
 Gap=     0.175 Goal=   None    Shift=    0.000
 RMSDP=6.18D-07 MaxDP=2.45D-04 DE=-2.81D-06 OVMax= 8.99D-05

 Cycle   5  Pass 1  IDiag  1:
 RMSU=  4.25D-07    CP:  1.00D+00  1.08D+00  7.47D-01  7.16D-01
 E= -1800.63536787317     Delta-E=       -0.000000184382 Rises=F Damp=F
 DIIS: error= 2.66D-06 at cycle   5 NSaved=   5.
 NSaved= 5 IEnMin= 5 EnMin= -1800.63536787317     IErMin= 5 ErrMin= 2.66D-06
 ErrMax= 2.66D-06  0.00D+00 EMaxC= 1.00D-01 BMatC= 2.15D-08 BMatP= 2.38D-07
 IDIUse=1 WtCom= 1.00D+00 WtEn= 0.00D+00
 Coeff-Com: -0.649D-02 0.180D-01 0.639D-01 0.267D+00 0.658D+00
 Coeff:     -0.649D-02 0.180D-01 0.639D-01 0.267D+00 0.658D+00
 Gap=     0.175 Goal=   None    Shift=    0.000
 RMSDP=1.62D-07 MaxDP=2.63D-05 DE=-1.84D-07 OVMax= 2.61D-05

 Cycle   6  Pass 1  IDiag  1:
 RMSU=  9.34D-08    CP:  1.00D+00  1.08D+00  7.50D-01  7.55D-01  9.39D-01
 E= -1800.63536789362     Delta-E=       -0.000000020451 Rises=F Damp=F
 DIIS: error= 8.52D-07 at cycle   6 NSaved=   6.
 NSaved= 6 IEnMin= 6 EnMin= -1800.63536789362     IErMin= 6 ErrMin= 8.52D-07
 ErrMax= 8.52D-07  0.00D+00 EMaxC= 1.00D-01 BMatC= 5.82D-10 BMatP= 2.15D-08
 IDIUse=1 WtCom= 1.00D+00 WtEn= 0.00D+00
 Coeff-Com: -0.266D-02 0.184D-02 0.146D-01 0.851D-01 0.253D+00 0.648D+00
 Coeff:     -0.266D-02 0.184D-02 0.146D-01 0.851D-01 0.253D+00 0.648D+00
 Gap=     0.175 Goal=   None    Shift=    0.000
 RMSDP=4.30D-08 MaxDP=8.62D-06 DE=-2.05D-08 OVMax= 1.01D-05

 Cycle   7  Pass 1  IDiag  1:
 RMSU=  2.97D-08    CP:  1.00D+00  1.08D+00  7.51D-01  7.62D-01  9.49D-01
                    CP:  9.06D-01
 E= -1800.63536789407     Delta-E=       -0.000000000449 Rises=F Damp=F
 DIIS: error= 3.72D-07 at cycle   7 NSaved=   7.
 NSaved= 7 IEnMin= 7 EnMin= -1800.63536789407     IErMin= 7 ErrMin= 3.72D-07
 ErrMax= 3.72D-07  0.00D+00 EMaxC= 1.00D-01 BMatC= 2.28D-10 BMatP= 5.82D-10
 IDIUse=1 WtCom= 1.00D+00 WtEn= 0.00D+00
 Coeff-Com: -0.765D-03-0.122D-02 0.712D-03 0.160D-01 0.656D-01 0.402D+00
 Coeff-Com:  0.518D+00
 Coeff:     -0.765D-03-0.122D-02 0.712D-03 0.160D-01 0.656D-01 0.402D+00
 Coeff:      0.518D+00
 Gap=     0.175 Goal=   None    Shift=    0.000
 RMSDP=2.32D-08 MaxDP=6.39D-06 DE=-4.49D-10 OVMax= 5.65D-06

 Cycle   8  Pass 1  IDiag  1:
 RMSU=  1.08D-08    CP:  1.00D+00  1.08D+00  7.52D-01  7.57D-01  9.65D-01
                    CP:  1.02D+00  6.46D-01
 E= -1800.63536789431     Delta-E=       -0.000000000246 Rises=F Damp=F
 DIIS: error= 6.14D-08 at cycle   8 NSaved=   8.
 NSaved= 8 IEnMin= 8 EnMin= -1800.63536789431     IErMin= 8 ErrMin= 6.14D-08
 ErrMax= 6.14D-08  0.00D+00 EMaxC= 1.00D-01 BMatC= 1.23D-11 BMatP= 2.28D-10
 IDIUse=1 WtCom= 1.00D+00 WtEn= 0.00D+00
 Coeff-Com: -0.709D-04-0.799D-03-0.128D-02-0.230D-02 0.223D-02 0.111D+00
 Coeff-Com:  0.238D+00 0.653D+00
 Coeff:     -0.709D-04-0.799D-03-0.128D-02-0.230D-02 0.223D-02 0.111D+00
 Coeff:      0.238D+00 0.653D+00
 Gap=     0.175 Goal=   None    Shift=    0.000
 RMSDP=6.22D-09 MaxDP=1.61D-06 DE=-2.46D-10 OVMax= 1.03D-06

 Cycle   9  Pass 1  IDiag  1:
 RMSU=  3.33D-09    CP:  1.00D+00  1.08D+00  7.52D-01  7.59D-01  9.68D-01
                    CP:  1.01D+00  7.42D-01  8.12D-01
 E= -1800.63536789425     Delta-E=        0.000000000063 Rises=F Damp=F
 DIIS: error= 3.01D-08 at cycle   9 NSaved=   9.
 NSaved= 9 IEnMin= 8 EnMin= -1800.63536789431     IErMin= 9 ErrMin= 3.01D-08
 ErrMax= 3.01D-08  0.00D+00 EMaxC= 1.00D-01 BMatC= 3.70D-12 BMatP= 1.23D-11
 IDIUse=1 WtCom= 1.00D+00 WtEn= 0.00D+00
 Coeff-Com:  0.686D-04-0.301D-03-0.854D-03-0.385D-02-0.834D-02 0.897D-02
 Coeff-Com:  0.697D-01 0.402D+00 0.532D+00
 Coeff:      0.686D-04-0.301D-03-0.854D-03-0.385D-02-0.834D-02 0.897D-02
 Coeff:      0.697D-01 0.402D+00 0.532D+00
 Gap=     0.175 Goal=   None    Shift=    0.000
 RMSDP=3.10D-09 MaxDP=7.17D-07 DE= 6.28D-11 OVMax= 5.62D-07

 Error on total polarization charges =  0.02344
 SCF Done:  E(RPBE1PBE) =  -1800.63536789     A.U. after    9 cycles
            NFock=  9  Conv=0.31D-08     -V/T= 2.0047
 KE= 1.792243935371D+03 PE=-1.408897273315D+04 EE= 5.544977729564D+03
 Leave Link  502 at Sun Oct 17 21:53:17 2021, MaxMem=  7864320000 cpu:           36925.9 elap:            1164.3
 (Enter /apps/gaussian/g16-c01-avx/g16/l508.exe)
 QCSCF skips out because SCF is already converged.
 Leave Link  508 at Sun Oct 17 21:53:17 2021, MaxMem=  7864320000 cpu:               0.1 elap:               0.0
 (Enter /apps/gaussian/g16-c01-avx/g16/l601.exe)
 Copying SCF densities to generalized density rwf, IOpCl= 0 IROHF=0.

 **********************************************************************

            Population analysis using the SCF Density.

 **********************************************************************

 Orbital symmetries:
       Occupied  (A) (A) (A) (A) (A) (A) (A) (A) (A) (A) (A) (A)
                 (A) (A) (A) (A) (A) (A) (A) (A) (A) (A) (A) (A)
                 (A) (A) (A) (A) (A) (A) (A) (A) (A) (A) (A) (A)
                 (A) (A) (A) (A) (A) (A) (A) (A) (A) (A) (A) (A)
                 (A) (A) (A) (A) (A) (A) (A) (A) (A) (A) (A) (A)
                 (A) (A) (A) (A) (A) (A) (A) (A) (A) (A) (A) (A)
                 (A) (A) (A) (A) (A) (A) (A) (A) (A) (A) (A) (A)
                 (A) (A) (A) (A) (A) (A) (A) (A) (A) (A) (A) (A)
                 (A) (A) (A) (A) (A) (A) (A) (A) (A) (A) (A) (A)
                 (A) (A) (A) (A) (A) (A) (A) (A) (A) (A) (A) (A)
                 (A) (A) (A) (A) (A) (A) (A) (A) (A) (A) (A) (A)
                 (A) (A) (A) (A) (A) (A) (A) (A) (A) (A) (A) (A)
                 (A) (A) (A) (A) (A) (A) (A) (A) (A) (A) (A)
       Virtual   (A) (A) (A) (A) (A) (A) (A) (A) (A) (A) (A) (A)
                 (A) (A) (A) (A) (A) (A) (A) (A) (A) (A) (A) (A)
                 (A) (A) (A) (A) (A) (A) (A) (A) (A) (A) (A) (A)
                 (A) (A) (A) (A) (A) (A) (A) (A) (A) (A) (A) (A)
                 (A) (A) (A) (A) (A) (A) (A) (A) (A) (A) (A) (A)
                 (A) (A) (A) (A) (A) (A) (A) (A) (A) (A) (A) (A)
                 (A) (A) (A) (A) (A) (A) (A) (A) (A) (A) (A) (A)
                 (A) (A) (A) (A) (A) (A) (A) (A) (A) (A) (A) (A)
                 (A) (A) (A) (A) (A) (A) (A) (A) (A) (A) (A) (A)
                 (A) (A) (A) (A) (A) (A) (A) (A) (A) (A) (A) (A)
                 (A) (A) (A) (A) (A) (A) (A) (A) (A) (A) (A) (A)
                 (A) (A) (A) (A) (A) (A) (A) (A) (A) (A) (A) (A)
                 (A) (A) (A) (A) (A) (A) (A) (A) (A) (A) (A) (A)
                 (A) (A) (A) (A) (A) (A) (A) (A) (A) (A) (A) (A)
                 (A) (A) (A) (A) (A) (A) (A) (A) (A) (A) (A) (A)
                 (A) (A) (A) (A) (A) (A) (A) (A) (A) (A) (A) (A)
                 (A) (A) (A) (A) (A) (A) (A) (A) (A) (A) (A) (A)
                 (A) (A) (A) (A) (A) (A) (A) (A) (A) (A) (A) (A)
                 (A) (A) (A) (A) (A) (A) (A) (A) (A) (A) (A) (A)
                 (A) (A) (A) (A) (A) (A) (A) (A) (A) (A) (A) (A)
                 (A) (A) (A) (A) (A) (A) (A) (A) (A) (A) (A) (A)
                 (A) (A) (A) (A) (A) (A) (A) (A) (A) (A) (A) (A)
                 (A) (A) (A) (A) (A) (A) (A) (A) (A) (A) (A) (A)
                 (A) (A) (A) (A) (A) (A) (A) (A) (A) (A) (A) (A)
                 (A) (A) (A) (A) (A) (A) (A) (A) (A) (A) (A) (A)
                 (A) (A) (A) (A) (A) (A) (A) (A) (A) (A) (A) (A)
                 (A) (A) (A) (A) (A) (A) (A) (A) (A) (A) (A) (A)
                 (A) (A) (A) (A) (A) (A) (A) (A) (A) (A) (A) (A)
                 (A) (A) (A) (A) (A) (A) (A) (A) (A) (A) (A) (A)
                 (A) (A) (A) (A) (A) (A) (A) (A) (A) (A) (A) (A)
                 (A) (A) (A) (A) (A) (A) (A) (A) (A) (A) (A) (A)
                 (A) (A) (A) (A) (A) (A) (A) (A) (A) (A) (A) (A)
                 (A) (A) (A) (A) (A) (A) (A) (A) (A) (A) (A) (A)
                 (A) (A) (A) (A) (A) (A) (A) (A) (A) (A) (A) (A)
                 (A) (A) (A) (A) (A) (A) (A) (A) (A) (A) (A) (A)
                 (A) (A) (A) (A) (A) (A) (A) (A) (A) (A) (A) (A)
                 (A) (A) (A) (A) (A) (A) (A) (A) (A) (A) (A) (A)
                 (A) (A) (A) (A) (A) (A) (A) (A) (A) (A) (A) (A)
                 (A) (A) (A) (A) (A) (A) (A) (A) (A) (A) (A) (A)
                 (A) (A) (A) (A) (A) (A) (A) (A) (A) (A) (A) (A)
                 (A) (A) (A) (A) (A) (A) (A) (A) (A) (A) (A) (A)
                 (A) (A) (A) (A) (A) (A) (A) (A) (A) (A) (A) (A)
                 (A) (A) (A) (A) (A) (A) (A) (A) (A) (A) (A) (A)
                 (A) (A) (A) (A) (A) (A) (A) (A) (A) (A) (A) (A)
                 (A) (A) (A) (A) (A) (A) (A) (A) (A) (A) (A) (A)
                 (A) (A) (A) (A) (A) (A) (A) (A) (A) (A) (A) (A)
                 (A) (A) (A) (A) (A) (A) (A) (A) (A) (A) (A) (A)
                 (A) (A) (A) (A) (A) (A) (A) (A) (A) (A) (A) (A)
                 (A) (A) (A) (A) (A) (A) (A) (A) (A) (A) (A) (A)
                 (A) (A) (A) (A) (A) (A) (A) (A) (A) (A) (A) (A)
                 (A) (A) (A) (A) (A) (A) (A) (A) (A) (A) (A) (A)
                 (A) (A) (A) (A) (A) (A) (A) (A) (A) (A) (A) (A)
                 (A) (A) (A) (A) (A) (A) (A) (A) (A) (A) (A) (A)
                 (A) (A) (A) (A) (A) (A) (A) (A) (A) (A) (A) (A)
                 (A) (A) (A) (A) (A) (A) (A) (A) (A) (A) (A) (A)
                 (A) (A) (A) (A) (A) (A) (A) (A) (A) (A) (A) (A)
                 (A) (A) (A) (A) (A) (A) (A) (A) (A) (A) (A) (A)
                 (A) (A) (A) (A) (A) (A) (A) (A) (A) (A) (A) (A)
                 (A) (A) (A) (A) (A) (A) (A) (A) (A) (A) (A) (A)
                 (A) (A) (A) (A) (A) (A) (A) (A) (A) (A) (A) (A)
                 (A) (A) (A) (A) (A) (A) (A) (A) (A) (A) (A) (A)
                 (A) (A) (A) (A) (A) (A) (A) (A) (A) (A) (A) (A)
                 (A) (A) (A) (A) (A) (A) (A) (A) (A) (A) (A) (A)
                 (A) (A) (A) (A) (A) (A) (A) (A) (A) (A) (A) (A)
                 (A) (A) (A) (A) (A) (A) (A) (A) (A) (A) (A) (A)
                 (A) (A) (A) (A) (A) (A) (A) (A) (A) (A) (A) (A)
                 (A) (A) (A) (A) (A) (A) (A) (A) (A) (A) (A) (A)
                 (A) (A) (A) (A) (A) (A) (A) (A) (A) (A) (A) (A)
                 (A) (A) (A) (A) (A) (A) (A) (A) (A) (A) (A) (A)
                 (A) (A) (A) (A) (A) (A) (A) (A) (A) (A) (A) (A)
                 (A) (A) (A) (A) (A) (A) (A) (A) (A) (A) (A) (A)
                 (A) (A) (A) (A) (A) (A) (A) (A) (A) (A) (A) (A)
                 (A) (A) (A) (A) (A) (A) (A) (A) (A) (A) (A) (A)
                 (A) (A) (A) (A) (A) (A) (A) (A) (A) (A) (A) (A)
                 (A) (A) (A) (A) (A) (A) (A) (A) (A) (A) (A) (A)
                 (A) (A) (A) (A) (A) (A) (A) (A) (A) (A) (A) (A)
                 (A) (A) (A) (A) (A) (A) (A) (A) (A) (A) (A) (A)
                 (A) (A) (A) (A) (A) (A) (A) (A) (A) (A) (A) (A)
                 (A) (A) (A) (A) (A) (A) (A) (A) (A) (A) (A) (A)
                 (A) (A) (A) (A) (A) (A) (A) (A) (A) (A) (A) (A)
                 (A) (A) (A) (A) (A) (A) (A) (A) (A) (A) (A) (A)
                 (A) (A) (A) (A) (A) (A) (A) (A) (A) (A) (A) (A)
                 (A) (A) (A) (A) (A) (A) (A) (A) (A) (A) (A) (A)
                 (A) (A) (A) (A) (A) (A) (A) (A) (A) (A) (A) (A)
                 (A) (A) (A) (A) (A) (A) (A) (A) (A) (A) (A) (A)
                 (A) (A) (A) (A) (A) (A) (A) (A) (A) (A) (A) (A)
                 (A) (A) (A) (A) (A) (A) (A) (A) (A) (A) (A) (A)
                 (A) (A) (A) (A) (A) (A) (A) (A) (A) (A) (A) (A)
                 (A) (A) (A) (A) (A) (A) (A) (A) (A) (A) (A) (A)
                 (A) (A) (A) (A) (A) (A) (A) (A) (A) (A) (A) (A)
                 (A) (A) (A) (A) (A) (A) (A) (A) (A) (A) (A) (A)
                 (A) (A) (A) (A) (A) (A) (A) (A) (A) (A) (A) (A)
                 (A) (A) (A) (A) (A) (A) (A) (A) (A) (A) (A) (A)
                 (A) (A) (A) (A) (A) (A) (A) (A) (A) (A) (A) (A)
                 (A) (A) (A) (A) (A) (A) (A) (A) (A) (A) (A) (A)
                 (A) (A) (A) (A) (A) (A) (A) (A) (A) (A) (A) (A)
                 (A) (A) (A) (A) (A) (A) (A) (A) (A) (A) (A) (A)
                 (A) (A) (A) (A) (A) (A) (A) (A) (A) (A) (A) (A)
                 (A) (A) (A) (A) (A) (A) (A) (A) (A) (A) (A) (A)
                 (A) (A) (A) (A) (A) (A) (A) (A) (A) (A) (A) (A)
                 (A) (A) (A) (A) (A) (A) (A) (A) (A) (A) (A) (A)
                 (A) (A) (A) (A) (A) (A) (A) (A) (A) (A) (A) (A)
                 (A) (A) (A) (A) (A) (A) (A) (A) (A) (A) (A) (A)
                 (A) (A) (A) (A) (A) (A) (A) (A) (A) (A) (A) (A)
                 (A) (A) (A) (A) (A) (A) (A) (A) (A) (A) (A) (A)
                 (A) (A) (A) (A) (A) (A) (A) (A) (A) (A) (A) (A)
                 (A) (A) (A) (A) (A) (A) (A) (A) (A) (A) (A) (A)
                 (A) (A) (A) (A) (A) (A) (A) (A) (A) (A) (A) (A)
                 (A) (A) (A) (A) (A) (A) (A) (A) (A) (A) (A) (A)
                 (A) (A) (A) (A) (A) (A) (A) (A) (A) (A) (A) (A)
                 (A) (A) (A) (A) (A) (A) (A) (A) (A) (A) (A) (A)
                 (A) (A) (A) (A) (A) (A) (A) (A) (A) (A) (A) (A)
                 (A) (A) (A) (A) (A) (A) (A) (A) (A) (A) (A) (A)
                 (A) (A) (A) (A) (A) (A) (A) (A) (A) (A) (A) (A)
                 (A) (A) (A) (A) (A) (A) (A) (A) (A) (A) (A) (A)
                 (A) (A) (A) (A) (A) (A) (A) (A) (A) (A) (A) (A)
                 (A) (A) (A) (A) (A) (A) (A) (A) (A) (A) (A) (A)
                 (A) (A) (A) (A) (A) (A) (A) (A) (A) (A) (A) (A)
                 (A) (A) (A) (A) (A) (A) (A) (A) (A) (A) (A) (A)
                 (A) (A) (A) (A) (A) (A) (A) (A) (A) (A) (A) (A)
                 (A) (A)
 The electronic state is 1-A.
 Alpha  occ. eigenvalues --  -19.21359 -14.38300 -14.38065 -14.38029 -14.37999
 Alpha  occ. eigenvalues --  -14.37788 -14.35822 -10.31797 -10.27168 -10.26947
 Alpha  occ. eigenvalues --  -10.26909 -10.26785 -10.26670 -10.25424 -10.25410
 Alpha  occ. eigenvalues --  -10.25261 -10.25244 -10.25199 -10.25188 -10.25158
 Alpha  occ. eigenvalues --  -10.25120 -10.25063 -10.25011 -10.24675 -10.24611
 Alpha  occ. eigenvalues --  -10.24604 -10.24580 -10.24565 -10.24122 -10.24115
 Alpha  occ. eigenvalues --  -10.24068 -10.21760 -10.21756 -10.21489 -10.21475
 Alpha  occ. eigenvalues --  -10.21470 -10.21428 -10.21420 -10.21392 -10.21291
 Alpha  occ. eigenvalues --  -10.21155 -10.21102 -10.21041  -1.09120  -0.98301
 Alpha  occ. eigenvalues --   -0.98158  -0.96992  -0.95568  -0.95186  -0.91453
 Alpha  occ. eigenvalues --   -0.91110  -0.89971  -0.86111  -0.85536  -0.84284
 Alpha  occ. eigenvalues --   -0.81677  -0.81576  -0.81101  -0.81067  -0.76943
 Alpha  occ. eigenvalues --   -0.76620  -0.76496  -0.75894  -0.75580  -0.74173
 Alpha  occ. eigenvalues --   -0.69195  -0.68995  -0.68385  -0.67708  -0.67424
 Alpha  occ. eigenvalues --   -0.66093  -0.63183  -0.62905  -0.62682  -0.62085
 Alpha  occ. eigenvalues --   -0.61698  -0.60789  -0.58574  -0.58460  -0.57580
 Alpha  occ. eigenvalues --   -0.57330  -0.56745  -0.56262  -0.56137  -0.54600
 Alpha  occ. eigenvalues --   -0.53781  -0.53105  -0.52646  -0.51479  -0.50786
 Alpha  occ. eigenvalues --   -0.50444  -0.49822  -0.49728  -0.49352  -0.48969
 Alpha  occ. eigenvalues --   -0.48371  -0.47873  -0.47560  -0.47358  -0.47157
 Alpha  occ. eigenvalues --   -0.46458  -0.46186  -0.45729  -0.45491  -0.45344
 Alpha  occ. eigenvalues --   -0.44600  -0.44442  -0.44316  -0.44208  -0.43965
 Alpha  occ. eigenvalues --   -0.43670  -0.42450  -0.42234  -0.41939  -0.41349
 Alpha  occ. eigenvalues --   -0.40758  -0.40382  -0.40136  -0.39831  -0.39426
 Alpha  occ. eigenvalues --   -0.39106  -0.39015  -0.38264  -0.38144  -0.37184
 Alpha  occ. eigenvalues --   -0.36762  -0.36426  -0.36242  -0.36144  -0.36095
 Alpha  occ. eigenvalues --   -0.35985  -0.35763  -0.35731  -0.34533  -0.34102
 Alpha  occ. eigenvalues --   -0.33877  -0.33673  -0.33503  -0.32546  -0.32262
 Alpha  occ. eigenvalues --   -0.31952  -0.31557  -0.31310  -0.29704  -0.28716
 Alpha  occ. eigenvalues --   -0.27972  -0.27858  -0.27727  -0.27479  -0.27359
 Alpha  occ. eigenvalues --   -0.27144  -0.26267  -0.26168  -0.25781  -0.25264
 Alpha virt. eigenvalues --   -0.07804  -0.06874  -0.06230  -0.05798  -0.03293
 Alpha virt. eigenvalues --   -0.01803   0.04303   0.04743   0.04774   0.04923
 Alpha virt. eigenvalues --    0.05108   0.05126   0.05238   0.05296   0.05913
 Alpha virt. eigenvalues --    0.06124   0.06525   0.06641   0.07430   0.07662
 Alpha virt. eigenvalues --    0.07766   0.08199   0.08357   0.08781   0.08977
 Alpha virt. eigenvalues --    0.09355   0.09667   0.09948   0.10556   0.10853
 Alpha virt. eigenvalues --    0.10958   0.11122   0.11205   0.11366   0.11403
 Alpha virt. eigenvalues --    0.11553   0.11719   0.12158   0.12428   0.12514
 Alpha virt. eigenvalues --    0.12840   0.12926   0.13091   0.13448   0.13546
 Alpha virt. eigenvalues --    0.13646   0.13743   0.13898   0.13939   0.14171
 Alpha virt. eigenvalues --    0.14375   0.14760   0.14964   0.15352   0.15500
 Alpha virt. eigenvalues --    0.16014   0.16176   0.16708   0.17041   0.17314
 Alpha virt. eigenvalues --    0.17885   0.18225   0.18346   0.18721   0.19237
 Alpha virt. eigenvalues --    0.19322   0.19721   0.19868   0.20151   0.20184
 Alpha virt. eigenvalues --    0.20256   0.20673   0.20967   0.21070   0.21382
 Alpha virt. eigenvalues --    0.21455   0.21663   0.21782   0.22012   0.22380
 Alpha virt. eigenvalues --    0.22688   0.22810   0.22993   0.23053   0.23385
 Alpha virt. eigenvalues --    0.23464   0.23673   0.23859   0.23942   0.24266
 Alpha virt. eigenvalues --    0.24327   0.24400   0.24780   0.25254   0.25411
 Alpha virt. eigenvalues --    0.25480   0.25729   0.25807   0.26132   0.26398
 Alpha virt. eigenvalues --    0.26679   0.26970   0.27004   0.27475   0.27563
 Alpha virt. eigenvalues --    0.27711   0.28047   0.28125   0.28378   0.28672
 Alpha virt. eigenvalues --    0.28803   0.29206   0.29488   0.29867   0.29965
 Alpha virt. eigenvalues --    0.30211   0.30456   0.30804   0.31043   0.31448
 Alpha virt. eigenvalues --    0.31594   0.31887   0.31923   0.32576   0.32949
 Alpha virt. eigenvalues --    0.33113   0.33298   0.33505   0.33627   0.33867
 Alpha virt. eigenvalues --    0.34552   0.34950   0.35222   0.35429   0.35850
 Alpha virt. eigenvalues --    0.35913   0.35963   0.36181   0.36380   0.36790
 Alpha virt. eigenvalues --    0.36986   0.37074   0.37250   0.37566   0.38009
 Alpha virt. eigenvalues --    0.38198   0.38373   0.38632   0.38953   0.39351
 Alpha virt. eigenvalues --    0.39535   0.40025   0.40087   0.40265   0.40393
 Alpha virt. eigenvalues --    0.40815   0.40906   0.41223   0.41407   0.41884
 Alpha virt. eigenvalues --    0.42097   0.42185   0.42275   0.42458   0.42645
 Alpha virt. eigenvalues --    0.43014   0.43132   0.43187   0.43351   0.43641
 Alpha virt. eigenvalues --    0.43692   0.43877   0.43951   0.44078   0.44352
 Alpha virt. eigenvalues --    0.44471   0.44562   0.44730   0.44841   0.44936
 Alpha virt. eigenvalues --    0.45021   0.45130   0.45291   0.45432   0.45556
 Alpha virt. eigenvalues --    0.45612   0.45656   0.45931   0.46154   0.46331
 Alpha virt. eigenvalues --    0.46466   0.46833   0.47039   0.47182   0.47359
 Alpha virt. eigenvalues --    0.47496   0.47705   0.47843   0.48007   0.48332
 Alpha virt. eigenvalues --    0.48574   0.48811   0.48975   0.49129   0.49352
 Alpha virt. eigenvalues --    0.49427   0.49573   0.49942   0.50120   0.50212
 Alpha virt. eigenvalues --    0.50339   0.50552   0.50720   0.50915   0.51156
 Alpha virt. eigenvalues --    0.51328   0.51390   0.51743   0.51946   0.52125
 Alpha virt. eigenvalues --    0.52349   0.52461   0.53033   0.53222   0.53305
 Alpha virt. eigenvalues --    0.53646   0.53700   0.54067   0.54351   0.54872
 Alpha virt. eigenvalues --    0.55406   0.55857   0.55957   0.56274   0.56467
 Alpha virt. eigenvalues --    0.56784   0.57532   0.57996   0.58320   0.58392
 Alpha virt. eigenvalues --    0.58778   0.59218   0.59616   0.60015   0.60194
 Alpha virt. eigenvalues --    0.60428   0.60565   0.60757   0.61164   0.61196
 Alpha virt. eigenvalues --    0.61578   0.61965   0.62571   0.62586   0.63362
 Alpha virt. eigenvalues --    0.63670   0.63832   0.64160   0.64514   0.64630
 Alpha virt. eigenvalues --    0.65393   0.65502   0.66024   0.66313   0.66476
 Alpha virt. eigenvalues --    0.66659   0.66968   0.67175   0.67372   0.67572
 Alpha virt. eigenvalues --    0.68101   0.68197   0.68362   0.68517   0.69049
 Alpha virt. eigenvalues --    0.69224   0.69900   0.69919   0.70268   0.70469
 Alpha virt. eigenvalues --    0.70524   0.70871   0.71052   0.71612   0.71841
 Alpha virt. eigenvalues --    0.72329   0.72677   0.72879   0.73658   0.73936
 Alpha virt. eigenvalues --    0.74213   0.74349   0.74600   0.74882   0.75581
 Alpha virt. eigenvalues --    0.75710   0.76434   0.76922   0.77275   0.77421
 Alpha virt. eigenvalues --    0.77818   0.78204   0.78539   0.78688   0.79028
 Alpha virt. eigenvalues --    0.79248   0.79370   0.79540   0.80012   0.80568
 Alpha virt. eigenvalues --    0.80974   0.81503   0.81655   0.81742   0.82099
 Alpha virt. eigenvalues --    0.82202   0.82493   0.82929   0.83234   0.83285
 Alpha virt. eigenvalues --    0.83541   0.83623   0.83986   0.84337   0.84679
 Alpha virt. eigenvalues --    0.85019   0.85321   0.85756   0.85993   0.86335
 Alpha virt. eigenvalues --    0.86448   0.86676   0.87084   0.87420   0.87630
 Alpha virt. eigenvalues --    0.88027   0.88290   0.88473   0.88787   0.89128
 Alpha virt. eigenvalues --    0.89426   0.89753   0.89970   0.90393   0.90736
 Alpha virt. eigenvalues --    0.90937   0.91414   0.91480   0.91964   0.92298
 Alpha virt. eigenvalues --    0.92486   0.92895   0.93335   0.93658   0.94012
 Alpha virt. eigenvalues --    0.94602   0.95104   0.95385   0.95514   0.96050
 Alpha virt. eigenvalues --    0.96304   0.96610   0.96817   0.97051   0.97628
 Alpha virt. eigenvalues --    0.97800   0.98217   0.98255   0.98959   0.99241
 Alpha virt. eigenvalues --    0.99359   1.00558   1.01253   1.01539   1.01811
 Alpha virt. eigenvalues --    1.02057   1.02558   1.03525   1.03676   1.04037
 Alpha virt. eigenvalues --    1.04553   1.04839   1.04917   1.05234   1.05446
 Alpha virt. eigenvalues --    1.06108   1.06223   1.06679   1.06936   1.07106
 Alpha virt. eigenvalues --    1.07455   1.08003   1.08258   1.08518   1.09091
 Alpha virt. eigenvalues --    1.09806   1.10534   1.11462   1.11679   1.12221
 Alpha virt. eigenvalues --    1.12417   1.12579   1.13101   1.13526   1.14066
 Alpha virt. eigenvalues --    1.14190   1.14399   1.14918   1.15168   1.15240
 Alpha virt. eigenvalues --    1.15330   1.15701   1.16089   1.16365   1.16673
 Alpha virt. eigenvalues --    1.17433   1.17914   1.18341   1.18498   1.18942
 Alpha virt. eigenvalues --    1.19495   1.19676   1.19792   1.20294   1.20970
 Alpha virt. eigenvalues --    1.21196   1.21315   1.21723   1.22164   1.23052
 Alpha virt. eigenvalues --    1.23269   1.23705   1.24313   1.24598   1.25144
 Alpha virt. eigenvalues --    1.25317   1.25482   1.25729   1.26075   1.26176
 Alpha virt. eigenvalues --    1.26964   1.27071   1.27750   1.27825   1.28474
 Alpha virt. eigenvalues --    1.28696   1.29170   1.29283   1.29427   1.29890
 Alpha virt. eigenvalues --    1.30189   1.30700   1.31438   1.32099   1.32511
 Alpha virt. eigenvalues --    1.32786   1.32900   1.33265   1.33726   1.34543
 Alpha virt. eigenvalues --    1.35062   1.35852   1.36014   1.36129   1.36254
 Alpha virt. eigenvalues --    1.37565   1.38042   1.38356   1.38559   1.38826
 Alpha virt. eigenvalues --    1.39192   1.39442   1.40273   1.40720   1.41080
 Alpha virt. eigenvalues --    1.41584   1.42164   1.42322   1.42923   1.43057
 Alpha virt. eigenvalues --    1.43731   1.44284   1.44574   1.44800   1.44983
 Alpha virt. eigenvalues --    1.45334   1.46074   1.46138   1.46350   1.46651
 Alpha virt. eigenvalues --    1.47399   1.47630   1.47994   1.48359   1.48520
 Alpha virt. eigenvalues --    1.48731   1.49950   1.50410   1.50812   1.51237
 Alpha virt. eigenvalues --    1.51697   1.51952   1.52239   1.52524   1.53127
 Alpha virt. eigenvalues --    1.53450   1.53785   1.53821   1.54665   1.54823
 Alpha virt. eigenvalues --    1.55196   1.55815   1.55876   1.56090   1.56394
 Alpha virt. eigenvalues --    1.57222   1.57356   1.57425   1.57762   1.58158
 Alpha virt. eigenvalues --    1.58546   1.58817   1.59134   1.59934   1.60289
 Alpha virt. eigenvalues --    1.60567   1.60865   1.61253   1.61456   1.61555
 Alpha virt. eigenvalues --    1.61701   1.62493   1.62629   1.62993   1.63313
 Alpha virt. eigenvalues --    1.63377   1.63691   1.64560   1.64682   1.64875
 Alpha virt. eigenvalues --    1.65197   1.65308   1.65449   1.65681   1.66046
 Alpha virt. eigenvalues --    1.66680   1.66898   1.67136   1.67278   1.67591
 Alpha virt. eigenvalues --    1.67817   1.68414   1.68614   1.68813   1.69234
 Alpha virt. eigenvalues --    1.69325   1.69548   1.69908   1.70582   1.70631
 Alpha virt. eigenvalues --    1.70909   1.71375   1.71558   1.72040   1.72158
 Alpha virt. eigenvalues --    1.73140   1.73704   1.74294   1.74613   1.75127
 Alpha virt. eigenvalues --    1.75442   1.75672   1.76872   1.77087   1.77372
 Alpha virt. eigenvalues --    1.77696   1.78105   1.78535   1.78719   1.78819
 Alpha virt. eigenvalues --    1.79111   1.79698   1.79763   1.80102   1.80536
 Alpha virt. eigenvalues --    1.80588   1.81162   1.81331   1.81516   1.82578
 Alpha virt. eigenvalues --    1.82885   1.83299   1.83440   1.84059   1.84217
 Alpha virt. eigenvalues --    1.84807   1.85178   1.85431   1.85714   1.87499
 Alpha virt. eigenvalues --    1.87629   1.87942   1.88438   1.88550   1.88968
 Alpha virt. eigenvalues --    1.89148   1.89515   1.90278   1.90688   1.90967
 Alpha virt. eigenvalues --    1.91378   1.91657   1.92088   1.92561   1.93241
 Alpha virt. eigenvalues --    1.93951   1.94029   1.94842   1.95609   1.96037
 Alpha virt. eigenvalues --    1.96638   1.97231   1.97704   1.97809   1.98524
 Alpha virt. eigenvalues --    1.98642   1.99517   2.00223   2.00366   2.01035
 Alpha virt. eigenvalues --    2.01110   2.01375   2.01524   2.01680   2.02044
 Alpha virt. eigenvalues --    2.02396   2.02485   2.02616   2.02845   2.03463
 Alpha virt. eigenvalues --    2.03891   2.03967   2.04548   2.05249   2.05623
 Alpha virt. eigenvalues --    2.05749   2.06275   2.06889   2.07207   2.07504
 Alpha virt. eigenvalues --    2.08059   2.08333   2.08564   2.08982   2.09729
 Alpha virt. eigenvalues --    2.09850   2.10163   2.10299   2.10647   2.11065
 Alpha virt. eigenvalues --    2.11713   2.12541   2.13407   2.13770   2.14500
 Alpha virt. eigenvalues --    2.14626   2.15316   2.15776   2.16175   2.16533
 Alpha virt. eigenvalues --    2.17069   2.17987   2.18144   2.18274   2.18685
 Alpha virt. eigenvalues --    2.19031   2.19510   2.20159   2.20801   2.21117
 Alpha virt. eigenvalues --    2.21947   2.22342   2.22593   2.23304   2.23694
 Alpha virt. eigenvalues --    2.23984   2.24531   2.24604   2.25180   2.26078
 Alpha virt. eigenvalues --    2.26494   2.26605   2.27263   2.28071   2.28746
 Alpha virt. eigenvalues --    2.29266   2.29684   2.30448   2.30607   2.31180
 Alpha virt. eigenvalues --    2.31650   2.31858   2.32059   2.32508   2.33686
 Alpha virt. eigenvalues --    2.34195   2.34421   2.34607   2.35094   2.35320
 Alpha virt. eigenvalues --    2.35930   2.36116   2.36509   2.36969   2.37342
 Alpha virt. eigenvalues --    2.37828   2.38461   2.38584   2.39242   2.39860
 Alpha virt. eigenvalues --    2.40319   2.40666   2.41672   2.41991   2.42766
 Alpha virt. eigenvalues --    2.43081   2.43192   2.43825   2.44029   2.44281
 Alpha virt. eigenvalues --    2.44398   2.44553   2.44848   2.44935   2.45105
 Alpha virt. eigenvalues --    2.45446   2.45882   2.46406   2.47369   2.48606
 Alpha virt. eigenvalues --    2.48866   2.49538   2.49958   2.50565   2.51169
 Alpha virt. eigenvalues --    2.51315   2.52435   2.53148   2.53408   2.53718
 Alpha virt. eigenvalues --    2.53988   2.54271   2.54640   2.54973   2.55321
 Alpha virt. eigenvalues --    2.55622   2.55644   2.55993   2.56801   2.56876
 Alpha virt. eigenvalues --    2.57037   2.57310   2.57568   2.58094   2.58189
 Alpha virt. eigenvalues --    2.58316   2.58838   2.58935   2.59551   2.60326
 Alpha virt. eigenvalues --    2.60616   2.60814   2.61231   2.61498   2.61808
 Alpha virt. eigenvalues --    2.62029   2.62492   2.62582   2.62797   2.63214
 Alpha virt. eigenvalues --    2.63424   2.63826   2.64146   2.64260   2.64516
 Alpha virt. eigenvalues --    2.64796   2.65130   2.65422   2.65545   2.65800
 Alpha virt. eigenvalues --    2.66199   2.66374   2.66560   2.66771   2.67101
 Alpha virt. eigenvalues --    2.67527   2.67845   2.68475   2.68637   2.68948
 Alpha virt. eigenvalues --    2.69229   2.69622   2.69936   2.70127   2.70427
 Alpha virt. eigenvalues --    2.70674   2.71397   2.71542   2.71664   2.71905
 Alpha virt. eigenvalues --    2.72299   2.72762   2.73230   2.73384   2.73601
 Alpha virt. eigenvalues --    2.74031   2.74242   2.74487   2.75404   2.75507
 Alpha virt. eigenvalues --    2.75864   2.76208   2.76424   2.76750   2.76972
 Alpha virt. eigenvalues --    2.77160   2.77768   2.78234   2.78389   2.78686
 Alpha virt. eigenvalues --    2.78974   2.79534   2.79657   2.79919   2.80146
 Alpha virt. eigenvalues --    2.80727   2.80922   2.81168   2.81386   2.81854
 Alpha virt. eigenvalues --    2.82318   2.82655   2.82908   2.83215   2.83439
 Alpha virt. eigenvalues --    2.83826   2.84240   2.84400   2.84686   2.85041
 Alpha virt. eigenvalues --    2.85292   2.85432   2.85600   2.86143   2.86847
 Alpha virt. eigenvalues --    2.87400   2.87643   2.88464   2.88968   2.89505
 Alpha virt. eigenvalues --    2.89923   2.90392   2.90859   2.91234   2.91351
 Alpha virt. eigenvalues --    2.91669   2.91924   2.92774   2.92972   2.93039
 Alpha virt. eigenvalues --    2.93384   2.93633   2.93895   2.94700   2.94921
 Alpha virt. eigenvalues --    2.95769   2.96603   2.96822   2.97018   2.97418
 Alpha virt. eigenvalues --    2.97929   2.98301   2.98658   2.98792   2.99122
 Alpha virt. eigenvalues --    3.00112   3.00397   3.00800   3.01345   3.01556
 Alpha virt. eigenvalues --    3.02390   3.02717   3.02766   3.02776   3.03524
 Alpha virt. eigenvalues --    3.03694   3.04057   3.04417   3.04650   3.05530
 Alpha virt. eigenvalues --    3.05790   3.06105   3.06302   3.06550   3.06892
 Alpha virt. eigenvalues --    3.07167   3.07567   3.08126   3.08277   3.08648
 Alpha virt. eigenvalues --    3.09102   3.09772   3.10098   3.10429   3.10682
 Alpha virt. eigenvalues --    3.10972   3.11306   3.11783   3.12397   3.12440
 Alpha virt. eigenvalues --    3.12832   3.13153   3.13285   3.13752   3.14146
 Alpha virt. eigenvalues --    3.14265   3.14854   3.15467   3.15736   3.15999
 Alpha virt. eigenvalues --    3.16238   3.16356   3.16549   3.16808   3.17482
 Alpha virt. eigenvalues --    3.17709   3.18007   3.18232   3.18719   3.19070
 Alpha virt. eigenvalues --    3.19577   3.19904   3.20518   3.20827   3.20983
 Alpha virt. eigenvalues --    3.21044   3.21549   3.21737   3.22056   3.22497
 Alpha virt. eigenvalues --    3.22567   3.22979   3.23483   3.23596   3.23889
 Alpha virt. eigenvalues --    3.24225   3.24723   3.24917   3.25033   3.25443
 Alpha virt. eigenvalues --    3.25645   3.25874   3.26081   3.26810   3.27164
 Alpha virt. eigenvalues --    3.27529   3.27776   3.27823   3.28057   3.28499
 Alpha virt. eigenvalues --    3.28852   3.29199   3.29491   3.29770   3.29891
 Alpha virt. eigenvalues --    3.30565   3.30816   3.31153   3.31498   3.31830
 Alpha virt. eigenvalues --    3.32130   3.32556   3.32955   3.33312   3.33717
 Alpha virt. eigenvalues --    3.33829   3.34351   3.34621   3.34958   3.35493
 Alpha virt. eigenvalues --    3.35706   3.36283   3.36433   3.36650   3.37062
 Alpha virt. eigenvalues --    3.37353   3.37627   3.38331   3.38553   3.38613
 Alpha virt. eigenvalues --    3.39183   3.39307   3.39605   3.40054   3.40427
 Alpha virt. eigenvalues --    3.40456   3.41471   3.41760   3.41996   3.42178
 Alpha virt. eigenvalues --    3.42479   3.42888   3.43224   3.43347   3.43572
 Alpha virt. eigenvalues --    3.43863   3.44091   3.44323   3.44966   3.45128
 Alpha virt. eigenvalues --    3.45246   3.45642   3.45906   3.46280   3.46761
 Alpha virt. eigenvalues --    3.47499   3.47692   3.48055   3.48267   3.48920
 Alpha virt. eigenvalues --    3.48966   3.49529   3.49946   3.50158   3.50777
 Alpha virt. eigenvalues --    3.50986   3.51513   3.51580   3.51973   3.52367
 Alpha virt. eigenvalues --    3.53110   3.53250   3.53386   3.53729   3.53861
 Alpha virt. eigenvalues --    3.54418   3.54848   3.55148   3.55376   3.55987
 Alpha virt. eigenvalues --    3.56172   3.56368   3.56680   3.57181   3.57340
 Alpha virt. eigenvalues --    3.57531   3.57669   3.58360   3.58518   3.58676
 Alpha virt. eigenvalues --    3.59312   3.59472   3.59572   3.60028   3.60507
 Alpha virt. eigenvalues --    3.60699   3.61572   3.61658   3.61899   3.62369
 Alpha virt. eigenvalues --    3.62650   3.62974   3.63138   3.63494   3.63844
 Alpha virt. eigenvalues --    3.63949   3.64181   3.64760   3.64989   3.65629
 Alpha virt. eigenvalues --    3.65802   3.66346   3.66739   3.66888   3.67279
 Alpha virt. eigenvalues --    3.67973   3.68710   3.68819   3.69153   3.69835
 Alpha virt. eigenvalues --    3.70536   3.70920   3.71449   3.71871   3.72006
 Alpha virt. eigenvalues --    3.72666   3.73208   3.73611   3.74171   3.74784
 Alpha virt. eigenvalues --    3.75561   3.75796   3.76007   3.76805   3.77252
 Alpha virt. eigenvalues --    3.77845   3.78350   3.78964   3.79475   3.80279
 Alpha virt. eigenvalues --    3.80683   3.81252   3.81732   3.82419   3.82918
 Alpha virt. eigenvalues --    3.83093   3.84378   3.84776   3.84948   3.85730
 Alpha virt. eigenvalues --    3.85879   3.86292   3.86845   3.87496   3.88391
 Alpha virt. eigenvalues --    3.88484   3.89879   3.90135   3.90636   3.91776
 Alpha virt. eigenvalues --    3.92455   3.93023   3.93855   3.94851   3.95340
 Alpha virt. eigenvalues --    3.95556   3.95912   3.96552   3.97348   3.98197
 Alpha virt. eigenvalues --    3.98321   3.98542   3.98841   3.99188   3.99733
 Alpha virt. eigenvalues --    4.00790   4.01227   4.01777   4.02268   4.02492
 Alpha virt. eigenvalues --    4.02773   4.02907   4.03309   4.03837   4.04352
 Alpha virt. eigenvalues --    4.04616   4.05116   4.05366   4.06102   4.07440
 Alpha virt. eigenvalues --    4.07583   4.07804   4.08178   4.08885   4.09212
 Alpha virt. eigenvalues --    4.09548   4.10704   4.11039   4.11311   4.11690
 Alpha virt. eigenvalues --    4.12766   4.12964   4.13137   4.13608   4.14590
 Alpha virt. eigenvalues --    4.14749   4.15652   4.16100   4.16169   4.16801
 Alpha virt. eigenvalues --    4.17350   4.17903   4.18090   4.18539   4.18993
 Alpha virt. eigenvalues --    4.19147   4.19552   4.20633   4.21224   4.21540
 Alpha virt. eigenvalues --    4.22380   4.22783   4.22997   4.23311   4.23620
 Alpha virt. eigenvalues --    4.24184   4.24257   4.24522   4.24903   4.25537
 Alpha virt. eigenvalues --    4.25859   4.26240   4.26799   4.26837   4.27384
 Alpha virt. eigenvalues --    4.27903   4.28070   4.28941   4.29546   4.29732
 Alpha virt. eigenvalues --    4.30577   4.30940   4.31715   4.31896   4.33222
 Alpha virt. eigenvalues --    4.33660   4.33847   4.34451   4.34748   4.36383
 Alpha virt. eigenvalues --    4.36717   4.37440   4.37951   4.38408   4.38800
 Alpha virt. eigenvalues --    4.39400   4.39532   4.39789   4.39948   4.40438
 Alpha virt. eigenvalues --    4.41280   4.41762   4.42448   4.43391   4.43885
 Alpha virt. eigenvalues --    4.44366   4.45757   4.46636   4.51807   4.52767
 Alpha virt. eigenvalues --    4.53438   4.53852   4.54923   4.55359   4.55476
 Alpha virt. eigenvalues --    4.56428   4.57440   4.58314   4.58717   4.59917
 Alpha virt. eigenvalues --    4.60563   4.61482   4.62127   4.62915   4.63267
 Alpha virt. eigenvalues --    4.64068   4.64126   4.65565   4.66385   4.67691
 Alpha virt. eigenvalues --    4.67842   4.68581   4.68810   4.69064   4.69776
 Alpha virt. eigenvalues --    4.70338   4.71025   4.71362   4.71640   4.72011
 Alpha virt. eigenvalues --    4.72866   4.73716   4.74133   4.75167   4.76177
 Alpha virt. eigenvalues --    4.78977   4.79908   4.80296   4.81404   4.81847
 Alpha virt. eigenvalues --    4.82118   4.83032   4.83650   4.84717   4.85212
 Alpha virt. eigenvalues --    4.85937   4.86244   4.86404   4.87004   4.87795
 Alpha virt. eigenvalues --    4.89065   4.90169   4.90849   4.91706   4.91892
 Alpha virt. eigenvalues --    4.92239   4.92547   4.93183   4.93713   4.94606
 Alpha virt. eigenvalues --    4.95626   4.97076   4.97517   4.99545   5.00591
 Alpha virt. eigenvalues --    5.00634   5.01385   5.03136   5.04248   5.05080
 Alpha virt. eigenvalues --    5.05443   5.05802   5.06100   5.06708   5.07199
 Alpha virt. eigenvalues --    5.07591   5.08831   5.09518   5.10133   5.10650
 Alpha virt. eigenvalues --    5.11438   5.12256   5.12945   5.13884   5.15023
 Alpha virt. eigenvalues --    5.16525   5.17970   5.18550   5.19232   5.20310
 Alpha virt. eigenvalues --    5.22410   5.23432   5.23808   5.24605   5.24963
 Alpha virt. eigenvalues --    5.25467   5.26943   5.27330   5.30346   5.30907
 Alpha virt. eigenvalues --    5.33653   5.34397   5.36236   5.37095   5.37842
 Alpha virt. eigenvalues --    5.38056   5.39088   5.40956   5.41716   5.42219
 Alpha virt. eigenvalues --    5.43606   5.44216   5.44562   5.45269   5.46184
 Alpha virt. eigenvalues --    5.47000   5.47962   5.48396   5.50426   5.51171
 Alpha virt. eigenvalues --    5.52537   5.53764   5.54261   5.55581   5.57516
 Alpha virt. eigenvalues --    5.58832   5.63910   5.64440   5.66504   5.69158
 Alpha virt. eigenvalues --    5.69216   5.71291   5.72479   5.73103   5.74057
 Alpha virt. eigenvalues --    5.77592   5.78452   5.80527   5.82059   5.83072
 Alpha virt. eigenvalues --    5.88877   5.97521   5.97684   5.99393   6.00517
 Alpha virt. eigenvalues --    6.01101   6.05093   6.05630   6.06422   6.06645
 Alpha virt. eigenvalues --    6.11144   6.12321   6.35472   6.41218   6.50556
 Alpha virt. eigenvalues --    6.54885   6.80204   7.01473   7.08829  22.41518
 Alpha virt. eigenvalues --   22.49134  22.56248  22.56314  22.56392  22.58824
 Alpha virt. eigenvalues --   22.59079  22.59107  22.61577  22.63805  22.64018
 Alpha virt. eigenvalues --   22.66777  22.68141  22.68231  22.76989  22.83733
 Alpha virt. eigenvalues --   22.84003  22.85698  22.87680  22.88700  22.90145
 Alpha virt. eigenvalues --   22.91618  22.94120  22.94530  23.01348  23.04672
 Alpha virt. eigenvalues --   23.11146  23.13030  23.14376  23.14518  23.15854
 Alpha virt. eigenvalues --   23.16072  23.17708  23.20614  23.50075  23.52885
 Alpha virt. eigenvalues --   32.13835  32.75368  32.78646  32.84904  32.88204
 Alpha virt. eigenvalues --   32.89218  43.96027
          Condensed to atoms (all electrons):
 Mulliken charges:
               1
     1  C    0.348742
     2  C   -0.156817
     3  C   -0.336762
     4  C    0.257956
     5  H    0.131800
     6  C   -0.339717
     7  C    0.310349
     8  H    0.141468
     9  C   -0.285159
    10  C   -0.151337
    11  H    0.138163
    12  C    0.074307
    13  H    0.094216
    14  H    0.105322
    15  C    0.320213
    16  C   -0.161885
    17  C   -0.299301
    18  C    0.356495
    19  H    0.135975
    20  C   -0.380522
    21  C    0.371686
    22  H    0.122384
    23  C   -0.365459
    24  C   -0.177125
    25  H    0.125146
    26  C   -0.169762
    27  H    0.102961
    28  C    0.015154
    29  C    0.044612
    30  N   -0.198171
    31  H    0.058851
    32  C   -0.196686
    33  N   -0.205527
    34  H    0.064341
    35  C   -0.171810
    36  H    0.105498
    37  C   -0.180921
    38  H    0.101297
    39  C   -0.195869
    40  H    0.114366
    41  H    0.095353
    42  H    0.113987
    43  H    0.095750
    44  O   -0.327184
    45  C    0.020219
    46  C    0.042055
    47  N   -0.196894
    48  H    0.059895
    49  C   -0.195091
    50  N   -0.204245
    51  H    0.063005
    52  C   -0.174350
    53  H    0.105378
    54  C   -0.182144
    55  H    0.101781
    56  C   -0.194555
    57  H    0.095652
    58  H    0.114374
    59  H    0.113898
    60  H    0.095422
    61  C    0.034479
    62  C    0.057215
    63  N   -0.559603
    64  H    0.080389
    65  C   -0.211320
    66  N   -0.214018
    67  H    0.045028
    68  C   -0.195401
    69  H    0.097453
    70  C   -0.195705
    71  H    0.099892
    72  C   -0.180982
    73  H    0.111547
    74  H    0.093375
    75  H    0.112067
    76  H    0.094050
    77  H    0.089904
    78  H    0.234038
    79  H    0.098558
    80  H    0.099513
    81  H    0.114127
    82  H    0.109811
    83  H    0.113921
    84  H    0.109857
    85  H    0.109263
    86  H    0.111317
    87  H    0.230451
 Sum of Mulliken charges =   0.00000
 Mulliken charges with hydrogens summed into heavy atoms:
               1
     1  C    0.348742
     2  C   -0.051495
     3  C   -0.204962
     4  C    0.257956
     6  C   -0.198249
     7  C    0.310349
     9  C   -0.146996
    10  C   -0.057121
    12  C    0.173820
    15  C    0.320213
    16  C   -0.071982
    17  C   -0.163326
    18  C    0.356495
    20  C   -0.258138
    21  C    0.371686
    23  C   -0.240313
    24  C   -0.078568
    26  C   -0.066801
    28  C    0.074005
    29  C    0.108953
    30  N   -0.198171
    32  C    0.022939
    33  N   -0.205527
    35  C    0.039297
    37  C    0.028798
    39  C    0.013868
    44  O   -0.327184
    45  C    0.080114
    46  C    0.105060
    47  N   -0.196894
    49  C    0.024208
    50  N   -0.204245
    52  C    0.037287
    54  C    0.027882
    56  C    0.014765
    61  C    0.114868
    62  C    0.102244
    63  N   -0.095114
    65  C   -0.004604
    66  N   -0.214018
    68  C    0.015809
    70  C    0.009217
    72  C    0.025135
 Electronic spatial extent (au):  <R**2>=          31932.2750
 Charge=              0.0000 electrons
 Dipole moment (field-independent basis, Debye):
    X=             -1.0146    Y=              1.2964    Z=             -3.0466  Tot=              3.4630
 Quadrupole moment (field-independent basis, Debye-Ang):
   XX=           -241.7595   YY=           -229.7722   ZZ=           -279.0347
   XY=              5.8905   XZ=              7.5304   YZ=              4.1378
 Traceless Quadrupole moment (field-independent basis, Debye-Ang):
   XX=              8.4293   YY=             20.4166   ZZ=            -28.8459
   XY=              5.8905   XZ=              7.5304   YZ=              4.1378
 Octapole moment (field-independent basis, Debye-Ang**2):
  XXX=             78.8167  YYY=              6.9060  ZZZ=           -140.2704  XYY=            -75.5652
  XXY=             25.6270  XXZ=            -18.3293  XZZ=             13.8600  YZZ=             21.9623
  YYZ=            -14.0864  XYZ=             15.9014
 Hexadecapole moment (field-independent basis, Debye-Ang**3):
 XXXX=         -20197.5214 YYYY=         -16083.5541 ZZZZ=          -7051.5134 XXXY=            118.3666
 XXXZ=            167.8864 YYYX=            114.6802 YYYZ=            -88.2321 ZZZX=            185.9312
 ZZZY=            166.4574 XXYY=          -6188.8536 XXZZ=          -4334.8243 YYZZ=          -3723.0814
 XXYZ=             96.0002 YYXZ=             65.7347 ZZXY=              2.6888
 N-N= 4.951115700325D+03 E-N=-1.408897274569D+04  KE= 1.792243935371D+03
 No NMR shielding tensors so no spin-rotation constants.
 Leave Link  601 at Sun Oct 17 21:53:19 2021, MaxMem=  7864320000 cpu:              56.1 elap:               2.2
 (Enter /apps/gaussian/g16-c01-avx/g16/l9999.exe)
 Unable to Open any file for archive entry.
 1\1\GINC-CX3-5-26\SP\RPBE1PBE\def2TZVP\C36H44N6O1\ATARZIA\17-Oct-2021\
 0\\#P PBE1PBE/Def2TZVP SP SCF=(YQC,MaxCycle=900) int=(Grid=Superfinegr
 id) EmpiricalDispersion=GD3 SCRF=(PCM,Solvent=Dichloromethane)\\_2_ald
 e1_3_ami3_2_opt_dcm\\0,1\C,0,-3.5553,-1.6797,-0.7664\C,0,-3.8446,-1.28
 16,0.6026\C,0,-2.7189,-2.7583,-1.0475\C,0,-2.3659,-3.0454,-2.3619\H,0,
 -2.3457,-3.3516,-0.2267\C,0,-2.8178,-2.2271,-3.3988\C,0,-3.6593,-1.153
 7,-3.1327\H,0,-2.5007,-2.4498,-4.4076\C,0,-4.0434,-0.9068,-1.8155\C,0,
 -4.055,-0.2336,-4.1917\H,0,-4.7024,-0.0734,-1.6284\C,0,-1.4918,-4.1872
 ,-2.6655\H,0,-3.4435,-0.2759,-5.1062\H,0,-4.5737,-0.4651,0.7101\C,0,-1
 .2342,1.6456,0.0213\C,0,-1.2258,0.8695,1.2536\C,0,-2.4458,1.9754,-0.58
 42\C,0,-2.4751,2.578,-1.8366\H,0,-3.3585,1.7164,-0.0709\C,0,-1.2748,2.
 9131,-2.4617\C,0,-0.0583,2.6368,-1.8473\H,0,-1.3143,3.3799,-3.434\C,0,
 -0.0452,1.9797,-0.616\C,0,1.1908,3.0064,-2.4999\H,0,0.9106,1.7438,-0.1
 734\C,0,-3.7538,2.7503,-2.5062\H,0,-4.6387,2.5336,-1.888\C,0,-2.241,-0
 .1802,3.0711\C,0,-3.4299,-1.1548,2.8712\N,0,-2.2541,0.7309,1.9703\H,0,
 -1.3064,-0.7692,3.0985\C,0,-2.4193,0.5497,4.4028\N,0,-3.2456,-1.7772,1
 .597\H,0,-4.353,-0.549,2.8933\C,0,-3.4444,-2.1763,4.0032\H,0,-3.3436,1
 .1287,4.3676\C,0,-2.4634,-0.4552,5.5498\H,0,-2.5165,-2.7496,3.9725\C,0
 ,-3.5881,-1.467,5.3462\H,0,-2.6064,0.0738,6.4941\H,0,-1.5081,-0.9827,5
 .6027\H,0,-3.5763,-2.2014,6.1539\H,0,-4.5497,-0.9493,5.3787\O,0,-1.111
 4,-4.5005,-3.7643\C,0,-5.2302,1.5891,-5.0431\C,0,-5.1471,2.9662,-4.336
 6\N,0,-4.9962,0.5923,-4.0468\H,0,-4.462,1.5566,-5.8365\C,0,-6.6165,1.4
 361,-5.6694\N,0,-3.8545,3.0477,-3.7288\H,0,-5.9507,2.992,-3.5789\C,0,-
 5.3582,4.0744,-5.3628\H,0,-7.3673,1.4689,-4.8781\C,0,-6.8601,2.5511,-6
 .6815\H,0,-4.564,4.019,-6.1089\C,0,-6.7238,3.9227,-6.0255\H,0,-6.1339,
 2.465,-7.4931\H,0,-7.8576,2.4426,-7.1119\H,0,-6.8593,4.706,-6.7737\H,0
 ,-7.5052,4.0414,-5.2712\C,0,4.2898,1.8233,-3.0176\C,0,3.521,3.1079,-2.
 655\N,0,3.5229,1.0948,-4.0184\H,0,4.4298,1.2478,-2.0844\C,0,5.6565,2.1
 756,-3.6035\N,0,2.3117,2.7372,-1.9883\H,0,3.3226,3.6612,-3.5901\C,0,4.
 3516,3.97,-1.6991\H,0,5.4978,2.7082,-4.5428\C,0,6.4698,3.0365,-2.6444\
 H,0,4.4857,3.4168,-0.7678\C,0,5.7065,4.3119,-2.3052\H,0,7.4321,3.2839,
 -3.0967\H,0,6.6637,2.4757,-1.727\H,0,6.2805,4.9173,-1.6008\H,0,5.5608,
 4.9,-3.2141\H,0,-0.2737,0.3686,1.4896\H,0,2.6071,0.8577,-3.6512\H,0,1.
 0915,3.5321,-3.4617\H,0,-1.1936,-4.7674,-1.7697\H,0,-1.5899,1.2469,4.5
 402\H,0,-4.2735,-2.8696,3.8495\H,0,-6.6821,0.4605,-6.1561\H,0,-5.2837,
 5.0424,-4.8636\H,0,6.1959,1.2529,-3.8299\H,0,3.7944,4.881,-1.4707\H,0,
 3.9943,0.2298,-4.2603\\Version=ES64L-G16RevC.01\State=1-A\HF=-1800.635
 3679\RMSD=3.099e-09\Dipole=-0.5115663,0.7575584,1.0102574\Quadrupole=1
 0.5014526,-16.6210204,6.1195678,-1.3284646,6.2633688,-13.1077307\PG=C0
 1 [X(C36H44N6O1)]\\@
 The archive entry for this job was punched.


 THOUGH I SPEAK WITH THE TONGUES OF MEN AND OF ANGELS, 
 AND HAVE NOT LOVE,
 I AM BECOME AS SOUNDING BRASS, A TINKLING CYMBAL.
 AND THOUGH I HAVE THE GIFT OF PROPHECY,
 AND UNDERSTAND ALL MYSTERIES, AND ALL KNOWLEDGE.
 AND THOUGH I HAVE ALL FAITH, SO THAT I COULD REMOVE MOUNTAINS,
 AND HAVE NOT LOVE, I AM NOTHING.
 AND THOUGH I BESTOW ALL MY GOODS TO FEED THE POOR,
 AND THOUGH I GIVE MY BODY TO BE BURNED,
 AND HAVE NOT LOVE IT PROFITETH ME NOTHING.
 LOVE SUFFERETH LONG, AND IS KIND,
 LOVE ENVIETH NOT,
 LOVE VAUNTETH NOT ITSELF, IS NOT PUFFED UP,
 DOTH NOT BEHAVE ITSELF UNSEEMLY, SEEKETH NOT HER OWN,
 IS NOT EASILY PROVOKED, THINKETH NO EVIL,
 REJOICETH NOT IN INIQUITY, BUT REJOICETH IN THE TRUTH,
 BEARETH ALL THINGS, BELIEVETH ALL THINGS,
 HOPETH ALL THINGS, ENDURETH ALL THINGS.
 LOVE NEVER FAILETH, BUT WHETHER THERE BE PROPHECIES, THEY SHALL FAIL, 
 WHETHER THERE BE TONGUES, THEY SHALL CEASE,
 WHETHER THERE BE KNOWLEDGE, IT SHALL VANISH AWAY.
 FOR WE KNOW IN PART, AND WE PROPHESY IN PART.
 BUT WHEN THAT WHICH IS PERFECT IS COME, THEN THAT WHICH IS IN PART 
 SHALL BE DONE AWAY. 
 WHEN I WAS A CHILD, I SPAKE AS A CHILD, I UNDERSTOOD AS A CHILD, 
 I THOUGHT AS A CHILD.
 BUT WHEN I BECAME A MAN, I PUT AWAY CHILDISH THINGS.
 FOR NOW WE SEE THROUGH A GLASS, DARKLY, BUT THEN FACE TO FACE.
 NOW I KNOW IN PART. BUT THEN SHALL I KNOW EVEN AS ALSO I AM KNOWN.
 AND NOW ABIDETH FAITH, HOPE AND LOVE, THESE THREE.
 BUT THE GREATEST OF THESE IS LOVE.

                     I CORINTHIANS 13
 Job cpu time:       0 days 23 hours 24 minutes 23.7 seconds.
 Elapsed time:       0 days  0 hours 44 minutes 20.0 seconds.
 File lengths (MBytes):  RWF=   2048 Int=      0 D2E=      0 Chk=    160 Scr=     16
 Normal termination of Gaussian 16 at Sun Oct 17 21:53:19 2021.
