 Entering Gaussian System, Link 0=g16
 Initial command:
 /apps/gaussian/g16-c01-avx/g16/l1.exe "/rds/general/ephemeral/user/atarzia/ephemeral/xtb_spe_DFT/Gau-4160226.inp" -scrdir="/rds/general/ephemeral/user/atarzia/ephemeral/xtb_spe_DFT/"
 Entering Link 1 = /apps/gaussian/g16-c01-avx/g16/l1.exe PID=   4160227.
  
 Copyright (c) 1988-2019, Gaussian, Inc.  All Rights Reserved.
  
 This is part of the Gaussian(R) 16 program.  It is based on
 the Gaussian(R) 09 system (copyright 2009, Gaussian, Inc.),
 the Gaussian(R) 03 system (copyright 2003, Gaussian, Inc.),
 the Gaussian(R) 98 system (copyright 1998, Gaussian, Inc.),
 the Gaussian(R) 94 system (copyright 1995, Gaussian, Inc.),
 the Gaussian 92(TM) system (copyright 1992, Gaussian, Inc.),
 the Gaussian 90(TM) system (copyright 1990, Gaussian, Inc.),
 the Gaussian 88(TM) system (copyright 1988, Gaussian, Inc.),
 the Gaussian 86(TM) system (copyright 1986, Carnegie Mellon
 University), and the Gaussian 82(TM) system (copyright 1983,
 Carnegie Mellon University). Gaussian is a federally registered
 trademark of Gaussian, Inc.
  
 This software contains proprietary and confidential information,
 including trade secrets, belonging to Gaussian, Inc.
  
 This software is provided under written license and may be
 used, copied, transmitted, or stored only in accord with that
 written license.
  
 The following legend is applicable only to US Government
 contracts under FAR:
  
                    RESTRICTED RIGHTS LEGEND
  
 Use, reproduction and disclosure by the US Government is
 subject to restrictions as set forth in subparagraphs (a)
 and (c) of the Commercial Computer Software - Restricted
 Rights clause in FAR 52.227-19.
  
 Gaussian, Inc.
 340 Quinnipiac St., Bldg. 40, Wallingford CT 06492
  
  
 ---------------------------------------------------------------
 Warning -- This program may not be used in any manner that
 competes with the business of Gaussian, Inc. or will provide
 assistance to any competitor of Gaussian, Inc.  The licensee
 of this program is prohibited from giving any competitor of
 Gaussian, Inc. access to this program.  By using this program,
 the user acknowledges that Gaussian, Inc. is engaged in the
 business of creating and licensing software in the field of
 computational chemistry and represents and warrants to the
 licensee that it is not a competitor of Gaussian, Inc. and that
 it will not use this program in any manner prohibited above.
 ---------------------------------------------------------------
  

 Cite this work as:
 Gaussian 16, Revision C.01,
 M. J. Frisch, G. W. Trucks, H. B. Schlegel, G. E. Scuseria, 
 M. A. Robb, J. R. Cheeseman, G. Scalmani, V. Barone, 
 G. A. Petersson, H. Nakatsuji, X. Li, M. Caricato, A. V. Marenich, 
 J. Bloino, B. G. Janesko, R. Gomperts, B. Mennucci, H. P. Hratchian, 
 J. V. Ortiz, A. F. Izmaylov, J. L. Sonnenberg, D. Williams-Young, 
 F. Ding, F. Lipparini, F. Egidi, J. Goings, B. Peng, A. Petrone, 
 T. Henderson, D. Ranasinghe, V. G. Zakrzewski, J. Gao, N. Rega, 
 G. Zheng, W. Liang, M. Hada, M. Ehara, K. Toyota, R. Fukuda, 
 J. Hasegawa, M. Ishida, T. Nakajima, Y. Honda, O. Kitao, H. Nakai, 
 T. Vreven, K. Throssell, J. A. Montgomery, Jr., J. E. Peralta, 
 F. Ogliaro, M. J. Bearpark, J. J. Heyd, E. N. Brothers, K. N. Kudin, 
 V. N. Staroverov, T. A. Keith, R. Kobayashi, J. Normand, 
 K. Raghavachari, A. P. Rendell, J. C. Burant, S. S. Iyengar, 
 J. Tomasi, M. Cossi, J. M. Millam, M. Klene, C. Adamo, R. Cammi, 
 J. W. Ochterski, R. L. Martin, K. Morokuma, O. Farkas, 
 J. B. Foresman, and D. J. Fox, Gaussian, Inc., Wallingford CT, 2019.
 
 ******************************************
 Gaussian 16:  ES64L-G16RevC.01  3-Jul-2019
                10-Nov-2021 
 ******************************************
 %chk=_2_alde1_3_ami3_1_opt_cfm_mp2.chk
 %mem=60000mb
 %nprocshared=32
 Will use up to   32 processors via shared memory.
 ----------------------------------------------------------------------
 #P MP2/aug-cc-pVDZ SP SCF=(YQC,MaxCycle=900) int=(Grid=Superfinegrid) 
 SCRF=(PCM,Solvent=Chloroform)
 ----------------------------------------------------------------------
 1/38=1,172=1/1;
 2/12=2,17=6,18=5,40=1/2;
 3/5=16,7=10,11=9,25=1,30=1,70=2201,72=7,75=-7/1,2,3;
 4//1;
 5/5=2,7=900,8=4,13=1,38=1,53=7/8,2,8;
 8/10=1/1;
 9/16=-3/6;
 6/7=2,8=2,9=2,10=2/1;
 99/5=1,9=1/99;
 Leave Link    1 at Wed Nov 10 03:45:50 2021, MaxMem=  7864320000 cpu:               6.0 elap:               0.2
 (Enter /apps/gaussian/g16-c01-avx/g16/l101.exe)
 -----------------------------
 _2_alde1_3_ami3_1_opt_cfm_mp2
 -----------------------------
 Symbolic Z-matrix:
 Charge =  0 Multiplicity = 1
 C                    -3.6665   -1.3508   -0.6542 
 C                    -3.5756   -0.998     0.7541 
 C                    -3.1904   -2.5713   -1.1291 
 C                    -3.1863   -2.8367   -2.4944 
 H                    -2.818    -3.2935   -0.4187 
 C                    -3.6213   -1.8621   -3.3943 
 C                    -4.1057   -0.644    -2.9332 
 H                    -3.5749   -2.0788   -4.452 
 C                    -4.1493   -0.4108   -1.5596 
 C                    -4.4674    0.4173   -3.8647 
 H                    -4.5348    0.5375   -1.2192 
 C                    -2.6973   -4.1267   -3.0006 
 H                    -4.0668    0.3059   -4.8842 
 H                    -4.0432   -0.0412    1.0293 
 C                    -0.5244    1.2506   -0.2975 
 C                    -0.4612    0.4121    0.8901 
 C                    -1.7042    1.9121   -0.6232 
 C                    -1.8284    2.5798   -1.8365 
 H                    -2.5293    1.8585    0.0693 
 C                    -0.7345    2.6392   -2.6996 
 C                     0.465     2.0309   -2.359 
 H                    -0.8431    3.1579   -3.6395 
 C                     0.5573    1.3154   -1.1741 
 C                     1.6493    2.1471   -3.293 
 H                     1.4831    0.8102   -0.9438 
 C                    -3.1276    3.1046   -2.2208 
 H                    -3.8984    3.0637   -1.4351 
 C                    -1.3082   -0.4885    2.8653 
 C                    -2.7136   -1.1429    2.8917 
 N                    -1.3151    0.4817    1.8161 
 H                    -0.5585   -1.2796    2.6812 
 C                    -1.0395    0.1591    4.224 
 N                    -2.9392   -1.6953    1.5921 
 H                    -3.4392   -0.3425    3.1204 
 C                    -2.7543   -2.2148    3.9755 
 C                    -1.101    -0.8914    5.3284 
 C                    -2.4555   -1.595     5.3371 
 O                    -2.6417   -4.4443   -4.1609 
 C                    -5.318     2.5142   -4.4147 
 C                    -4.759     3.7774   -3.7114 
 N                    -5.1441    1.4205   -3.5122 
 H                    -4.7537    2.3593   -5.3518 
 C                    -6.7948    2.7394   -4.7393 
 N                    -3.3922    3.5057   -3.3881 
 H                    -5.3646    3.9379   -2.8012 
 C                    -4.8898    4.9754   -4.6459 
 C                    -6.9513    3.9505   -5.6536 
 C                    -6.354     5.1997   -5.011 
 C                     3.6124    2.6962   -2.2244 
 C                     3.3413    3.7558   -3.3062 
 N                     2.8538    1.5489   -2.702 
 H                     3.133     3.0206   -1.2892 
 C                     5.1011    2.5399   -1.9955 
 N                     1.9289    3.5708   -3.6076 
 H                     3.899     3.4789   -4.2142 
 C                     3.8102    5.1178   -2.8361 
 C                     5.6409    3.9033   -1.5504 
 C                     5.3125    5.0142   -2.5525 
 H                     0.355    -0.3279    0.9009 
 H                     3.3892    1.0652   -3.4167 
 H                     1.4046    1.63     -4.2314 
 H                     1.3649    4.1671   -3.008 
 H                    -2.3695   -4.8208   -2.2013 
 H                    -8.0096    4.1128   -5.8679 
 H                    -6.4439    3.7538   -6.6009 
 H                    -6.4376    6.0449   -5.6969 
 H                    -6.9169    5.445    -4.1073 
 H                    -4.4818    5.8596   -4.1525 
 H                    -4.2972    4.788    -5.5426 
 H                    -7.1942    1.845    -5.2224 
 H                    -7.3422    2.892    -3.8077 
 H                     3.6206    5.8779   -3.5956 
 H                     3.2737    5.4009   -1.9267 
 H                     5.6789    5.9667   -2.1651 
 H                     5.8342    4.8145   -3.4914 
 H                     6.7232    3.8447   -1.4211 
 H                     5.2031    4.1548   -0.5815 
 H                     5.589     2.2264   -2.9218 
 H                     5.3013    1.786    -1.2325 
 H                    -2.0181   -2.9843    3.7375 
 H                    -3.7406   -2.6827    3.9796 
 H                    -1.7838    0.9382    4.3973 
 H                    -0.0551    0.632     4.2042 
 H                    -0.9229   -0.4168    6.2955 
 H                    -0.3117   -1.6294    5.167 
 H                    -2.4652   -2.3707    6.1052 
 H                    -3.2366   -0.8714    5.5823 
 
 ITRead=  0  0  0  0  0  0  0  0  0  0  0  0  0  0  0  0  0  0  0  0
 ITRead=  0  0  0  0  0  0  0  0  0  0  0  0  0  0  0  0  0  0  0  0
 ITRead=  0  0  0  0  0  0  0  0  0  0  0  0  0  0  0  0  0  0  0  0
 ITRead=  0  0  0  0  0  0  0  0  0  0  0  0  0  0  0  0  0  0  0  0
 ITRead=  0  0  0  0  0  0  0
 MicOpt= -1 -1 -1 -1 -1 -1 -1 -1 -1 -1 -1 -1 -1 -1 -1 -1 -1 -1 -1 -1
 MicOpt= -1 -1 -1 -1 -1 -1 -1 -1 -1 -1 -1 -1 -1 -1 -1 -1 -1 -1 -1 -1
 MicOpt= -1 -1 -1 -1 -1 -1 -1 -1 -1 -1 -1 -1 -1 -1 -1 -1 -1 -1 -1 -1
 MicOpt= -1 -1 -1 -1 -1 -1 -1 -1 -1 -1 -1 -1 -1 -1 -1 -1 -1 -1 -1 -1
 MicOpt= -1 -1 -1 -1 -1 -1 -1
 NAtoms=     87 NQM=       87 NQMF=       0 NMMI=      0 NMMIF=      0
                NMic=       0 NMicF=      0.
                    Isotopes and Nuclear Properties:
 (Nuclear quadrupole moments (NQMom) in fm**2, nuclear magnetic moments (NMagM)
  in nuclear magnetons)

  Atom         1           2           3           4           5           6           7           8           9          10
 IAtWgt=          12          12          12          12           1          12          12           1          12          12
 AtmWgt=  12.0000000  12.0000000  12.0000000  12.0000000   1.0078250  12.0000000  12.0000000   1.0078250  12.0000000  12.0000000
 NucSpn=           0           0           0           0           1           0           0           1           0           0
 AtZEff=  -0.0000000  -0.0000000  -0.0000000  -0.0000000  -0.0000000  -0.0000000  -0.0000000  -0.0000000  -0.0000000  -0.0000000
 NQMom=    0.0000000   0.0000000   0.0000000   0.0000000   0.0000000   0.0000000   0.0000000   0.0000000   0.0000000   0.0000000
 NMagM=    0.0000000   0.0000000   0.0000000   0.0000000   2.7928460   0.0000000   0.0000000   2.7928460   0.0000000   0.0000000
 AtZNuc=   6.0000000   6.0000000   6.0000000   6.0000000   1.0000000   6.0000000   6.0000000   1.0000000   6.0000000   6.0000000

  Atom        11          12          13          14          15          16          17          18          19          20
 IAtWgt=           1          12           1           1          12          12          12          12           1          12
 AtmWgt=   1.0078250  12.0000000   1.0078250   1.0078250  12.0000000  12.0000000  12.0000000  12.0000000   1.0078250  12.0000000
 NucSpn=           1           0           1           1           0           0           0           0           1           0
 AtZEff=  -0.0000000  -0.0000000  -0.0000000  -0.0000000  -0.0000000  -0.0000000  -0.0000000  -0.0000000  -0.0000000  -0.0000000
 NQMom=    0.0000000   0.0000000   0.0000000   0.0000000   0.0000000   0.0000000   0.0000000   0.0000000   0.0000000   0.0000000
 NMagM=    2.7928460   0.0000000   2.7928460   2.7928460   0.0000000   0.0000000   0.0000000   0.0000000   2.7928460   0.0000000
 AtZNuc=   1.0000000   6.0000000   1.0000000   1.0000000   6.0000000   6.0000000   6.0000000   6.0000000   1.0000000   6.0000000

  Atom        21          22          23          24          25          26          27          28          29          30
 IAtWgt=          12           1          12          12           1          12           1          12          12          14
 AtmWgt=  12.0000000   1.0078250  12.0000000  12.0000000   1.0078250  12.0000000   1.0078250  12.0000000  12.0000000  14.0030740
 NucSpn=           0           1           0           0           1           0           1           0           0           2
 AtZEff=  -0.0000000  -0.0000000  -0.0000000  -0.0000000  -0.0000000  -0.0000000  -0.0000000  -0.0000000  -0.0000000  -0.0000000
 NQMom=    0.0000000   0.0000000   0.0000000   0.0000000   0.0000000   0.0000000   0.0000000   0.0000000   0.0000000   2.0440000
 NMagM=    0.0000000   2.7928460   0.0000000   0.0000000   2.7928460   0.0000000   2.7928460   0.0000000   0.0000000   0.4037610
 AtZNuc=   6.0000000   1.0000000   6.0000000   6.0000000   1.0000000   6.0000000   1.0000000   6.0000000   6.0000000   7.0000000

  Atom        31          32          33          34          35          36          37          38          39          40
 IAtWgt=           1          12          14           1          12          12          12          16          12          12
 AtmWgt=   1.0078250  12.0000000  14.0030740   1.0078250  12.0000000  12.0000000  12.0000000  15.9949146  12.0000000  12.0000000
 NucSpn=           1           0           2           1           0           0           0           0           0           0
 AtZEff=  -0.0000000  -0.0000000  -0.0000000  -0.0000000  -0.0000000  -0.0000000  -0.0000000  -0.0000000  -0.0000000  -0.0000000
 NQMom=    0.0000000   0.0000000   2.0440000   0.0000000   0.0000000   0.0000000   0.0000000   0.0000000   0.0000000   0.0000000
 NMagM=    2.7928460   0.0000000   0.4037610   2.7928460   0.0000000   0.0000000   0.0000000   0.0000000   0.0000000   0.0000000
 AtZNuc=   1.0000000   6.0000000   7.0000000   1.0000000   6.0000000   6.0000000   6.0000000   8.0000000   6.0000000   6.0000000

  Atom        41          42          43          44          45          46          47          48          49          50
 IAtWgt=          14           1          12          14           1          12          12          12          12          12
 AtmWgt=  14.0030740   1.0078250  12.0000000  14.0030740   1.0078250  12.0000000  12.0000000  12.0000000  12.0000000  12.0000000
 NucSpn=           2           1           0           2           1           0           0           0           0           0
 AtZEff=  -0.0000000  -0.0000000  -0.0000000  -0.0000000  -0.0000000  -0.0000000  -0.0000000  -0.0000000  -0.0000000  -0.0000000
 NQMom=    2.0440000   0.0000000   0.0000000   2.0440000   0.0000000   0.0000000   0.0000000   0.0000000   0.0000000   0.0000000
 NMagM=    0.4037610   2.7928460   0.0000000   0.4037610   2.7928460   0.0000000   0.0000000   0.0000000   0.0000000   0.0000000
 AtZNuc=   7.0000000   1.0000000   6.0000000   7.0000000   1.0000000   6.0000000   6.0000000   6.0000000   6.0000000   6.0000000

  Atom        51          52          53          54          55          56          57          58          59          60
 IAtWgt=          14           1          12          14           1          12          12          12           1           1
 AtmWgt=  14.0030740   1.0078250  12.0000000  14.0030740   1.0078250  12.0000000  12.0000000  12.0000000   1.0078250   1.0078250
 NucSpn=           2           1           0           2           1           0           0           0           1           1
 AtZEff=  -0.0000000  -0.0000000  -0.0000000  -0.0000000  -0.0000000  -0.0000000  -0.0000000  -0.0000000  -0.0000000  -0.0000000
 NQMom=    2.0440000   0.0000000   0.0000000   2.0440000   0.0000000   0.0000000   0.0000000   0.0000000   0.0000000   0.0000000
 NMagM=    0.4037610   2.7928460   0.0000000   0.4037610   2.7928460   0.0000000   0.0000000   0.0000000   2.7928460   2.7928460
 AtZNuc=   7.0000000   1.0000000   6.0000000   7.0000000   1.0000000   6.0000000   6.0000000   6.0000000   1.0000000   1.0000000

  Atom        61          62          63          64          65          66          67          68          69          70
 IAtWgt=           1           1           1           1           1           1           1           1           1           1
 AtmWgt=   1.0078250   1.0078250   1.0078250   1.0078250   1.0078250   1.0078250   1.0078250   1.0078250   1.0078250   1.0078250
 NucSpn=           1           1           1           1           1           1           1           1           1           1
 AtZEff=  -0.0000000  -0.0000000  -0.0000000  -0.0000000  -0.0000000  -0.0000000  -0.0000000  -0.0000000  -0.0000000  -0.0000000
 NQMom=    0.0000000   0.0000000   0.0000000   0.0000000   0.0000000   0.0000000   0.0000000   0.0000000   0.0000000   0.0000000
 NMagM=    2.7928460   2.7928460   2.7928460   2.7928460   2.7928460   2.7928460   2.7928460   2.7928460   2.7928460   2.7928460
 AtZNuc=   1.0000000   1.0000000   1.0000000   1.0000000   1.0000000   1.0000000   1.0000000   1.0000000   1.0000000   1.0000000

  Atom        71          72          73          74          75          76          77          78          79          80
 IAtWgt=           1           1           1           1           1           1           1           1           1           1
 AtmWgt=   1.0078250   1.0078250   1.0078250   1.0078250   1.0078250   1.0078250   1.0078250   1.0078250   1.0078250   1.0078250
 NucSpn=           1           1           1           1           1           1           1           1           1           1
 AtZEff=  -0.0000000  -0.0000000  -0.0000000  -0.0000000  -0.0000000  -0.0000000  -0.0000000  -0.0000000  -0.0000000  -0.0000000
 NQMom=    0.0000000   0.0000000   0.0000000   0.0000000   0.0000000   0.0000000   0.0000000   0.0000000   0.0000000   0.0000000
 NMagM=    2.7928460   2.7928460   2.7928460   2.7928460   2.7928460   2.7928460   2.7928460   2.7928460   2.7928460   2.7928460
 AtZNuc=   1.0000000   1.0000000   1.0000000   1.0000000   1.0000000   1.0000000   1.0000000   1.0000000   1.0000000   1.0000000

  Atom        81          82          83          84          85          86          87
 IAtWgt=           1           1           1           1           1           1           1
 AtmWgt=   1.0078250   1.0078250   1.0078250   1.0078250   1.0078250   1.0078250   1.0078250
 NucSpn=           1           1           1           1           1           1           1
 AtZEff=  -0.0000000  -0.0000000  -0.0000000  -0.0000000  -0.0000000  -0.0000000  -0.0000000
 NQMom=    0.0000000   0.0000000   0.0000000   0.0000000   0.0000000   0.0000000   0.0000000
 NMagM=    2.7928460   2.7928460   2.7928460   2.7928460   2.7928460   2.7928460   2.7928460
 AtZNuc=   1.0000000   1.0000000   1.0000000   1.0000000   1.0000000   1.0000000   1.0000000
 Leave Link  101 at Wed Nov 10 03:45:51 2021, MaxMem=  7864320000 cpu:               2.2 elap:               0.1
 (Enter /apps/gaussian/g16-c01-avx/g16/l202.exe)
 Stoichiometry    C36H44N6O
 Framework group  C1[X(C36H44N6O)]
 Deg. of freedom   255
 Full point group                 C1      NOp   1
 Largest Abelian subgroup         C1      NOp   1
 Largest concise Abelian subgroup C1      NOp   1
                         Standard orientation:                         
 ---------------------------------------------------------------------
 Center     Atomic      Atomic             Coordinates (Angstroms)
 Number     Number       Type             X           Y           Z
 ---------------------------------------------------------------------
      1          6           0        3.120299   -1.049935    0.823595
      2          6           0        3.083598   -2.051722   -0.230498
      3          6           0        3.178659   -1.412313    2.167879
      4          6           0        3.098528   -0.439216    3.158414
      5          1           0        3.275014   -2.457693    2.418518
      6          6           0        2.917288    0.899417    2.806128
      7          6           0        2.865354    1.274826    1.469193
      8          1           0        2.822028    1.632226    3.594644
      9          6           0        2.995955    0.294528    0.486839
     10          6           0        2.576073    2.652430    1.090511
     11          1           0        2.960272    0.604808   -0.545734
     12          6           0        3.172146   -0.813586    4.577529
     13          1           0        2.126504    3.273581    1.880656
     14          1           0        3.107242   -1.654868   -1.256071
     15          6           0       -0.766808   -1.276636   -0.443808
     16          6           0       -0.277190   -2.646689   -0.470264
     17          6           0       -0.068313   -0.272609   -1.106850
     18          6           0       -0.431287    1.060805   -0.953221
     19          1           0        0.783023   -0.551793   -1.707269
     20          6           0       -1.546877    1.381246   -0.180005
     21          6           0       -2.284451    0.382826    0.439656
     22          1           0       -1.817780    2.419423   -0.065741
     23          6           0       -1.875981   -0.938334    0.329490
     24          6           0       -3.515409    0.753623    1.236949
     25          1           0       -2.433931   -1.699384    0.853765
     26          6           0        0.425421    2.092025   -1.513274
     27          1           0        1.236479    1.723844   -2.161161
     28          6           0        1.156289   -4.345156   -1.170446
     29          6           0        2.693528   -4.155728   -1.099050
     30          7           0        0.577808   -3.045662   -1.307680
     31          1           0        0.822494   -4.841562   -0.240960
     32          6           0        0.823553   -5.234739   -2.368603
     33          7           0        2.954050   -3.285089    0.005087
     34          1           0        3.008268   -3.699714   -2.054261
     35          6           0        3.364512   -5.513045   -0.918166
     36          6           0        1.506260   -6.591005   -2.222018
     37          6           0        3.018073   -6.428990   -2.087958
     38          8           0        3.099267   -0.048699    5.504833
     39          6           0        2.309162    4.385962   -0.441362
     40          6           0        1.350765    4.204399   -1.646060
     41          7           0        2.774556    3.085533   -0.076372
     42          1           0        1.746377    4.860402    0.382511
     43          6           0        3.465322    5.294539   -0.859454
     44          7           0        0.312329    3.315560   -1.224038
     45          1           0        1.943645    3.769382   -2.470820
     46          6           0        0.796047    5.563426   -2.059501
     47          6           0        2.930311    6.652866   -1.302072
     48          6           0        1.935694    6.499540   -2.449866
     49          6           0       -5.341052   -0.570746    0.778415
     50          6           0       -5.731042    0.893721    0.514249
     51          7           0       -4.226089   -0.443382    1.706052
     52          1           0       -4.929374   -0.995724   -0.148716
     53          6           0       -6.552261   -1.374538    1.202611
     54          7           0       -4.444720    1.568533    0.414531
     55          1           0       -6.229207    1.290231    1.412457
     56          6           0       -6.687524    0.978979   -0.657834
     57          6           0       -7.575525   -1.294548    0.064678
     58          6           0       -7.926509    0.150779   -0.301367
     59          1           0       -0.664673   -3.300476    0.327432
     60          1           0       -4.584311   -0.290723    2.644022
     61          1           0       -3.202153    1.357142    2.100373
     62          1           0       -4.128146    1.571534   -0.551369
     63          1           0        3.308003   -1.900998    4.742407
     64          1           0        3.761044    7.289661   -1.612940
     65          1           0        2.435006    7.136897   -0.457141
     66          1           0        1.532867    7.476562   -2.723673
     67          1           0        2.451983    6.093651   -3.323022
     68          1           0        0.110603    5.429303   -2.898486
     69          1           0        0.228618    5.979800   -1.225822
     70          1           0        4.149216    5.412456   -0.016102
     71          1           0        4.013433    4.817245   -1.673442
     72          1           0       -6.969218    2.014424   -0.855428
     73          1           0       -6.210647    0.576451   -1.555356
     74          1           0       -8.620986    0.149093   -1.143556
     75          1           0       -8.431890    0.621401    0.545208
     76          1           0       -8.486039   -1.823370    0.352493
     77          1           0       -7.163098   -1.795941   -0.814069
     78          1           0       -6.975049   -0.954755    2.118795
     79          1           0       -6.282199   -2.413798    1.396570
     80          1           0        3.025248   -5.951047    0.021951
     81          1           0        4.445143   -5.372534   -0.853150
     82          1           0        1.156409   -4.737227   -3.281127
     83          1           0       -0.259887   -5.359588   -2.428940
     84          1           0        1.274924   -7.212994   -3.089117
     85          1           0        1.116985   -7.095434   -1.334491
     86          1           0        3.483888   -7.405448   -1.941917
     87          1           0        3.418550   -6.001715   -3.010396
 ---------------------------------------------------------------------
 Rotational constants (GHZ):           0.0628160           0.0575392           0.0384060
 Leave Link  202 at Wed Nov 10 03:45:51 2021, MaxMem=  7864320000 cpu:               0.4 elap:               0.0
 (Enter /apps/gaussian/g16-c01-avx/g16/l301.exe)
 Standard basis: Aug-CC-pVDZ (5D, 7F)
 Ernie: Thresh=  0.10000D-02 Tol=  0.10000D-05 Strict=F.
 Ernie:  86 primitive shells out of 1383 were deleted.
 There are  1471 symmetry adapted cartesian basis functions of A   symmetry.
 There are  1385 symmetry adapted basis functions of A   symmetry.
  1385 basis functions,  2333 primitive gaussians,  1471 cartesian basis functions
   155 alpha electrons      155 beta electrons
       nuclear repulsion energy      5038.9599615103 Hartrees.
 IExCor=    0 DFT=F Ex=HF Corr=None ExCW=0 ScaHFX=  1.000000
 ScaDFX=  1.000000  1.000000  1.000000  1.000000 ScalE2=  1.000000  1.000000
 IRadAn=      7 IRanWt=     -1 IRanGd=            0 ICorTp=0 IEmpDi=  4
 NAtoms=   87 NActive=   87 NUniq=   87 SFac= 1.00D+00 NAtFMM=   60 NAOKFM=T Big=T
 Integral buffers will be    131072 words long.
 Raffenetti 1 integral format.
 Two-electron integral symmetry is turned on.
 ------------------------------------------------------------------------------
 Polarizable Continuum Model (PCM)
 =================================
 Model                : PCM.
 Atomic radii         : UFF (Universal Force Field).
 Polarization charges : Total charges.
 Charge compensation  : None.
 Solution method      : On-the-fly selection.
 Cavity type          : Scaled VdW (van der Waals Surface) (Alpha=1.100).
 Cavity algorithm     : GePol (No added spheres)
                        Default sphere list used, NSphG=   87.
                        Lebedev-Laikov grids with approx.  5.0 points / Ang**2.
                        Smoothing algorithm: York/Karplus (Gamma=1.0000).
                        Polarization charges: spherical gaussians, with
                                              point-specific exponents (IZeta= 3).
                        Self-potential: point-specific (ISelfS= 7).
                        Self-field    : sphere-specific E.n sum rule (ISelfD= 2).
 Solvent              : Chloroform, Eps=   4.711300 Eps(inf)=   2.090627
 ------------------------------------------------------------------------------
 GePol: Number of generator spheres                  =      87
 GePol: Total number of spheres                      =      87
 GePol: Number of exposed spheres                    =      87 (100.00%)
 GePol: Number of points                             =    5254
 GePol: Average weight of points                     =       0.13
 GePol: Minimum weight of points                     =   0.25D-11
 GePol: Maximum weight of points                     =    0.20577
 GePol: Number of points with low weight             =     388
 GePol: Fraction of low-weight points (<1% of avg)   =       7.38%
 GePol: Cavity surface area                          =    683.660 Ang**2
 GePol: Cavity volume                                =    814.308 Ang**3
 Leave Link  301 at Wed Nov 10 03:45:52 2021, MaxMem=  7864320000 cpu:               6.3 elap:               0.2
 (Enter /apps/gaussian/g16-c01-avx/g16/l302.exe)
 NPDir=0 NMtPBC=     1 NCelOv=     1 NCel=       1 NClECP=     1 NCelD=      1
         NCelK=      1 NCelE2=     1 NClLst=     1 CellRange=     0.0.
 One-electron integrals computed using PRISM.
 One-electron integral symmetry used in STVInt
 NBasis=  1385 RedAO= T EigKep=  1.04D-06  NBF=  1385
 NBsUse=  1377 1.00D-06 EigRej=  9.18D-07 NBFU=  1377
 Leave Link  302 at Wed Nov 10 03:45:56 2021, MaxMem=  7864320000 cpu:             135.7 elap:               4.4
 (Enter /apps/gaussian/g16-c01-avx/g16/l303.exe)
 DipDrv:  MaxL=1.
 Leave Link  303 at Wed Nov 10 03:45:57 2021, MaxMem=  7864320000 cpu:              13.8 elap:               0.5
 (Enter /apps/gaussian/g16-c01-avx/g16/l401.exe)
 ExpMin= 2.97D-02 ExpMax= 1.17D+04 ExpMxC= 4.01D+02 IAcc=3 IRadAn=         7 AccDes= 0.00D+00
 Harris functional with IExCor=  205 and IRadAn=       7 diagonalized for initial guess.
 HarFok:  IExCor=  205 AccDes= 0.00D+00 IRadAn=         7 IDoV= 1 UseB2=F ITyADJ=14
 ICtDFT=  3500011 ScaDFX=  1.000000  1.000000  1.000000  1.000000
 FoFCou: FMM=F IPFlag=           0 FMFlag=      100000 FMFlg1=        2001
         NFxFlg=           0 DoJE=T BraDBF=F KetDBF=T FulRan=T
         wScrn=  0.000000 ICntrl=       500 IOpCl=  0 I1Cent=   200000004 NGrid=           0
         NMat0=    1 NMatS0=      1 NMatT0=    0 NMatD0=    1 NMtDS0=    0 NMtDT0=    0
 Petite list used in FoFCou.
 Harris En= -1793.19587297748    
 JPrj=0 DoOrth=F DoCkMO=F.
 Leave Link  401 at Wed Nov 10 03:46:18 2021, MaxMem=  7864320000 cpu:             682.3 elap:              21.6
 (Enter /apps/gaussian/g16-c01-avx/g16/l508.exe)
 Integral symmetry usage will be decided dynamically.
 Tight linear equation convergence will be used.
 RHF wavefunction.
 Linear searches until partial convergence.
 Full line searches.
 Fock matrices will be formed incrementally for  20 cycles.
 Inv3:  Mode=1 IEnd=    82813548.
 Iteration    1 A*A^-1 deviation from unit magnitude is 6.88D-15 for   5225.
 Iteration    1 A*A^-1 deviation from orthogonality  is 3.23D-15 for   3557     75.
 Iteration    1 A^-1*A deviation from unit magnitude is 6.44D-15 for   5225.
 Iteration    1 A^-1*A deviation from orthogonality  is 2.47D-15 for   5253   5236.
 FoFJK:  IHMeth= 1 ICntrl=       0 DoSepK=F KAlg= 0 I1Cent=           0 FoldK=F
 IRaf= 980000000 NMat=       1 IRICut=       1 DoRegI=T DoRafI=F ISym2E= 1 IDoP0=0 IntGTp=1.
 Iteration   1 EE= -1789.04599984960                                    Grad=1.999D+00 Max rot=    2.7970 deg.
 Gradient too large for Newton-Raphson -- use scaled steepest descent instead.
 Alpha Gap=     0.430 HL deriv= 4.89D-05
     ILin= 1 X=0.000D+00 Y=-1.789045999850D+03 DE= 0.00D+00 F= -4.78D+00
 RMSU=  8.86D-03    CP:  7.89D-01
     ILin= 2 X=3.000D-01 Y=-1.790128775244D+03 DE=-1.08D+00 F= -2.43D+00 OKLS=F
 RMSU=  1.72D-03    CP:  6.77D-01  1.56D+00
     ILin= 3 X=5.000D-01 Y=-1.790454820128D+03 DE=-1.41D+00 F= -8.33D-01
 RMSU=  4.12D-03    CP:  5.20D-01  2.42D+00  3.00D+00
     ILin= 4 X=9.000D-01 Y=-1.790150447939D+03 DE=-1.10D+00 F=  2.35D+00
     An  expanding polynomial of degree  4 produced  0.6049
 RMSU=  4.00D-06    CP:  6.27D-01  1.82D+00  1.84D+00  1.01D-05
 Iteration   2 EE= -1790.49831884692     Delta-E=       -1.452318997325 Grad=6.849D-01 Max rot=    1.0771 deg.
 Gradient too large for Newton-Raphson -- use scaled steepest descent instead.
 Alpha Gap=     0.459 HL deriv= 1.01D-03
     ILin= 1 X=0.000D+00 Y=-1.790498318847D+03 DE= 0.00D+00 F= -2.83D-01
 RMSU=  2.19D-03    CP:  5.61D-01  2.04D+00  3.00D+00  4.38D-02 -3.00D+00
     ILin= 2 X=4.000D-01 Y=-1.790582420825D+03 DE=-8.41D-02 F= -1.38D-01 OKLS=F
 RMSU=  5.71D-04    CP:  4.95D-01  2.28D+00  3.00D+00  8.39D-01 -3.00D+00
                    CP:  2.12D+00
     ILin= 3 X=9.000D-01 Y=-1.790606440808D+03 DE=-1.08D-01 F=  4.17D-02
     Accept linear search using points  2 and  3.
     An  expanding polynomial of degree  3 produced  0.6877
 RMSU=  6.28D-06    CP:  5.21D-01  2.19D+00  3.00D+00  4.83D-01 -3.00D+00
                    CP:  1.66D+00  4.39D-01
 Iteration   3 EE= -1790.60721827637     Delta-E=       -0.108899429443 Grad=2.398D-01 Max rot=    0.3462 deg.
 Gradient too large for Newton-Raphson -- use scaled steepest descent instead.
 Alpha Gap=     0.449 HL deriv= 3.39D-04
     ILin= 1 X=0.000D+00 Y=-1.790607218276D+03 DE= 0.00D+00 F= -3.76D-02
 RMSU=  7.53D-04    CP:  4.92D-01  2.24D+00  3.00D+00  8.19D-01 -3.00D+00
                    CP:  1.98D+00  9.95D-01  3.00D+00
     ILin= 2 X=6.000D-01 Y=-1.790622075500D+03 DE=-1.49D-02 F= -1.19D-02 OKLS=F
 RMSU=  1.04D-04    CP:  4.62D-01  2.30D+00  3.00D+00  1.24D+00 -3.00D+00
                    CP:  2.33D+00  1.81D+00  3.00D+00  2.13D+00
     ILin= 3 X=1.300D+00 Y=-1.790619971706D+03 DE=-1.28D-02 F=  1.80D-02
     An  expanding polynomial of degree  3 produced  0.8796
 RMSU=  1.88D-06    CP:  4.80D-01  2.27D+00  3.00D+00  9.85D-01 -3.00D+00
                    CP:  2.12D+00  1.30D+00  3.00D+00  1.46D+00  2.68D-01
 Iteration   4 EE= -1790.62374544586     Delta-E=       -0.016527169496 Grad=7.601D-02 Max rot=    0.1901 deg.
 Gradient too large for Newton-Raphson -- use scaled steepest descent instead.
 Alpha Gap=     0.454 HL deriv= 2.43D-04
     ILin= 1 X=0.000D+00 Y=-1.790623745446D+03 DE= 0.00D+00 F= -7.93D-03
 RMSU=  4.25D-04    CP:  4.69D-01  2.25D+00  3.00D+00  1.03D+00 -3.00D+00
                    CP:  2.29D+00  1.54D+00 -3.00D+00  1.74D+00  1.30D+00
                    CP: -3.00D+00
     ILin= 2 X=8.000D-01 Y=-1.790626098307D+03 DE=-2.35D-03 F=  2.04D-03 OKLS=T
     Accept linear search using points  1 and  2.
     An  expanding polynomial of degree  2 produced  0.5812
 RMSU=  7.00D-06    CP:  4.72D-01  2.25D+00  3.00D+00  1.02D+00 -3.00D+00
                    CP:  2.24D+00  1.47D+00  7.04D-02  1.67D+00  1.02D+00
                    CP: -3.00D+00  7.31D-01
 Iteration   5 EE= -1790.62624702665     Delta-E=       -0.002501580785 Grad=2.826D-02 Max rot=    0.0998 deg.
 Gradient too large for Newton-Raphson -- use scaled steepest descent instead.
 Alpha Gap=     0.454 HL deriv= 1.37D-04
     ILin= 1 X=0.000D+00 Y=-1.790626247027D+03 DE= 0.00D+00 F= -1.01D-03
 RMSU=  6.75D-05    CP:  4.67D-01  2.24D+00  3.00D+00  1.04D+00 -3.00D+00
                    CP:  2.29D+00  1.58D+00 -2.86D+00  1.97D+00  1.38D+00
                    CP: -3.00D+00  1.00D+00 -2.52D-01
     ILin= 2 X=7.000D-01 Y=-1.790626742502D+03 DE=-4.95D-04 F= -4.05D-04 OKLS=F
 RMSU=  9.93D-06    CP:  4.63D-01  2.23D+00  3.00D+00  1.06D+00 -3.00D+00
                    CP:  2.34D+00  1.70D+00 -3.00D+00  2.26D+00  1.80D+00
                    CP: -3.00D+00  1.28D+00  6.15D-01  1.97D+00
     ILin= 3 X=1.400D+00 Y=-1.790626813688D+03 DE=-5.67D-04 F=  2.02D-04
     Accept linear search using points  2 and  3.
     An  expanding polynomial of degree  3 produced  1.1170
 RMSU=  1.44D-07    CP:  4.65D-01  2.24D+00  3.00D+00  1.05D+00 -3.00D+00
                    CP:  2.32D+00  1.65D+00 -3.00D+00  2.14D+00  1.62D+00
                    CP: -3.00D+00  1.17D+00  2.39D-01  1.58D+00  5.30D-01
 Iteration   6 EE= -1790.62683602471     Delta-E=       -0.000588998066 Grad=1.283D-02 Max rot=    0.0441 deg.
 Gradient too large for Newton-Raphson -- use scaled steepest descent instead.
 Alpha Gap=     0.454 HL deriv= 5.63D-05
     ILin= 1 X=0.000D+00 Y=-1.790626836025D+03 DE= 0.00D+00 F= -3.00D-04
 RMSU=  3.86D-05    CP:  4.64D-01  2.23D+00  3.00D+00  1.04D+00 -3.00D+00
                    CP:  2.33D+00  1.67D+00 -3.00D+00  2.18D+00  1.77D+00
                    CP: -3.00D+00  1.37D+00  8.77D-01  1.94D+00  5.18D-01
                    CP:  3.00D+00
     ILin= 2 X=8.000D-01 Y=-1.790626914371D+03 DE=-7.83D-05 F=  1.04D-04 OKLS=T
     Accept linear search using points  1 and  2.
     An  expanding polynomial of degree  2 produced  0.5445
 RMSU=  1.05D-07    CP:  4.64D-01  2.23D+00  3.00D+00  1.04D+00 -3.00D+00
                    CP:  2.33D+00  1.67D+00 -3.00D+00  2.17D+00  1.72D+00
                    CP: -3.00D+00  1.31D+00  6.77D-01  1.82D+00  5.15D-01
                    CP:  3.00D+00  6.81D-01
 Iteration   7 EE= -1790.62692439531     Delta-E=       -0.000088370595 Grad=4.222D-03 Max rot=    0.0277 deg.
 SCF Done:  E(RHF) =  -1790.62692440     a.u. after    7 cycles
            Convg  =    0.4222D-02                    18 Fock formations.
              S**2 =  0.0000                  -V/T =  2.0003
 Leave Link  508 at Wed Nov 10 04:42:48 2021, MaxMem=  7864320000 cpu:          106926.0 elap:            3389.4
 (Enter /apps/gaussian/g16-c01-avx/g16/l502.exe)
 Integral symmetry usage will be decided dynamically.
 Closed shell SCF:
 Using DIIS extrapolation, IDIIS=  1040.
 NGot=  7864320000 LenX=  7859929564 LenY=  7857764252
 Requested convergence on RMS density matrix=1.00D-08 within 128 cycles.
 Requested convergence on MAX density matrix=1.00D-06.
 Requested convergence on             energy=1.00D-06.
 No special actions if energy rises.
 Fock matrices will be formed incrementally for  20 cycles.

 Cycle   1  Pass 1  IDiag  1:
 FoFJK:  IHMeth= 1 ICntrl=       0 DoSepK=F KAlg= 0 I1Cent=           0 FoldK=F
 IRaf= 980000000 NMat=       1 IRICut=       1 DoRegI=T DoRafI=F ISym2E= 0 IDoP0=0 IntGTp=1.
 FoFCou: FMM=T IPFlag=           0 FMFlag=      100000 FMFlg1=        2001
         NFxFlg=           0 DoJE=F BraDBF=F KetDBF=F FulRan=T
         wScrn=  0.000000 ICntrl=         0 IOpCl=  0 I1Cent=           0 NGrid=           0
         NMat0=    1 NMatS0=      1 NMatT0=    0 NMatD0=    1 NMtDS0=    0 NMtDT0=    0
 Symmetry not used in FoFCou.
 FMM levels:  10  Number of levels for PrismC:   9
 E= -1790.62692438268    
 DIIS: error= 5.56D-05 at cycle   1 NSaved=   1.
 NSaved= 1 IEnMin= 1 EnMin= -1790.62692438268     IErMin= 1 ErrMin= 5.56D-05
 ErrMax= 5.56D-05  0.00D+00 EMaxC= 1.00D-01 BMatC= 8.91D-06 BMatP= 8.91D-06
 IDIUse=1 WtCom= 1.00D+00 WtEn= 0.00D+00
 Coeff-Com:  0.100D+01
 Coeff:      0.100D+01
 Gap=     0.454 Goal=   None    Shift=    0.000
 RMSDP=1.10D-04 MaxDP=2.04D-02              OVMax= 1.78D-03

 Cycle   2  Pass 1  IDiag  1:
 RMSU=  9.81D-05    CP:  9.99D-01
 E= -1790.62695466524     Delta-E=       -0.000030282554 Rises=F Damp=F
 DIIS: error= 3.02D-05 at cycle   2 NSaved=   2.
 NSaved= 2 IEnMin= 2 EnMin= -1790.62695466524     IErMin= 2 ErrMin= 3.02D-05
 ErrMax= 3.02D-05  0.00D+00 EMaxC= 1.00D-01 BMatC= 2.30D-06 BMatP= 8.91D-06
 IDIUse=1 WtCom= 1.00D+00 WtEn= 0.00D+00
 Coeff-Com:  0.189D-01 0.981D+00
 Coeff:      0.189D-01 0.981D+00
 Gap=     0.352 Goal=   None    Shift=    0.000
 RMSDP=2.97D-05 MaxDP=4.73D-03 DE=-3.03D-05 OVMax= 9.58D-04

 Cycle   3  Pass 1  IDiag  1:
 RMSU=  1.55D-05    CP:  9.99D-01  1.21D+00
 E= -1790.62696162413     Delta-E=       -0.000006958893 Rises=F Damp=F
 DIIS: error= 1.75D-05 at cycle   3 NSaved=   3.
 NSaved= 3 IEnMin= 3 EnMin= -1790.62696162413     IErMin= 3 ErrMin= 1.75D-05
 ErrMax= 1.75D-05  0.00D+00 EMaxC= 1.00D-01 BMatC= 9.75D-07 BMatP= 2.30D-06
 IDIUse=1 WtCom= 1.00D+00 WtEn= 0.00D+00
 Coeff-Com: -0.286D+00 0.311D+00 0.975D+00
 Coeff:     -0.286D+00 0.311D+00 0.975D+00
 Gap=     0.352 Goal=   None    Shift=    0.000
 RMSDP=1.97D-05 MaxDP=2.62D-03 DE=-6.96D-06 OVMax= 8.00D-04

 Cycle   4  Pass 1  IDiag  1:
 RMSU=  1.11D-05    CP:  9.98D-01  1.35D+00  1.51D+00
 E= -1790.62696489103     Delta-E=       -0.000003266900 Rises=F Damp=F
 DIIS: error= 8.17D-06 at cycle   4 NSaved=   4.
 NSaved= 4 IEnMin= 4 EnMin= -1790.62696489103     IErMin= 4 ErrMin= 8.17D-06
 ErrMax= 8.17D-06  0.00D+00 EMaxC= 1.00D-01 BMatC= 1.24D-07 BMatP= 9.75D-07
 IDIUse=1 WtCom= 1.00D+00 WtEn= 0.00D+00
 Coeff-Com:  0.183D+00-0.324D+00-0.599D+00 0.174D+01
 Coeff:      0.183D+00-0.324D+00-0.599D+00 0.174D+01
 Gap=     0.352 Goal=   None    Shift=    0.000
 RMSDP=1.25D-05 MaxDP=1.70D-03 DE=-3.27D-06 OVMax= 6.07D-04

 Cycle   5  Pass 1  IDiag  1:
 RMSU=  5.95D-06    CP:  9.99D-01  1.34D+00  1.94D+00  1.73D+00
 E= -1790.62696583132     Delta-E=       -0.000000940287 Rises=F Damp=F
 DIIS: error= 2.86D-06 at cycle   5 NSaved=   5.
 NSaved= 5 IEnMin= 5 EnMin= -1790.62696583132     IErMin= 5 ErrMin= 2.86D-06
 ErrMax= 2.86D-06  0.00D+00 EMaxC= 1.00D-01 BMatC= 2.46D-08 BMatP= 1.24D-07
 IDIUse=1 WtCom= 1.00D+00 WtEn= 0.00D+00
 Coeff-Com:  0.644D-01-0.809D-01-0.233D+00 0.151D+00 0.110D+01
 Coeff:      0.644D-01-0.809D-01-0.233D+00 0.151D+00 0.110D+01
 Gap=     0.352 Goal=   None    Shift=    0.000
 RMSDP=4.87D-06 MaxDP=5.82D-04 DE=-9.40D-07 OVMax= 2.19D-04

 Cycle   6  Pass 1  IDiag  1:
 RMSU=  1.83D-06    CP:  9.99D-01  1.35D+00  2.04D+00  2.01D+00  1.40D+00
 E= -1790.62696596336     Delta-E=       -0.000000132042 Rises=F Damp=F
 DIIS: error= 1.07D-06 at cycle   6 NSaved=   6.
 NSaved= 6 IEnMin= 6 EnMin= -1790.62696596336     IErMin= 6 ErrMin= 1.07D-06
 ErrMax= 1.07D-06  0.00D+00 EMaxC= 1.00D-01 BMatC= 3.42D-09 BMatP= 2.46D-08
 IDIUse=1 WtCom= 1.00D+00 WtEn= 0.00D+00
 Coeff-Com: -0.369D-01 0.755D-01 0.114D+00-0.425D+00 0.148D+00 0.112D+01
 Coeff:     -0.369D-01 0.755D-01 0.114D+00-0.425D+00 0.148D+00 0.112D+01
 Gap=     0.352 Goal=   None    Shift=    0.000
 RMSDP=2.02D-06 MaxDP=2.95D-04 DE=-1.32D-07 OVMax= 9.77D-05

 Cycle   7  Pass 1  IDiag  1:
 RMSU=  7.88D-07    CP:  9.99D-01  1.36D+00  2.08D+00  2.10D+00  1.59D+00
                    CP:  1.31D+00
 E= -1790.62696598232     Delta-E=       -0.000000018958 Rises=F Damp=F
 DIIS: error= 1.81D-07 at cycle   7 NSaved=   7.
 NSaved= 7 IEnMin= 7 EnMin= -1790.62696598232     IErMin= 7 ErrMin= 1.81D-07
 ErrMax= 1.81D-07  0.00D+00 EMaxC= 1.00D-01 BMatC= 2.28D-10 BMatP= 3.42D-09
 IDIUse=1 WtCom= 1.00D+00 WtEn= 0.00D+00
 Coeff-Com: -0.384D-02 0.601D-02 0.121D-01-0.504D-03-0.825D-01 0.368D-01
 Coeff-Com:  0.103D+01
 Coeff:     -0.384D-02 0.601D-02 0.121D-01-0.504D-03-0.825D-01 0.368D-01
 Coeff:      0.103D+01
 Gap=     0.352 Goal=   None    Shift=    0.000
 RMSDP=3.45D-07 MaxDP=4.72D-05 DE=-1.90D-08 OVMax= 1.28D-05

 Cycle   8  Pass 1  IDiag  1:
 RMSU=  1.94D-07    CP:  9.99D-01  1.36D+00  2.08D+00  2.11D+00  1.58D+00
                    CP:  1.39D+00  1.22D+00
 E= -1790.62696598298     Delta-E=       -0.000000000663 Rises=F Damp=F
 DIIS: error= 1.00D-07 at cycle   8 NSaved=   8.
 NSaved= 8 IEnMin= 8 EnMin= -1790.62696598298     IErMin= 8 ErrMin= 1.00D-07
 ErrMax= 1.00D-07  0.00D+00 EMaxC= 1.00D-01 BMatC= 6.14D-11 BMatP= 2.28D-10
 IDIUse=1 WtCom= 1.00D+00 WtEn= 0.00D+00
 Coeff-Com:  0.524D-02-0.108D-01-0.180D-01 0.667D-01-0.463D-01-0.168D+00
 Coeff-Com:  0.176D+00 0.995D+00
 Coeff:      0.524D-02-0.108D-01-0.180D-01 0.667D-01-0.463D-01-0.168D+00
 Coeff:      0.176D+00 0.995D+00
 Gap=     0.352 Goal=   None    Shift=    0.000
 RMSDP=1.88D-07 MaxDP=2.50D-05 DE=-6.63D-10 OVMax= 7.64D-06

 Cycle   9  Pass 1  IDiag  1:
 RMSU=  8.42D-08    CP:  9.99D-01  1.36D+00  2.09D+00  2.12D+00  1.59D+00
                    CP:  1.41D+00  1.33D+00  1.12D+00
 E= -1790.62696598306     Delta-E=       -0.000000000075 Rises=F Damp=F
 DIIS: error= 4.68D-08 at cycle   9 NSaved=   9.
 NSaved= 9 IEnMin= 9 EnMin= -1790.62696598306     IErMin= 9 ErrMin= 4.68D-08
 ErrMax= 4.68D-08  0.00D+00 EMaxC= 1.00D-01 BMatC= 9.64D-12 BMatP= 6.14D-11
 IDIUse=1 WtCom= 1.00D+00 WtEn= 0.00D+00
 Coeff-Com:  0.660D-03-0.706D-03-0.284D-02 0.226D-02 0.100D-01-0.285D-02
 Coeff-Com: -0.142D+00-0.314D-01 0.117D+01
 Coeff:      0.660D-03-0.706D-03-0.284D-02 0.226D-02 0.100D-01-0.285D-02
 Coeff:     -0.142D+00-0.314D-01 0.117D+01
 Gap=     0.352 Goal=   None    Shift=    0.000
 RMSDP=5.94D-08 MaxDP=8.51D-06 DE=-7.55D-11 OVMax= 3.70D-06

 Cycle  10  Pass 1  IDiag  1:
 RMSU=  3.70D-08    CP:  9.99D-01  1.36D+00  2.09D+00  2.12D+00  1.59D+00
                    CP:  1.41D+00  1.33D+00  1.18D+00  1.41D+00
 E= -1790.62696598346     Delta-E=       -0.000000000406 Rises=F Damp=F
 DIIS: error= 2.39D-08 at cycle  10 NSaved=  10.
 NSaved=10 IEnMin=10 EnMin= -1790.62696598346     IErMin=10 ErrMin= 2.39D-08
 ErrMax= 2.39D-08  0.00D+00 EMaxC= 1.00D-01 BMatC= 2.41D-12 BMatP= 9.64D-12
 IDIUse=1 WtCom= 1.00D+00 WtEn= 0.00D+00
 Coeff-Com: -0.120D-02 0.275D-02 0.387D-02-0.159D-01 0.130D-01 0.439D-01
 Coeff-Com: -0.689D-01-0.274D+00 0.230D+00 0.107D+01
 Coeff:     -0.120D-02 0.275D-02 0.387D-02-0.159D-01 0.130D-01 0.439D-01
 Coeff:     -0.689D-01-0.274D+00 0.230D+00 0.107D+01
 Gap=     0.352 Goal=   None    Shift=    0.000
 RMSDP=3.13D-08 MaxDP=2.62D-06 DE=-4.06D-10 OVMax= 2.22D-06

 Cycle  11  Pass 1  IDiag  1:
 RMSU=  1.92D-08    CP:  9.99D-01  1.36D+00  2.09D+00  2.12D+00  1.59D+00
                    CP:  1.41D+00  1.33D+00  1.20D+00  1.61D+00  1.35D+00
 E= -1790.62696598324     Delta-E=        0.000000000224 Rises=F Damp=F
 DIIS: error= 9.54D-09 at cycle  11 NSaved=  11.
 NSaved=11 IEnMin=10 EnMin= -1790.62696598346     IErMin=11 ErrMin= 9.54D-09
 ErrMax= 9.54D-09  0.00D+00 EMaxC= 1.00D-01 BMatC= 3.11D-13 BMatP= 2.41D-12
 IDIUse=1 WtCom= 1.00D+00 WtEn= 0.00D+00
 Coeff-Com: -0.540D-04-0.188D-05 0.290D-03 0.353D-03-0.280D-02-0.944D-03
 Coeff-Com:  0.289D-01 0.144D-01-0.217D+00-0.483D-02 0.118D+01
 Coeff:     -0.540D-04-0.188D-05 0.290D-03 0.353D-03-0.280D-02-0.944D-03
 Coeff:      0.289D-01 0.144D-01-0.217D+00-0.483D-02 0.118D+01
 Gap=     0.352 Goal=   None    Shift=    0.000
 RMSDP=3.02D-08 MaxDP=2.40D-06 DE= 2.24D-10 OVMax= 8.44D-07

 Cycle  12  Pass 1  IDiag  1:
 RMSU=  2.14D-08    CP:  9.99D-01  1.36D+00  2.09D+00  2.12D+00  1.59D+00
                    CP:  1.41D+00  1.33D+00  1.21D+00  1.64D+00  1.59D+00
                    CP:  1.91D+00
 E= -1790.62696598352     Delta-E=       -0.000000000286 Rises=F Damp=F
 DIIS: error= 5.63D-09 at cycle  12 NSaved=  12.
 NSaved=12 IEnMin=12 EnMin= -1790.62696598352     IErMin=12 ErrMin= 5.63D-09
 ErrMax= 5.63D-09  0.00D+00 EMaxC= 1.00D-01 BMatC= 4.64D-14 BMatP= 3.11D-13
 IDIUse=1 WtCom= 1.00D+00 WtEn= 0.00D+00
 Coeff-Com:  0.152D-03-0.383D-03-0.456D-03 0.219D-02-0.228D-02-0.570D-02
 Coeff-Com:  0.139D-01 0.372D-01-0.625D-01-0.129D+00 0.115D+00 0.103D+01
 Coeff:      0.152D-03-0.383D-03-0.456D-03 0.219D-02-0.228D-02-0.570D-02
 Coeff:      0.139D-01 0.372D-01-0.625D-01-0.129D+00 0.115D+00 0.103D+01
 Gap=     0.352 Goal=   None    Shift=    0.000
 RMSDP=3.39D-08 MaxDP=2.80D-06 DE=-2.86D-10 OVMax= 2.72D-07

 Cycle  13  Pass 1  IDiag  1:
 RMSU=  1.27D-08    CP:  9.99D-01  1.36D+00  2.09D+00  2.12D+00  1.59D+00
                    CP:  1.41D+00  1.34D+00  1.22D+00  1.65D+00  1.73D+00
                    CP:  2.75D+00  2.21D+00
 E= -1790.62696598311     Delta-E=        0.000000000410 Rises=F Damp=F
 DIIS: error= 8.95D-09 at cycle  13 NSaved=  13.
 NSaved=13 IEnMin=12 EnMin= -1790.62696598352     IErMin=12 ErrMin= 5.63D-09
 ErrMax= 8.95D-09  0.00D+00 EMaxC= 1.00D-01 BMatC= 1.89D-14 BMatP= 4.64D-14
 IDIUse=1 WtCom= 1.00D+00 WtEn= 0.00D+00
 Coeff-Com:  0.489D-04-0.108D-03-0.145D-03 0.565D-03-0.304D-03-0.130D-02
 Coeff-Com:  0.375D-03 0.659D-02 0.111D-01-0.258D-01-0.133D+00 0.289D+00
 Coeff-Com:  0.853D+00
 Coeff:      0.489D-04-0.108D-03-0.145D-03 0.565D-03-0.304D-03-0.130D-02
 Coeff:      0.375D-03 0.659D-02 0.111D-01-0.258D-01-0.133D+00 0.289D+00
 Coeff:      0.853D+00
 Gap=     0.352 Goal=   None    Shift=    0.000
 RMSDP=5.40D-08 MaxDP=4.73D-06 DE= 4.10D-10 OVMax= 8.89D-08

 Cycle  14  Pass 1  IDiag  1:
 RMSU=  3.46D-08    CP:  9.99D-01  1.36D+00  2.09D+00  2.12D+00  1.59D+00
                    CP:  1.41D+00  1.34D+00  1.22D+00  1.68D+00  1.94D+00
                    CP:  3.00D+00  3.00D+00  2.25D+00
 E= -1790.62696598330     Delta-E=       -0.000000000186 Rises=F Damp=F
 DIIS: error= 1.06D-08 at cycle  14 NSaved=  14.
 NSaved=14 IEnMin=12 EnMin= -1790.62696598352     IErMin=12 ErrMin= 5.63D-09
 ErrMax= 1.06D-08  0.00D+00 EMaxC= 1.00D-01 BMatC= 1.73D-14 BMatP= 1.89D-14
 IDIUse=1 WtCom= 1.00D+00 WtEn= 0.00D+00
 Coeff-Com:  0.434D-04-0.969D-04-0.128D-03 0.504D-03-0.283D-03-0.116D-02
 Coeff-Com:  0.443D-03 0.583D-02 0.931D-02-0.229D-01-0.117D+00 0.260D+00
 Coeff-Com:  0.745D+00 0.120D+00
 Coeff:      0.434D-04-0.969D-04-0.128D-03 0.504D-03-0.283D-03-0.116D-02
 Coeff:      0.443D-03 0.583D-02 0.931D-02-0.229D-01-0.117D+00 0.260D+00
 Coeff:      0.745D+00 0.120D+00
 Gap=     0.352 Goal=   None    Shift=    0.000
 RMSDP=7.72D-09 MaxDP=7.25D-07 DE=-1.86D-10 OVMax= 4.19D-09

 Error on total polarization charges =  0.02108
 SCF Done:  E(RHF) =  -1790.62696598     A.U. after   14 cycles
            NFock= 14  Conv=0.77D-08     -V/T= 2.0003
 KE= 1.790161308265D+03 PE=-1.425611090997D+04 EE= 5.636362674212D+03
 Leave Link  502 at Wed Nov 10 05:20:53 2021, MaxMem=  7864320000 cpu:           72279.6 elap:            2284.7
 (Enter /apps/gaussian/g16-c01-avx/g16/l508.exe)
 QCSCF skips out because SCF is already converged.
 Leave Link  508 at Wed Nov 10 05:20:54 2021, MaxMem=  7864320000 cpu:               0.1 elap:               0.0
 (Enter /apps/gaussian/g16-c01-avx/g16/l801.exe)
 ExpMin= 2.97D-02 ExpMax= 1.17D+04 ExpMxC= 4.01D+02 IAcc=3 IRadAn=         7 AccDes= 0.00D+00
 HarFok:  IExCor=  205 AccDes= 0.00D+00 IRadAn=         7 IDoV=-2 UseB2=F ITyADJ=14
 ICtDFT= 12500011 ScaDFX=  1.000000  1.000000  1.000000  1.000000
 GSVD:  LWork=       -2193 too small for GESVD, short by        9890 words or        9890 for optimal perf.
 Largest valence mixing into a core orbital is  1.22D-04
 Largest core mixing into a valence orbital is  4.58D-05
 Range of M.O.s used for correlation:    44  1377
 NBasis=  1385 NAE=   155 NBE=   155 NFC=    43 NFV=     0
 NROrb=   1334 NOA=   112 NOB=   112 NVA=  1222 NVB=  1222

 **** Warning!!: The largest alpha MO coefficient is  0.19149702D+03

 Leave Link  801 at Wed Nov 10 05:20:55 2021, MaxMem=  7864320000 cpu:              20.7 elap:               0.7
 (Enter /apps/gaussian/g16-c01-avx/g16/l906.exe)
 FulOut=F Deriv=F AODrv=F NAtomX=    87
   MMem=           1  MDisk=         112 MDiskD=         112
  W3Min=   201326944 MinDsk=   185691192 NBas6D=        1471
 NBas2D=     1084597    NTT=     1082656    LW2=     2000000
    MDV=  7853739855 MDiskM=       74134 NBas2p=      774750
 Disk-based method using OVN memory for112 occupieds at a time.
 Estimated scratch disk usage=325962508770 words.
 IMap=   1   2   3   4   5   6   7   8   9  10  11  12  13  14  15  16  17  18  19  20
 IMap=  21  22  23  24  25  26  27  28  29  30  31  32  33  34  35  36  37  38  39  40
 IMap=  41  42  43  44  45  46  47  48  49  50  51  52  53  54  55  56  57  58  59  60
 IMap=  61  62  63  64  65  66  67  68  69  70  71  72  73  74  75  76  77  78  79  80
 IMap=  81  82  83  84  85  86  87  88  89  90  91  92  93  94  95  96  97  98  99 100
 IMap= 101 102 103 104 105 106 107 108 109 110 111 112
 Actual    scratch disk usage=318120844816 words.
 JobTyp=1 Pass  1:  I=   1 to 112 NPSUse= 32 ParTrn=T ParDer=T DoDerP=F.
 Spin components of T(2) and E(2):
     alpha-alpha T2 =       0.3043396526D+00 E2=     -0.8248334941D+00
     alpha-beta  T2 =       0.1599629957D+01 E2=     -0.4622450920D+01
     beta-beta   T2 =       0.3043396526D+00 E2=     -0.8248334941D+00
 The integrals were generated   1 times.
 ANorm=    0.1791175386D+01
 E2 =    -0.6272117909D+01 EUMP2 =    -0.17968990838918D+04
 Leave Link  906 at Wed Nov 10 14:17:03 2021, MaxMem=  7864320000 cpu:         1003777.8 elap:           32167.3
 (Enter /apps/gaussian/g16-c01-avx/g16/l601.exe)
 Copying SCF densities to generalized density rwf, IOpCl= 0 IROHF=0.

 **********************************************************************

            Population analysis using the SCF Density.

 **********************************************************************

 Orbital symmetries:
       Occupied  (A) (A) (A) (A) (A) (A) (A) (A) (A) (A) (A) (A)
                 (A) (A) (A) (A) (A) (A) (A) (A) (A) (A) (A) (A)
                 (A) (A) (A) (A) (A) (A) (A) (A) (A) (A) (A) (A)
                 (A) (A) (A) (A) (A) (A) (A) (A) (A) (A) (A) (A)
                 (A) (A) (A) (A) (A) (A) (A) (A) (A) (A) (A) (A)
                 (A) (A) (A) (A) (A) (A) (A) (A) (A) (A) (A) (A)
                 (A) (A) (A) (A) (A) (A) (A) (A) (A) (A) (A) (A)
                 (A) (A) (A) (A) (A) (A) (A) (A) (A) (A) (A) (A)
                 (A) (A) (A) (A) (A) (A) (A) (A) (A) (A) (A) (A)
                 (A) (A) (A) (A) (A) (A) (A) (A) (A) (A) (A) (A)
                 (A) (A) (A) (A) (A) (A) (A) (A) (A) (A) (A) (A)
                 (A) (A) (A) (A) (A) (A) (A) (A) (A) (A) (A) (A)
                 (A) (A) (A) (A) (A) (A) (A) (A) (A) (A) (A)
       Virtual   (A) (A) (A) (A) (A) (A) (A) (A) (A) (A) (A) (A)
                 (A) (A) (A) (A) (A) (A) (A) (A) (A) (A) (A) (A)
                 (A) (A) (A) (A) (A) (A) (A) (A) (A) (A) (A) (A)
                 (A) (A) (A) (A) (A) (A) (A) (A) (A) (A) (A) (A)
                 (A) (A) (A) (A) (A) (A) (A) (A) (A) (A) (A) (A)
                 (A) (A) (A) (A) (A) (A) (A) (A) (A) (A) (A) (A)
                 (A) (A) (A) (A) (A) (A) (A) (A) (A) (A) (A) (A)
                 (A) (A) (A) (A) (A) (A) (A) (A) (A) (A) (A) (A)
                 (A) (A) (A) (A) (A) (A) (A) (A) (A) (A) (A) (A)
                 (A) (A) (A) (A) (A) (A) (A) (A) (A) (A) (A) (A)
                 (A) (A) (A) (A) (A) (A) (A) (A) (A) (A) (A) (A)
                 (A) (A) (A) (A) (A) (A) (A) (A) (A) (A) (A) (A)
                 (A) (A) (A) (A) (A) (A) (A) (A) (A) (A) (A) (A)
                 (A) (A) (A) (A) (A) (A) (A) (A) (A) (A) (A) (A)
                 (A) (A) (A) (A) (A) (A) (A) (A) (A) (A) (A) (A)
                 (A) (A) (A) (A) (A) (A) (A) (A) (A) (A) (A) (A)
                 (A) (A) (A) (A) (A) (A) (A) (A) (A) (A) (A) (A)
                 (A) (A) (A) (A) (A) (A) (A) (A) (A) (A) (A) (A)
                 (A) (A) (A) (A) (A) (A) (A) (A) (A) (A) (A) (A)
                 (A) (A) (A) (A) (A) (A) (A) (A) (A) (A) (A) (A)
                 (A) (A) (A) (A) (A) (A) (A) (A) (A) (A) (A) (A)
                 (A) (A) (A) (A) (A) (A) (A) (A) (A) (A) (A) (A)
                 (A) (A) (A) (A) (A) (A) (A) (A) (A) (A) (A) (A)
                 (A) (A) (A) (A) (A) (A) (A) (A) (A) (A) (A) (A)
                 (A) (A) (A) (A) (A) (A) (A) (A) (A) (A) (A) (A)
                 (A) (A) (A) (A) (A) (A) (A) (A) (A) (A) (A) (A)
                 (A) (A) (A) (A) (A) (A) (A) (A) (A) (A) (A) (A)
                 (A) (A) (A) (A) (A) (A) (A) (A) (A) (A) (A) (A)
                 (A) (A) (A) (A) (A) (A) (A) (A) (A) (A) (A) (A)
                 (A) (A) (A) (A) (A) (A) (A) (A) (A) (A) (A) (A)
                 (A) (A) (A) (A) (A) (A) (A) (A) (A) (A) (A) (A)
                 (A) (A) (A) (A) (A) (A) (A) (A) (A) (A) (A) (A)
                 (A) (A) (A) (A) (A) (A) (A) (A) (A) (A) (A) (A)
                 (A) (A) (A) (A) (A) (A) (A) (A) (A) (A) (A) (A)
                 (A) (A) (A) (A) (A) (A) (A) (A) (A) (A) (A) (A)
                 (A) (A) (A) (A) (A) (A) (A) (A) (A) (A) (A) (A)
                 (A) (A) (A) (A) (A) (A) (A) (A) (A) (A) (A) (A)
                 (A) (A) (A) (A) (A) (A) (A) (A) (A) (A) (A) (A)
                 (A) (A) (A) (A) (A) (A) (A) (A) (A) (A) (A) (A)
                 (A) (A) (A) (A) (A) (A) (A) (A) (A) (A) (A) (A)
                 (A) (A) (A) (A) (A) (A) (A) (A) (A) (A) (A) (A)
                 (A) (A) (A) (A) (A) (A) (A) (A) (A) (A) (A) (A)
                 (A) (A) (A) (A) (A) (A) (A) (A) (A) (A) (A) (A)
                 (A) (A) (A) (A) (A) (A) (A) (A) (A) (A) (A) (A)
                 (A) (A) (A) (A) (A) (A) (A) (A) (A) (A) (A) (A)
                 (A) (A) (A) (A) (A) (A) (A) (A) (A) (A) (A) (A)
                 (A) (A) (A) (A) (A) (A) (A) (A) (A) (A) (A) (A)
                 (A) (A) (A) (A) (A) (A) (A) (A) (A) (A) (A) (A)
                 (A) (A) (A) (A) (A) (A) (A) (A) (A) (A) (A) (A)
                 (A) (A) (A) (A) (A) (A) (A) (A) (A) (A) (A) (A)
                 (A) (A) (A) (A) (A) (A) (A) (A) (A) (A) (A) (A)
                 (A) (A) (A) (A) (A) (A) (A) (A) (A) (A) (A) (A)
                 (A) (A) (A) (A) (A) (A) (A) (A) (A) (A) (A) (A)
                 (A) (A) (A) (A) (A) (A) (A) (A) (A) (A) (A) (A)
                 (A) (A) (A) (A) (A) (A) (A) (A) (A) (A) (A) (A)
                 (A) (A) (A) (A) (A) (A) (A) (A) (A) (A) (A) (A)
                 (A) (A) (A) (A) (A) (A) (A) (A) (A) (A) (A) (A)
                 (A) (A) (A) (A) (A) (A) (A) (A) (A) (A) (A) (A)
                 (A) (A) (A) (A) (A) (A) (A) (A) (A) (A) (A) (A)
                 (A) (A) (A) (A) (A) (A) (A) (A) (A) (A) (A) (A)
                 (A) (A) (A) (A) (A) (A) (A) (A) (A) (A) (A) (A)
                 (A) (A) (A) (A) (A) (A) (A) (A) (A) (A) (A) (A)
                 (A) (A) (A) (A) (A) (A) (A) (A) (A) (A) (A) (A)
                 (A) (A) (A) (A) (A) (A) (A) (A) (A) (A) (A) (A)
                 (A) (A) (A) (A) (A) (A) (A) (A) (A) (A) (A) (A)
                 (A) (A) (A) (A) (A) (A) (A) (A) (A) (A) (A) (A)
                 (A) (A) (A) (A) (A) (A) (A) (A) (A) (A) (A) (A)
                 (A) (A) (A) (A) (A) (A) (A) (A) (A) (A) (A) (A)
                 (A) (A) (A) (A) (A) (A) (A) (A) (A) (A) (A) (A)
                 (A) (A) (A) (A) (A) (A) (A) (A) (A) (A) (A) (A)
                 (A) (A) (A) (A) (A) (A) (A) (A) (A) (A) (A) (A)
                 (A) (A) (A) (A) (A) (A) (A) (A) (A) (A) (A) (A)
                 (A) (A) (A) (A) (A) (A) (A) (A) (A) (A) (A) (A)
                 (A) (A) (A) (A) (A) (A) (A) (A) (A) (A) (A) (A)
                 (A) (A) (A) (A) (A) (A) (A) (A) (A) (A) (A) (A)
                 (A) (A) (A) (A) (A) (A) (A) (A) (A) (A) (A) (A)
                 (A) (A) (A) (A) (A) (A) (A) (A) (A) (A) (A) (A)
                 (A) (A) (A) (A) (A) (A) (A) (A) (A) (A) (A) (A)
                 (A) (A) (A) (A) (A) (A) (A) (A) (A) (A) (A) (A)
                 (A) (A) (A) (A) (A) (A) (A) (A) (A) (A) (A) (A)
                 (A) (A) (A) (A) (A) (A) (A) (A) (A) (A) (A) (A)
                 (A) (A) (A) (A) (A) (A) (A) (A) (A) (A) (A) (A)
                 (A) (A) (A) (A) (A) (A) (A) (A) (A) (A) (A) (A)
                 (A) (A) (A) (A) (A) (A) (A) (A) (A) (A) (A) (A)
                 (A) (A) (A) (A) (A) (A) (A) (A) (A) (A) (A) (A)
                 (A) (A) (A) (A) (A) (A) (A) (A) (A) (A) (A) (A)
                 (A) (A) (A) (A) (A) (A) (A) (A) (A) (A) (A) (A)
                 (A) (A) (A) (A) (A) (A) (A) (A) (A) (A) (A) (A)
                 (A) (A) (A) (A) (A) (A) (A) (A) (A) (A) (A) (A)
                 (A) (A) (A) (A) (A) (A) (A) (A) (A) (A) (A) (A)
                 (A) (A) (A) (A) (A) (A) (A) (A) (A) (A) (A) (A)
                 (A) (A) (A) (A) (A) (A) (A) (A) (A) (A) (A) (A)
                 (A) (A) (A) (A) (A) (A) (A) (A) (A) (A) (A) (A)
                 (A) (A) (A) (A) (A) (A) (A) (A) (A) (A) (A) (A)
                 (A) (A) (A) (A) (A) (A) (A) (A) (A) (A) (A) (A)
                 (A) (A) (A) (A) (A) (A) (A) (A) (A) (A) (A) (A)
                 (A) (A) (A) (A) (A) (A) (A) (A) (A) (A) (A) (A)
                 (A) (A) (A) (A) (A) (A) (A) (A) (A) (A) (A) (A)
                 (A) (A) (A) (A) (A) (A) (A) (A) (A) (A) (A) (A)
                 (A) (A) (A) (A) (A) (A) (A) (A) (A) (A) (A) (A)
                 (A) (A) (A) (A) (A) (A) (A) (A) (A) (A) (A) (A)
                 (A) (A) (A) (A) (A) (A) (A) (A) (A) (A)
 The electronic state is 1-A.
 Alpha  occ. eigenvalues --  -20.57311 -15.56331 -15.56047 -15.55942 -15.55680
 Alpha  occ. eigenvalues --  -15.55262 -15.54935 -11.34803 -11.29199 -11.28903
 Alpha  occ. eigenvalues --  -11.28750 -11.28539 -11.28321 -11.26713 -11.26536
 Alpha  occ. eigenvalues --  -11.26439 -11.25742 -11.25723 -11.25699 -11.25685
 Alpha  occ. eigenvalues --  -11.25675 -11.25538 -11.25441 -11.24888 -11.24768
 Alpha  occ. eigenvalues --  -11.24753 -11.24685 -11.24508 -11.24471 -11.24231
 Alpha  occ. eigenvalues --  -11.24201 -11.22415 -11.22364 -11.22328 -11.22280
 Alpha  occ. eigenvalues --  -11.22104 -11.22086 -11.22035 -11.21982 -11.21977
 Alpha  occ. eigenvalues --  -11.21908 -11.21891 -11.21779  -1.41012  -1.27981
 Alpha  occ. eigenvalues --   -1.26841  -1.26656  -1.23712  -1.23231  -1.18423
 Alpha  occ. eigenvalues --   -1.16843  -1.14916  -1.11844  -1.11462  -1.10871
 Alpha  occ. eigenvalues --   -1.06799  -1.06533  -1.05532  -1.05206  -1.00651
 Alpha  occ. eigenvalues --   -1.00265  -0.99990  -0.99972  -0.98931  -0.97857
 Alpha  occ. eigenvalues --   -0.90697  -0.90507  -0.89422  -0.88539  -0.87914
 Alpha  occ. eigenvalues --   -0.86540  -0.83261  -0.83046  -0.82362  -0.81801
 Alpha  occ. eigenvalues --   -0.81741  -0.80888  -0.78018  -0.77349  -0.77052
 Alpha  occ. eigenvalues --   -0.76467  -0.75948  -0.75419  -0.74315  -0.71753
 Alpha  occ. eigenvalues --   -0.70372  -0.69788  -0.68993  -0.67388  -0.67129
 Alpha  occ. eigenvalues --   -0.67032  -0.66030  -0.65462  -0.65265  -0.64333
 Alpha  occ. eigenvalues --   -0.63600  -0.63291  -0.63014  -0.62919  -0.62476
 Alpha  occ. eigenvalues --   -0.61760  -0.60885  -0.60385  -0.60260  -0.59740
 Alpha  occ. eigenvalues --   -0.59408  -0.59019  -0.58887  -0.57872  -0.57776
 Alpha  occ. eigenvalues --   -0.56714  -0.56063  -0.56028  -0.55411  -0.54790
 Alpha  occ. eigenvalues --   -0.54377  -0.54117  -0.53950  -0.53353  -0.52999
 Alpha  occ. eigenvalues --   -0.52909  -0.52246  -0.51625  -0.50598  -0.49988
 Alpha  occ. eigenvalues --   -0.49594  -0.49143  -0.48996  -0.48938  -0.48685
 Alpha  occ. eigenvalues --   -0.48127  -0.47335  -0.47140  -0.46674  -0.46600
 Alpha  occ. eigenvalues --   -0.46370  -0.45853  -0.45500  -0.45097  -0.44872
 Alpha  occ. eigenvalues --   -0.43761  -0.43476  -0.42693  -0.41711  -0.41073
 Alpha  occ. eigenvalues --   -0.40870  -0.40615  -0.39954  -0.39760  -0.38074
 Alpha  occ. eigenvalues --   -0.37213  -0.34671  -0.32937  -0.32546  -0.31927
 Alpha virt. eigenvalues --    0.03278   0.03511   0.03606   0.03648   0.04086
 Alpha virt. eigenvalues --    0.04170   0.04278   0.04365   0.04514   0.05005
 Alpha virt. eigenvalues --    0.05213   0.05307   0.05478   0.05649   0.05725
 Alpha virt. eigenvalues --    0.05899   0.05986   0.06288   0.06410   0.06638
 Alpha virt. eigenvalues --    0.06977   0.07111   0.07189   0.07366   0.07422
 Alpha virt. eigenvalues --    0.07553   0.07636   0.07957   0.08428   0.08689
 Alpha virt. eigenvalues --    0.08757   0.08894   0.09011   0.09145   0.09440
 Alpha virt. eigenvalues --    0.09578   0.09792   0.09979   0.10526   0.10600
 Alpha virt. eigenvalues --    0.10730   0.11165   0.11267   0.11364   0.11863
 Alpha virt. eigenvalues --    0.11996   0.12407   0.12568   0.12762   0.12855
 Alpha virt. eigenvalues --    0.13465   0.13581   0.13688   0.13796   0.13914
 Alpha virt. eigenvalues --    0.14031   0.14288   0.14310   0.14393   0.14627
 Alpha virt. eigenvalues --    0.14764   0.14832   0.14993   0.15123   0.15188
 Alpha virt. eigenvalues --    0.15326   0.15421   0.15518   0.15706   0.15924
 Alpha virt. eigenvalues --    0.15962   0.16126   0.16216   0.16409   0.16544
 Alpha virt. eigenvalues --    0.16627   0.16784   0.17091   0.17202   0.17379
 Alpha virt. eigenvalues --    0.17506   0.17764   0.17784   0.17994   0.18295
 Alpha virt. eigenvalues --    0.18443   0.18698   0.18847   0.18905   0.19100
 Alpha virt. eigenvalues --    0.19194   0.19246   0.19436   0.19647   0.19744
 Alpha virt. eigenvalues --    0.19852   0.19949   0.20224   0.20360   0.20459
 Alpha virt. eigenvalues --    0.20668   0.20766   0.20864   0.20954   0.21116
 Alpha virt. eigenvalues --    0.21333   0.21427   0.21565   0.21721   0.21989
 Alpha virt. eigenvalues --    0.22165   0.22424   0.22522   0.22563   0.22719
 Alpha virt. eigenvalues --    0.22903   0.22926   0.23124   0.23325   0.23426
 Alpha virt. eigenvalues --    0.23547   0.23767   0.23984   0.24135   0.24418
 Alpha virt. eigenvalues --    0.24541   0.24724   0.24913   0.25072   0.25267
 Alpha virt. eigenvalues --    0.25350   0.25680   0.26082   0.26211   0.26339
 Alpha virt. eigenvalues --    0.26502   0.26697   0.26841   0.27138   0.27182
 Alpha virt. eigenvalues --    0.27420   0.27622   0.27702   0.27866   0.28118
 Alpha virt. eigenvalues --    0.28328   0.28408   0.28610   0.28829   0.29107
 Alpha virt. eigenvalues --    0.29265   0.29522   0.29672   0.29752   0.29918
 Alpha virt. eigenvalues --    0.30079   0.30436   0.30796   0.30990   0.31146
 Alpha virt. eigenvalues --    0.31272   0.31411   0.31592   0.31872   0.32099
 Alpha virt. eigenvalues --    0.32120   0.32264   0.32353   0.32411   0.32681
 Alpha virt. eigenvalues --    0.32847   0.32966   0.33169   0.33359   0.33609
 Alpha virt. eigenvalues --    0.33800   0.34028   0.34363   0.34582   0.34667
 Alpha virt. eigenvalues --    0.34775   0.35031   0.35160   0.35277   0.35316
 Alpha virt. eigenvalues --    0.35589   0.35653   0.36013   0.36117   0.36287
 Alpha virt. eigenvalues --    0.36380   0.36618   0.36750   0.36871   0.37029
 Alpha virt. eigenvalues --    0.37195   0.37328   0.37489   0.37619   0.37738
 Alpha virt. eigenvalues --    0.37990   0.38148   0.38270   0.38321   0.38404
 Alpha virt. eigenvalues --    0.38579   0.38806   0.38950   0.39063   0.39329
 Alpha virt. eigenvalues --    0.39383   0.39631   0.39736   0.39813   0.39913
 Alpha virt. eigenvalues --    0.40042   0.40080   0.40335   0.40430   0.40657
 Alpha virt. eigenvalues --    0.40883   0.41014   0.41115   0.41458   0.41503
 Alpha virt. eigenvalues --    0.41727   0.41774   0.41969   0.42056   0.42366
 Alpha virt. eigenvalues --    0.42477   0.42629   0.42782   0.42902   0.42970
 Alpha virt. eigenvalues --    0.43245   0.43328   0.43462   0.43753   0.43944
 Alpha virt. eigenvalues --    0.44070   0.44232   0.44385   0.44741   0.44850
 Alpha virt. eigenvalues --    0.44991   0.45034   0.45246   0.45532   0.45542
 Alpha virt. eigenvalues --    0.45602   0.45733   0.45944   0.46276   0.46445
 Alpha virt. eigenvalues --    0.46488   0.46738   0.47027   0.47202   0.47239
 Alpha virt. eigenvalues --    0.47428   0.47572   0.47758   0.47767   0.47978
 Alpha virt. eigenvalues --    0.48092   0.48274   0.48493   0.48592   0.48825
 Alpha virt. eigenvalues --    0.49005   0.49196   0.49275   0.49539   0.49788
 Alpha virt. eigenvalues --    0.49937   0.50044   0.50373   0.50625   0.50749
 Alpha virt. eigenvalues --    0.50783   0.51086   0.51362   0.51393   0.51500
 Alpha virt. eigenvalues --    0.51677   0.51723   0.51863   0.52012   0.52316
 Alpha virt. eigenvalues --    0.52382   0.52466   0.52844   0.53032   0.53148
 Alpha virt. eigenvalues --    0.53265   0.53450   0.53471   0.53597   0.53827
 Alpha virt. eigenvalues --    0.53882   0.54094   0.54105   0.54441   0.54596
 Alpha virt. eigenvalues --    0.54734   0.54947   0.55348   0.55581   0.55812
 Alpha virt. eigenvalues --    0.55944   0.56110   0.56302   0.56718   0.56742
 Alpha virt. eigenvalues --    0.56923   0.57007   0.57055   0.57340   0.57422
 Alpha virt. eigenvalues --    0.57836   0.58097   0.58237   0.58282   0.58411
 Alpha virt. eigenvalues --    0.58592   0.58715   0.58829   0.59102   0.59230
 Alpha virt. eigenvalues --    0.59306   0.59444   0.59573   0.59707   0.59998
 Alpha virt. eigenvalues --    0.60124   0.60331   0.60476   0.60660   0.61156
 Alpha virt. eigenvalues --    0.61245   0.61366   0.61563   0.61732   0.62019
 Alpha virt. eigenvalues --    0.62146   0.62387   0.62544   0.63002   0.63059
 Alpha virt. eigenvalues --    0.63460   0.63588   0.63772   0.63849   0.64100
 Alpha virt. eigenvalues --    0.64222   0.64784   0.64824   0.65023   0.65268
 Alpha virt. eigenvalues --    0.65368   0.65573   0.65637   0.65865   0.65933
 Alpha virt. eigenvalues --    0.66128   0.66355   0.66722   0.66900   0.66982
 Alpha virt. eigenvalues --    0.67009   0.67455   0.67654   0.67853   0.67941
 Alpha virt. eigenvalues --    0.68442   0.68507   0.68818   0.69085   0.69190
 Alpha virt. eigenvalues --    0.69503   0.69580   0.69740   0.70045   0.70152
 Alpha virt. eigenvalues --    0.70478   0.70584   0.70761   0.70935   0.71020
 Alpha virt. eigenvalues --    0.71074   0.71479   0.71586   0.71684   0.71880
 Alpha virt. eigenvalues --    0.72114   0.72226   0.72489   0.72555   0.72615
 Alpha virt. eigenvalues --    0.72672   0.73087   0.73168   0.73373   0.73618
 Alpha virt. eigenvalues --    0.73739   0.73969   0.74235   0.74302   0.74578
 Alpha virt. eigenvalues --    0.74689   0.75173   0.75190   0.75407   0.75631
 Alpha virt. eigenvalues --    0.75787   0.75922   0.76024   0.76327   0.76601
 Alpha virt. eigenvalues --    0.76625   0.76735   0.76804   0.77115   0.77252
 Alpha virt. eigenvalues --    0.77405   0.77491   0.77542   0.77804   0.78017
 Alpha virt. eigenvalues --    0.78121   0.78334   0.78641   0.78740   0.79027
 Alpha virt. eigenvalues --    0.79155   0.79460   0.79596   0.79890   0.79926
 Alpha virt. eigenvalues --    0.80070   0.80167   0.80494   0.80652   0.80778
 Alpha virt. eigenvalues --    0.80876   0.81109   0.81381   0.81444   0.81791
 Alpha virt. eigenvalues --    0.81852   0.82004   0.82229   0.82379   0.82594
 Alpha virt. eigenvalues --    0.82758   0.83003   0.83048   0.83144   0.83361
 Alpha virt. eigenvalues --    0.83570   0.83735   0.83851   0.83912   0.84159
 Alpha virt. eigenvalues --    0.84390   0.84642   0.84936   0.85157   0.85257
 Alpha virt. eigenvalues --    0.85475   0.85639   0.85741   0.85948   0.85963
 Alpha virt. eigenvalues --    0.86301   0.86483   0.86813   0.87072   0.87176
 Alpha virt. eigenvalues --    0.87516   0.87741   0.87995   0.88397   0.88431
 Alpha virt. eigenvalues --    0.88505   0.88668   0.88745   0.88955   0.89088
 Alpha virt. eigenvalues --    0.89205   0.89572   0.89794   0.89878   0.90244
 Alpha virt. eigenvalues --    0.90306   0.90487   0.90735   0.90778   0.91023
 Alpha virt. eigenvalues --    0.91235   0.91395   0.91534   0.91704   0.92016
 Alpha virt. eigenvalues --    0.92136   0.92369   0.92669   0.92818   0.92894
 Alpha virt. eigenvalues --    0.93170   0.93327   0.93467   0.93542   0.93842
 Alpha virt. eigenvalues --    0.93932   0.94003   0.94245   0.94474   0.94631
 Alpha virt. eigenvalues --    0.94841   0.95004   0.95368   0.95512   0.95682
 Alpha virt. eigenvalues --    0.95954   0.96197   0.96471   0.96701   0.96877
 Alpha virt. eigenvalues --    0.97042   0.97347   0.97405   0.97661   0.97722
 Alpha virt. eigenvalues --    0.97932   0.98185   0.98459   0.98751   0.98865
 Alpha virt. eigenvalues --    0.99269   0.99394   0.99552   0.99841   1.00154
 Alpha virt. eigenvalues --    1.00377   1.00630   1.00756   1.00804   1.01104
 Alpha virt. eigenvalues --    1.01289   1.01420   1.01774   1.01847   1.01984
 Alpha virt. eigenvalues --    1.02131   1.02630   1.02720   1.03268   1.03538
 Alpha virt. eigenvalues --    1.03634   1.03740   1.04022   1.04360   1.04379
 Alpha virt. eigenvalues --    1.04514   1.04911   1.05066   1.05162   1.05433
 Alpha virt. eigenvalues --    1.05728   1.05775   1.06211   1.06385   1.06583
 Alpha virt. eigenvalues --    1.06826   1.07046   1.07284   1.07376   1.07706
 Alpha virt. eigenvalues --    1.07835   1.07920   1.08289   1.08884   1.09152
 Alpha virt. eigenvalues --    1.09365   1.09769   1.09816   1.10177   1.10307
 Alpha virt. eigenvalues --    1.10387   1.10631   1.10676   1.10876   1.10929
 Alpha virt. eigenvalues --    1.11405   1.11923   1.12203   1.12341   1.12503
 Alpha virt. eigenvalues --    1.12929   1.13209   1.13648   1.13866   1.13963
 Alpha virt. eigenvalues --    1.14619   1.14823   1.15242   1.15446   1.15540
 Alpha virt. eigenvalues --    1.15872   1.16239   1.16472   1.16864   1.17262
 Alpha virt. eigenvalues --    1.17679   1.17747   1.18344   1.18369   1.18728
 Alpha virt. eigenvalues --    1.19050   1.19671   1.19882   1.20054   1.20349
 Alpha virt. eigenvalues --    1.20928   1.21260   1.21538   1.21732   1.22137
 Alpha virt. eigenvalues --    1.22451   1.22876   1.23099   1.23349   1.23578
 Alpha virt. eigenvalues --    1.24119   1.24457   1.24540   1.25196   1.25502
 Alpha virt. eigenvalues --    1.25710   1.26376   1.26538   1.27058   1.27477
 Alpha virt. eigenvalues --    1.27625   1.27999   1.28248   1.29046   1.29373
 Alpha virt. eigenvalues --    1.29936   1.30160   1.30515   1.31197   1.31355
 Alpha virt. eigenvalues --    1.31739   1.31890   1.32314   1.33056   1.33336
 Alpha virt. eigenvalues --    1.33686   1.33966   1.34543   1.35063   1.35387
 Alpha virt. eigenvalues --    1.35518   1.35706   1.36190   1.36818   1.37143
 Alpha virt. eigenvalues --    1.37752   1.37927   1.38360   1.38616   1.38841
 Alpha virt. eigenvalues --    1.39435   1.39907   1.40425   1.40616   1.40789
 Alpha virt. eigenvalues --    1.41188   1.42051   1.42549   1.42738   1.43126
 Alpha virt. eigenvalues --    1.43480   1.43828   1.44292   1.45055   1.45146
 Alpha virt. eigenvalues --    1.45816   1.45912   1.46245   1.46625   1.46968
 Alpha virt. eigenvalues --    1.47310   1.47512   1.48061   1.48289   1.49040
 Alpha virt. eigenvalues --    1.49466   1.49728   1.49983   1.51115   1.51257
 Alpha virt. eigenvalues --    1.51477   1.51567   1.52155   1.52495   1.52544
 Alpha virt. eigenvalues --    1.53510   1.53649   1.54078   1.54378   1.54772
 Alpha virt. eigenvalues --    1.55101   1.55287   1.56051   1.56366   1.56729
 Alpha virt. eigenvalues --    1.56814   1.57512   1.57608   1.58061   1.58243
 Alpha virt. eigenvalues --    1.58810   1.59553   1.59736   1.60211   1.61271
 Alpha virt. eigenvalues --    1.61537   1.62236   1.63138   1.63500   1.63596
 Alpha virt. eigenvalues --    1.64061   1.64552   1.65063   1.65317   1.65748
 Alpha virt. eigenvalues --    1.66011   1.66181   1.66944   1.67151   1.67274
 Alpha virt. eigenvalues --    1.67416   1.67553   1.67937   1.68148   1.68379
 Alpha virt. eigenvalues --    1.69016   1.69322   1.69641   1.70218   1.70939
 Alpha virt. eigenvalues --    1.71213   1.71607   1.71710   1.72221   1.73194
 Alpha virt. eigenvalues --    1.73455   1.73601   1.74069   1.74485   1.74652
 Alpha virt. eigenvalues --    1.74875   1.75008   1.75555   1.75791   1.76227
 Alpha virt. eigenvalues --    1.76421   1.76899   1.77380   1.77759   1.77954
 Alpha virt. eigenvalues --    1.78103   1.78323   1.79154   1.79438   1.79549
 Alpha virt. eigenvalues --    1.79927   1.80234   1.80697   1.80999   1.81039
 Alpha virt. eigenvalues --    1.81233   1.81667   1.82212   1.82580   1.83167
 Alpha virt. eigenvalues --    1.83583   1.83974   1.84134   1.84841   1.85227
 Alpha virt. eigenvalues --    1.85403   1.85554   1.85862   1.86230   1.86736
 Alpha virt. eigenvalues --    1.86860   1.87628   1.87771   1.87879   1.88383
 Alpha virt. eigenvalues --    1.88494   1.88737   1.89070   1.89215   1.89526
 Alpha virt. eigenvalues --    1.89830   1.89933   1.90199   1.90317   1.91014
 Alpha virt. eigenvalues --    1.91171   1.91303   1.91663   1.91960   1.92154
 Alpha virt. eigenvalues --    1.92545   1.92631   1.92754   1.93103   1.93473
 Alpha virt. eigenvalues --    1.93624   1.93865   1.94286   1.94496   1.95096
 Alpha virt. eigenvalues --    1.95287   1.95539   1.95985   1.96333   1.96620
 Alpha virt. eigenvalues --    1.96768   1.97025   1.97230   1.97516   1.98065
 Alpha virt. eigenvalues --    1.98199   1.98609   1.98886   1.99607   1.99854
 Alpha virt. eigenvalues --    2.00170   2.00566   2.01118   2.01317   2.01707
 Alpha virt. eigenvalues --    2.02329   2.02660   2.03054   2.03214   2.03864
 Alpha virt. eigenvalues --    2.04089   2.04528   2.04691   2.05678   2.05922
 Alpha virt. eigenvalues --    2.06445   2.06791   2.06890   2.07079   2.07484
 Alpha virt. eigenvalues --    2.07781   2.08297   2.08523   2.08743   2.08969
 Alpha virt. eigenvalues --    2.09267   2.09546   2.10487   2.10603   2.10907
 Alpha virt. eigenvalues --    2.11007   2.11358   2.11656   2.11977   2.12177
 Alpha virt. eigenvalues --    2.12778   2.13031   2.13228   2.13553   2.13779
 Alpha virt. eigenvalues --    2.14107   2.14489   2.14735   2.15030   2.15475
 Alpha virt. eigenvalues --    2.16015   2.16241   2.16624   2.16909   2.17444
 Alpha virt. eigenvalues --    2.17495   2.18091   2.18383   2.18692   2.18863
 Alpha virt. eigenvalues --    2.19002   2.19151   2.19656   2.20042   2.20184
 Alpha virt. eigenvalues --    2.20777   2.20978   2.21155   2.21420   2.21758
 Alpha virt. eigenvalues --    2.22255   2.22570   2.22911   2.23242   2.23660
 Alpha virt. eigenvalues --    2.24048   2.24324   2.24402   2.24634   2.25168
 Alpha virt. eigenvalues --    2.25439   2.25794   2.26130   2.26519   2.27020
 Alpha virt. eigenvalues --    2.27139   2.27281   2.28099   2.28251   2.28390
 Alpha virt. eigenvalues --    2.28704   2.29147   2.29272   2.29696   2.29906
 Alpha virt. eigenvalues --    2.30386   2.30819   2.31168   2.31288   2.31570
 Alpha virt. eigenvalues --    2.31767   2.32109   2.32345   2.32897   2.33610
 Alpha virt. eigenvalues --    2.33773   2.34222   2.34425   2.34709   2.35345
 Alpha virt. eigenvalues --    2.35824   2.36027   2.36315   2.37011   2.37273
 Alpha virt. eigenvalues --    2.37511   2.37655   2.37961   2.38144   2.38910
 Alpha virt. eigenvalues --    2.38970   2.39377   2.39709   2.40479   2.40605
 Alpha virt. eigenvalues --    2.40921   2.41206   2.41571   2.42036   2.42168
 Alpha virt. eigenvalues --    2.42541   2.42811   2.43127   2.43361   2.43878
 Alpha virt. eigenvalues --    2.43924   2.44369   2.44694   2.45257   2.45385
 Alpha virt. eigenvalues --    2.45857   2.46246   2.46667   2.47111   2.47523
 Alpha virt. eigenvalues --    2.47684   2.48026   2.48392   2.48700   2.48928
 Alpha virt. eigenvalues --    2.49340   2.49471   2.49784   2.50188   2.50757
 Alpha virt. eigenvalues --    2.51150   2.51669   2.51774   2.52086   2.52331
 Alpha virt. eigenvalues --    2.52825   2.53147   2.53774   2.53880   2.54180
 Alpha virt. eigenvalues --    2.54518   2.55209   2.55471   2.55899   2.56577
 Alpha virt. eigenvalues --    2.56794   2.57326   2.58077   2.58379   2.58759
 Alpha virt. eigenvalues --    2.58776   2.59514   2.59885   2.60229   2.60737
 Alpha virt. eigenvalues --    2.61117   2.61547   2.61652   2.62234   2.62563
 Alpha virt. eigenvalues --    2.62742   2.63297   2.63797   2.64110   2.64570
 Alpha virt. eigenvalues --    2.64749   2.65197   2.65499   2.65823   2.66494
 Alpha virt. eigenvalues --    2.67006   2.67390   2.67606   2.67731   2.68539
 Alpha virt. eigenvalues --    2.68937   2.69455   2.69576   2.70299   2.70480
 Alpha virt. eigenvalues --    2.70600   2.70752   2.71220   2.71388   2.71715
 Alpha virt. eigenvalues --    2.71947   2.72381   2.72721   2.73497   2.73772
 Alpha virt. eigenvalues --    2.73963   2.74498   2.74661   2.75068   2.75648
 Alpha virt. eigenvalues --    2.76074   2.76462   2.76872   2.77392   2.78711
 Alpha virt. eigenvalues --    2.79047   2.79146   2.79335   2.80151   2.80839
 Alpha virt. eigenvalues --    2.81349   2.81812   2.82238   2.83030   2.84312
 Alpha virt. eigenvalues --    2.85718   2.86070   2.86542   2.87237   2.87766
 Alpha virt. eigenvalues --    2.88246   2.88586   2.88718   2.88951   2.89022
 Alpha virt. eigenvalues --    2.89616   2.89815   2.90030   2.90473   2.90535
 Alpha virt. eigenvalues --    2.91223   2.91641   2.92245   2.93132   2.93610
 Alpha virt. eigenvalues --    2.93866   2.95207   2.95901   2.97091   2.97411
 Alpha virt. eigenvalues --    2.97861   2.98104   2.98328   2.98607   2.98924
 Alpha virt. eigenvalues --    2.99467   2.99681   3.00118   3.00901   3.02121
 Alpha virt. eigenvalues --    3.02294   3.02555   3.02985   3.03460   3.03809
 Alpha virt. eigenvalues --    3.04115   3.04471   3.04736   3.04889   3.06279
 Alpha virt. eigenvalues --    3.06557   3.06703   3.07666   3.08201   3.08972
 Alpha virt. eigenvalues --    3.09314   3.10519   3.10899   3.12064   3.12523
 Alpha virt. eigenvalues --    3.13128   3.13434   3.13921   3.14710   3.14984
 Alpha virt. eigenvalues --    3.15521   3.16406   3.16938   3.17887   3.18263
 Alpha virt. eigenvalues --    3.18842   3.19973   3.21354   3.21944   3.22564
 Alpha virt. eigenvalues --    3.23638   3.23953   3.24115   3.24646   3.25353
 Alpha virt. eigenvalues --    3.26232   3.26552   3.27355   3.27990   3.28296
 Alpha virt. eigenvalues --    3.29645   3.30012   3.30502   3.31572   3.31915
 Alpha virt. eigenvalues --    3.32994   3.33195   3.34263   3.35689   3.36137
 Alpha virt. eigenvalues --    3.38672   3.39789   3.42288   3.44053   3.45166
 Alpha virt. eigenvalues --    3.45996   3.46969   3.48334   3.50681   3.51706
 Alpha virt. eigenvalues --    3.54422   3.55037   3.56103   3.61564   3.62563
 Alpha virt. eigenvalues --    3.63650   3.64764   3.66213   3.70567   3.72450
 Alpha virt. eigenvalues --    3.74504   3.75265   3.75664   3.76443   3.77932
 Alpha virt. eigenvalues --    3.79111   3.79619   3.81444   3.82806   3.83548
 Alpha virt. eigenvalues --    3.87522   3.88772   3.92072   3.92900   3.94280
 Alpha virt. eigenvalues --    3.95042   3.99092   4.05070   4.06232   4.07089
 Alpha virt. eigenvalues --    4.08996   4.11365   4.11948   4.19162   4.21991
 Alpha virt. eigenvalues --    4.27552   4.33626   4.42224   4.43432   4.44478
 Alpha virt. eigenvalues --    4.49977   4.64073   4.76129   4.79093   4.95236
 Alpha virt. eigenvalues --    5.23016   5.29748
          Condensed to atoms (all electrons):
 Mulliken charges:
               1
     1  C    0.987318
     2  C    0.617839
     3  C    1.149692
     4  C   -0.036188
     5  H   -0.853040
     6  C    0.325851
     7  C    0.778333
     8  H   -0.764301
     9  C    0.730951
    10  C    0.456662
    11  H   -1.089134
    12  C    1.298534
    13  H   -0.759901
    14  H   -0.740105
    15  C    1.118272
    16  C    0.371011
    17  C   -0.268677
    18  C    1.316147
    19  H   -1.088871
    20  C    0.273757
    21  C    0.290082
    22  H   -1.252693
    23  C    1.079677
    24  C    0.841140
    25  H   -0.979166
    26  C    0.296000
    27  H   -0.724376
    28  C   -0.449711
    29  C    0.004406
    30  N   -0.444463
    31  H   -0.305440
    32  C    0.787419
    33  N   -0.723234
    34  H   -0.358623
    35  C    0.755325
    36  C    0.583961
    37  C    0.495884
    38  O   -0.862715
    39  C   -0.324892
    40  C   -0.130981
    41  N   -0.401955
    42  H   -0.300697
    43  C    0.795011
    44  N   -0.517050
    45  H   -0.384024
    46  C    0.820190
    47  C    0.514832
    48  C    0.550137
    49  C    0.290164
    50  C   -0.071852
    51  N   -0.784438
    52  H   -0.343938
    53  C    0.800487
    54  N   -0.565878
    55  H   -0.420241
    56  C    0.707212
    57  C    0.388491
    58  C    0.466289
    59  H   -0.772900
    60  H    0.101462
    61  H   -0.182409
    62  H    0.222708
    63  H   -0.301596
    64  H   -0.143709
    65  H   -0.075555
    66  H   -0.147085
    67  H   -0.082795
    68  H   -0.205053
    69  H   -0.118138
    70  H   -0.221342
    71  H   -0.108967
    72  H   -0.126409
    73  H   -0.043241
    74  H   -0.135771
    75  H   -0.100810
    76  H   -0.148787
    77  H   -0.100374
    78  H   -0.034132
    79  H   -0.121711
    80  H   -0.100681
    81  H   -0.194908
    82  H   -0.123642
    83  H   -0.226439
    84  H   -0.138301
    85  H   -0.085008
    86  H   -0.146282
    87  H   -0.082613
 Sum of Mulliken charges =   0.00000
 Mulliken charges with hydrogens summed into heavy atoms:
               1
     1  C    0.987318
     2  C   -0.122267
     3  C    0.296652
     4  C   -0.036188
     6  C   -0.438450
     7  C    0.778333
     9  C   -0.358183
    10  C   -0.303239
    12  C    0.996939
    15  C    1.118272
    16  C   -0.401889
    17  C   -1.357548
    18  C    1.316147
    20  C   -0.978936
    21  C    0.290082
    23  C    0.100512
    24  C    0.658730
    26  C   -0.428376
    28  C   -0.755152
    29  C   -0.354217
    30  N   -0.444463
    32  C    0.437338
    33  N   -0.723234
    35  C    0.459737
    36  C    0.360652
    37  C    0.266989
    38  O   -0.862715
    39  C   -0.625589
    40  C   -0.515006
    41  N   -0.401955
    43  C    0.464701
    44  N   -0.517050
    46  C    0.496999
    47  C    0.295569
    48  C    0.320257
    49  C   -0.053774
    50  C   -0.492093
    51  N   -0.682977
    53  C    0.644645
    54  N   -0.343170
    56  C    0.537562
    57  C    0.139329
    58  C    0.229708
 Electronic spatial extent (au):  <R**2>=          30348.4747
 Charge=              0.0000 electrons
 Dipole moment (field-independent basis, Debye):
    X=             -2.8272    Y=             -1.9784    Z=             -3.2676  Tot=              4.7523
 Quadrupole moment (field-independent basis, Debye-Ang):
   XX=           -244.4888   YY=           -244.5469   ZZ=           -279.7956
   XY=              5.8489   XZ=            -18.7117   YZ=             -3.0653
 Traceless Quadrupole moment (field-independent basis, Debye-Ang):
   XX=             11.7883   YY=             11.7302   ZZ=            -23.5185
   XY=              5.8489   XZ=            -18.7117   YZ=             -3.0653
 Octapole moment (field-independent basis, Debye-Ang**2):
  XXX=           -208.1190  YYY=            -12.8106  ZZZ=           -178.7557  XYY=             57.3014
  XXY=            -35.5248  XXZ=            -22.8688  XZZ=            -88.6531  YZZ=            -14.2558
  YYZ=              2.6300  XYZ=             -8.5137
 Hexadecapole moment (field-independent basis, Debye-Ang**3):
 XXXX=         -18576.2011 YYYY=         -17003.5995 ZZZZ=          -6404.5415 XXXY=             47.8504
 XXXZ=           -276.3610 YYYX=            162.3271 YYYZ=             38.5646 ZZZX=           -691.5996
 ZZZY=           -141.3448 XXYY=          -6213.0532 XXZZ=          -4179.6381 YYZZ=          -3649.5619
 XXYZ=            -48.3345 YYXZ=             -7.8635 ZZXY=           -111.6155
 N-N= 5.038959961510D+03 E-N=-1.425611090996D+04  KE= 1.790161308265D+03
 Leave Link  601 at Wed Nov 10 14:17:05 2021, MaxMem=  7864320000 cpu:              48.8 elap:               2.0
 (Enter /apps/gaussian/g16-c01-avx/g16/l9999.exe)
 Unable to Open any file for archive entry.
 1\1\GINC-CX3-11-0\SP\RMP2-FC\Aug-CC-pVDZ\C36H44N6O1\ATARZIA\10-Nov-202
 1\0\\#P MP2/aug-cc-pVDZ SP SCF=(YQC,MaxCycle=900) int=(Grid=Superfineg
 rid) SCRF=(PCM,Solvent=Chloroform)\\_2_alde1_3_ami3_1_opt_cfm_mp2\\0,1
 \C,0,-3.6665,-1.3508,-0.6542\C,0,-3.5756,-0.998,0.7541\C,0,-3.1904,-2.
 5713,-1.1291\C,0,-3.1863,-2.8367,-2.4944\H,0,-2.818,-3.2935,-0.4187\C,
 0,-3.6213,-1.8621,-3.3943\C,0,-4.1057,-0.644,-2.9332\H,0,-3.5749,-2.07
 88,-4.452\C,0,-4.1493,-0.4108,-1.5596\C,0,-4.4674,0.4173,-3.8647\H,0,-
 4.5348,0.5375,-1.2192\C,0,-2.6973,-4.1267,-3.0006\H,0,-4.0668,0.3059,-
 4.8842\H,0,-4.0432,-0.0412,1.0293\C,0,-0.5244,1.2506,-0.2975\C,0,-0.46
 12,0.4121,0.8901\C,0,-1.7042,1.9121,-0.6232\C,0,-1.8284,2.5798,-1.8365
 \H,0,-2.5293,1.8585,0.0693\C,0,-0.7345,2.6392,-2.6996\C,0,0.465,2.0309
 ,-2.359\H,0,-0.8431,3.1579,-3.6395\C,0,0.5573,1.3154,-1.1741\C,0,1.649
 3,2.1471,-3.293\H,0,1.4831,0.8102,-0.9438\C,0,-3.1276,3.1046,-2.2208\H
 ,0,-3.8984,3.0637,-1.4351\C,0,-1.3082,-0.4885,2.8653\C,0,-2.7136,-1.14
 29,2.8917\N,0,-1.3151,0.4817,1.8161\H,0,-0.5585,-1.2796,2.6812\C,0,-1.
 0395,0.1591,4.224\N,0,-2.9392,-1.6953,1.5921\H,0,-3.4392,-0.3425,3.120
 4\C,0,-2.7543,-2.2148,3.9755\C,0,-1.101,-0.8914,5.3284\C,0,-2.4555,-1.
 595,5.3371\O,0,-2.6417,-4.4443,-4.1609\C,0,-5.318,2.5142,-4.4147\C,0,-
 4.759,3.7774,-3.7114\N,0,-5.1441,1.4205,-3.5122\H,0,-4.7537,2.3593,-5.
 3518\C,0,-6.7948,2.7394,-4.7393\N,0,-3.3922,3.5057,-3.3881\H,0,-5.3646
 ,3.9379,-2.8012\C,0,-4.8898,4.9754,-4.6459\C,0,-6.9513,3.9505,-5.6536\
 C,0,-6.354,5.1997,-5.011\C,0,3.6124,2.6962,-2.2244\C,0,3.3413,3.7558,-
 3.3062\N,0,2.8538,1.5489,-2.702\H,0,3.133,3.0206,-1.2892\C,0,5.1011,2.
 5399,-1.9955\N,0,1.9289,3.5708,-3.6076\H,0,3.899,3.4789,-4.2142\C,0,3.
 8102,5.1178,-2.8361\C,0,5.6409,3.9033,-1.5504\C,0,5.3125,5.0142,-2.552
 5\H,0,0.355,-0.3279,0.9009\H,0,3.3892,1.0652,-3.4167\H,0,1.4046,1.63,-
 4.2314\H,0,1.3649,4.1671,-3.008\H,0,-2.3695,-4.8208,-2.2013\H,0,-8.009
 6,4.1128,-5.8679\H,0,-6.4439,3.7538,-6.6009\H,0,-6.4376,6.0449,-5.6969
 \H,0,-6.9169,5.445,-4.1073\H,0,-4.4818,5.8596,-4.1525\H,0,-4.2972,4.78
 8,-5.5426\H,0,-7.1942,1.845,-5.2224\H,0,-7.3422,2.892,-3.8077\H,0,3.62
 06,5.8779,-3.5956\H,0,3.2737,5.4009,-1.9267\H,0,5.6789,5.9667,-2.1651\
 H,0,5.8342,4.8145,-3.4914\H,0,6.7232,3.8447,-1.4211\H,0,5.2031,4.1548,
 -0.5815\H,0,5.589,2.2264,-2.9218\H,0,5.3013,1.786,-1.2325\H,0,-2.0181,
 -2.9843,3.7375\H,0,-3.7406,-2.6827,3.9796\H,0,-1.7838,0.9382,4.3973\H,
 0,-0.0551,0.632,4.2042\H,0,-0.9229,-0.4168,6.2955\H,0,-0.3117,-1.6294,
 5.167\H,0,-2.4652,-2.3707,6.1052\H,0,-3.2366,-0.8714,5.5823\\Version=E
 S64L-G16RevC.01\State=1-A\HF=-1790.626966\MP2=-1796.8990839\RMSD=7.720
 e-09\PG=C01 [X(C36H44N6O1)]\\@
 The archive entry for this job was punched.


 Life may have no meaning.  Or even worse, it may have a
 meaning of which I disapprove.
                                 -- Ashleigh Brilliant
 Job cpu time:      13 days 16 hours 52 minutes  6.4 seconds.
 Elapsed time:       0 days 10 hours 31 minutes 12.1 seconds.
 File lengths (MBytes):  RWF=2428288 Int=      0 D2E=      0 Chk=    136 Scr=     16
 Normal termination of Gaussian 16 at Wed Nov 10 14:17:07 2021.
