 Entering Gaussian System, Link 0=g16
 Initial command:
 /apps/gaussian/g16-c01-avx/g16/l1.exe "/rds/general/ephemeral/user/atarzia/ephemeral/xtb_spe_DFT/Gau-253435.inp" -scrdir="/rds/general/ephemeral/user/atarzia/ephemeral/xtb_spe_DFT/"
 Entering Link 1 = /apps/gaussian/g16-c01-avx/g16/l1.exe PID=    253437.
  
 Copyright (c) 1988-2019, Gaussian, Inc.  All Rights Reserved.
  
 This is part of the Gaussian(R) 16 program.  It is based on
 the Gaussian(R) 09 system (copyright 2009, Gaussian, Inc.),
 the Gaussian(R) 03 system (copyright 2003, Gaussian, Inc.),
 the Gaussian(R) 98 system (copyright 1998, Gaussian, Inc.),
 the Gaussian(R) 94 system (copyright 1995, Gaussian, Inc.),
 the Gaussian 92(TM) system (copyright 1992, Gaussian, Inc.),
 the Gaussian 90(TM) system (copyright 1990, Gaussian, Inc.),
 the Gaussian 88(TM) system (copyright 1988, Gaussian, Inc.),
 the Gaussian 86(TM) system (copyright 1986, Carnegie Mellon
 University), and the Gaussian 82(TM) system (copyright 1983,
 Carnegie Mellon University). Gaussian is a federally registered
 trademark of Gaussian, Inc.
  
 This software contains proprietary and confidential information,
 including trade secrets, belonging to Gaussian, Inc.
  
 This software is provided under written license and may be
 used, copied, transmitted, or stored only in accord with that
 written license.
  
 The following legend is applicable only to US Government
 contracts under FAR:
  
                    RESTRICTED RIGHTS LEGEND
  
 Use, reproduction and disclosure by the US Government is
 subject to restrictions as set forth in subparagraphs (a)
 and (c) of the Commercial Computer Software - Restricted
 Rights clause in FAR 52.227-19.
  
 Gaussian, Inc.
 340 Quinnipiac St., Bldg. 40, Wallingford CT 06492
  
  
 ---------------------------------------------------------------
 Warning -- This program may not be used in any manner that
 competes with the business of Gaussian, Inc. or will provide
 assistance to any competitor of Gaussian, Inc.  The licensee
 of this program is prohibited from giving any competitor of
 Gaussian, Inc. access to this program.  By using this program,
 the user acknowledges that Gaussian, Inc. is engaged in the
 business of creating and licensing software in the field of
 computational chemistry and represents and warrants to the
 licensee that it is not a competitor of Gaussian, Inc. and that
 it will not use this program in any manner prohibited above.
 ---------------------------------------------------------------
  

 Cite this work as:
 Gaussian 16, Revision C.01,
 M. J. Frisch, G. W. Trucks, H. B. Schlegel, G. E. Scuseria, 
 M. A. Robb, J. R. Cheeseman, G. Scalmani, V. Barone, 
 G. A. Petersson, H. Nakatsuji, X. Li, M. Caricato, A. V. Marenich, 
 J. Bloino, B. G. Janesko, R. Gomperts, B. Mennucci, H. P. Hratchian, 
 J. V. Ortiz, A. F. Izmaylov, J. L. Sonnenberg, D. Williams-Young, 
 F. Ding, F. Lipparini, F. Egidi, J. Goings, B. Peng, A. Petrone, 
 T. Henderson, D. Ranasinghe, V. G. Zakrzewski, J. Gao, N. Rega, 
 G. Zheng, W. Liang, M. Hada, M. Ehara, K. Toyota, R. Fukuda, 
 J. Hasegawa, M. Ishida, T. Nakajima, Y. Honda, O. Kitao, H. Nakai, 
 T. Vreven, K. Throssell, J. A. Montgomery, Jr., J. E. Peralta, 
 F. Ogliaro, M. J. Bearpark, J. J. Heyd, E. N. Brothers, K. N. Kudin, 
 V. N. Staroverov, T. A. Keith, R. Kobayashi, J. Normand, 
 K. Raghavachari, A. P. Rendell, J. C. Burant, S. S. Iyengar, 
 J. Tomasi, M. Cossi, J. M. Millam, M. Klene, C. Adamo, R. Cammi, 
 J. W. Ochterski, R. L. Martin, K. Morokuma, O. Farkas, 
 J. B. Foresman, and D. J. Fox, Gaussian, Inc., Wallingford CT, 2019.
 
 ******************************************
 Gaussian 16:  ES64L-G16RevC.01  3-Jul-2019
                 7-Nov-2021 
 ******************************************
 %chk=_2_alde1_4_ami3_1_opt_cfm_mp2.chk
 %mem=60000mb
 %nprocshared=32
 Will use up to   32 processors via shared memory.
 ----------------------------------------------------------------------
 #P MP2/aug-cc-pVDZ SP SCF=(YQC,MaxCycle=900) int=(Grid=Superfinegrid) 
 SCRF=(PCM,Solvent=Chloroform)
 ----------------------------------------------------------------------
 1/38=1,172=1/1;
 2/12=2,17=6,18=5,40=1/2;
 3/5=16,7=10,11=9,25=1,30=1,70=2201,72=7,75=-7/1,2,3;
 4//1;
 5/5=2,7=900,8=4,13=1,38=1,53=7/8,2,8;
 8/10=1/1;
 9/16=-3/6;
 6/7=2,8=2,9=2,10=2/1;
 99/5=1,9=1/99;
 Leave Link    1 at Sun Nov  7 11:03:51 2021, MaxMem=  7864320000 cpu:               6.2 elap:               0.2
 (Enter /apps/gaussian/g16-c01-avx/g16/l101.exe)
 -----------------------------
 _2_alde1_4_ami3_1_opt_cfm_mp2
 -----------------------------
 Symbolic Z-matrix:
 Charge =  0 Multiplicity = 1
 C                    -3.8474   -1.9079   -0.377 
 C                    -4.1136   -1.5038    0.9934 
 C                    -3.1019   -3.0495   -0.669 
 C                    -2.7684   -3.3565   -1.9805 
 H                    -2.7795   -3.682     0.1435 
 C                    -3.1453   -2.4981   -3.0027 
 C                    -3.8927   -1.3537   -2.7286 
 H                    -2.8584   -2.7363   -4.0159 
 C                    -4.2633   -1.0821   -1.4156 
 C                    -4.1894   -0.3951   -3.7829 
 H                    -4.8468   -0.1959   -1.2222 
 C                    -1.9447   -4.5931   -2.2594 
 H                    -3.5757   -0.4903   -4.6937 
 H                    -4.7759   -0.6311    1.1016 
 C                    -1.2498    1.1561    0.4825 
 C                    -1.3372    0.3796    1.7105 
 C                    -2.4088    1.6099   -0.1387 
 C                    -2.352     2.2115   -1.3911 
 H                    -3.3521    1.448     0.3584 
 C                    -1.1122    2.4115   -1.9971 
 C                     0.0544    2.0069   -1.3641 
 H                    -1.0779    2.8748   -2.9709 
 C                    -0.0187    1.3621   -0.1383 
 C                     1.3803    2.224    -2.0573 
 H                     0.895     1.0308    0.3319 
 C                    -3.5936    2.5226   -2.0795 
 H                    -4.5054    2.3965   -1.4758 
 C                    -2.4685   -0.5622    3.5156 
 C                    -3.7312   -1.4271    3.2697 
 N                    -2.3733    0.3607    2.429 
 N                    -3.5713   -2.0524    1.9928 
 C                    -0.2711   -4.3886   -3.8446 
 C                     0.3515   -4.8742   -2.5241 
 N                    -1.6721   -4.7548   -3.6974 
 N                    -0.6543   -4.5254   -1.5326 
 C                    -5.158     1.5429   -4.6382 
 C                    -4.9323    2.8996   -3.9233 
 N                    -5.0448    0.5212   -3.6458 
 N                    -3.6455    2.8387   -3.3007 
 C                     2.6505    0.8133   -3.4057 
 C                     2.9155    0.4975   -1.9233 
 N                     1.3904    1.5394   -3.3723 
 N                     2.5063    1.7224   -1.252 
 H                    -0.4528   -0.2358    1.9437 
 H                     0.6106    0.8885   -3.4188 
 H                     1.5078    3.3012   -2.2349 
 H                     3.2709    2.3898   -1.2674 
 H                    -0.5041   -3.5758   -1.2014 
 H                    -1.8002   -5.7242   -3.97 
 H                    -2.4964   -5.4692   -1.8901 
 C                     4.3362    0.0075   -1.7338 
 C                     1.7499   -4.3134   -2.3683 
 C                    -2.6173    0.1632    4.853 
 C                    -5.0103    4.0295   -4.9447 
 H                    -1.5902   -1.2323    3.5564 
 C                    -3.8657   -2.4561    4.3873 
 H                    -4.5989   -0.7432    3.2773 
 C                    -3.9827   -1.7539    5.7366 
 H                    -2.9915   -3.1087    4.3713 
 H                    -4.748    -3.0718    4.2019 
 C                    -2.7794   -0.8478    5.9837 
 H                    -4.0574   -2.4963    6.5337 
 H                    -4.8954   -1.1535    5.7518 
 H                    -1.8758   -1.4583    6.0523 
 H                    -2.9      -0.3204    6.9323 
 H                    -3.4864    0.8212    4.8027 
 H                    -1.7345    0.7839    5.022 
 H                     0.4059   -5.9733   -2.5463 
 C                     2.5788   -4.8068   -3.5589 
 H                     2.2005   -4.6433   -1.4307 
 H                     1.7082   -3.2207   -2.362 
 C                     1.9455   -4.4413   -4.9051 
 H                     2.6732   -5.8931   -3.4918 
 H                     3.5839   -4.3833   -3.508 
 C                     0.5011   -4.9388   -5.026 
 H                     2.5475   -4.8658   -5.7109 
 H                     1.9528   -3.3555   -5.0231 
 H                     0.4767   -6.0314   -5.008 
 H                     0.0641   -4.6037   -5.968 
 H                    -0.2325   -3.2891   -3.8656 
 H                     2.2145   -0.2878   -1.6027 
 C                     4.5059   -1.2558   -2.5846 
 H                     4.5355   -0.2149   -0.6842 
 H                     5.0401    0.7776   -2.0592 
 C                     4.1494   -1.0216   -4.056 
 H                     3.8629   -2.04     -2.1791 
 H                     5.5377   -1.6063   -2.5177 
 C                     2.7378   -0.4523   -4.2334 
 H                     4.2371   -1.9636   -4.6012 
 H                     4.8655   -0.3198   -4.4897 
 H                     2.5433   -0.2439   -5.2867 
 H                     1.9921   -1.1714   -3.8834 
 H                     3.4157    1.5236   -3.7542 
 H                    -5.7372    3.0091   -3.1744 
 C                    -6.545     1.5459   -5.2809 
 H                    -4.3886    1.4314   -5.4242 
 C                    -6.6543    2.6856   -6.2889 
 H                    -7.2966    1.6567   -4.4975 
 H                    -6.7116    0.5855   -5.7738 
 C                    -6.3767    4.0309   -5.6231 
 H                    -7.6526    2.689    -6.7314 
 H                    -5.932     2.525    -7.0929 
 H                    -7.149     4.2297   -4.8761 
 H                    -6.4183    4.8285   -6.3676 
 H                    -4.2183    3.8917   -5.6825 
 H                    -4.8365    4.9812   -4.439 
 
 ITRead=  0  0  0  0  0  0  0  0  0  0  0  0  0  0  0  0  0  0  0  0
 ITRead=  0  0  0  0  0  0  0  0  0  0  0  0  0  0  0  0  0  0  0  0
 ITRead=  0  0  0  0  0  0  0  0  0  0  0  0  0  0  0  0  0  0  0  0
 ITRead=  0  0  0  0  0  0  0  0  0  0  0  0  0  0  0  0  0  0  0  0
 ITRead=  0  0  0  0  0  0  0  0  0  0  0  0  0  0  0  0  0  0  0  0
 ITRead=  0  0  0  0  0  0
 MicOpt= -1 -1 -1 -1 -1 -1 -1 -1 -1 -1 -1 -1 -1 -1 -1 -1 -1 -1 -1 -1
 MicOpt= -1 -1 -1 -1 -1 -1 -1 -1 -1 -1 -1 -1 -1 -1 -1 -1 -1 -1 -1 -1
 MicOpt= -1 -1 -1 -1 -1 -1 -1 -1 -1 -1 -1 -1 -1 -1 -1 -1 -1 -1 -1 -1
 MicOpt= -1 -1 -1 -1 -1 -1 -1 -1 -1 -1 -1 -1 -1 -1 -1 -1 -1 -1 -1 -1
 MicOpt= -1 -1 -1 -1 -1 -1 -1 -1 -1 -1 -1 -1 -1 -1 -1 -1 -1 -1 -1 -1
 MicOpt= -1 -1 -1 -1 -1 -1
 NAtoms=    106 NQM=      106 NQMF=       0 NMMI=      0 NMMIF=      0
                NMic=       0 NMicF=      0.
                    Isotopes and Nuclear Properties:
 (Nuclear quadrupole moments (NQMom) in fm**2, nuclear magnetic moments (NMagM)
  in nuclear magnetons)

  Atom         1           2           3           4           5           6           7           8           9          10
 IAtWgt=          12          12          12          12           1          12          12           1          12          12
 AtmWgt=  12.0000000  12.0000000  12.0000000  12.0000000   1.0078250  12.0000000  12.0000000   1.0078250  12.0000000  12.0000000
 NucSpn=           0           0           0           0           1           0           0           1           0           0
 AtZEff=  -0.0000000  -0.0000000  -0.0000000  -0.0000000  -0.0000000  -0.0000000  -0.0000000  -0.0000000  -0.0000000  -0.0000000
 NQMom=    0.0000000   0.0000000   0.0000000   0.0000000   0.0000000   0.0000000   0.0000000   0.0000000   0.0000000   0.0000000
 NMagM=    0.0000000   0.0000000   0.0000000   0.0000000   2.7928460   0.0000000   0.0000000   2.7928460   0.0000000   0.0000000
 AtZNuc=   6.0000000   6.0000000   6.0000000   6.0000000   1.0000000   6.0000000   6.0000000   1.0000000   6.0000000   6.0000000

  Atom        11          12          13          14          15          16          17          18          19          20
 IAtWgt=           1          12           1           1          12          12          12          12           1          12
 AtmWgt=   1.0078250  12.0000000   1.0078250   1.0078250  12.0000000  12.0000000  12.0000000  12.0000000   1.0078250  12.0000000
 NucSpn=           1           0           1           1           0           0           0           0           1           0
 AtZEff=  -0.0000000  -0.0000000  -0.0000000  -0.0000000  -0.0000000  -0.0000000  -0.0000000  -0.0000000  -0.0000000  -0.0000000
 NQMom=    0.0000000   0.0000000   0.0000000   0.0000000   0.0000000   0.0000000   0.0000000   0.0000000   0.0000000   0.0000000
 NMagM=    2.7928460   0.0000000   2.7928460   2.7928460   0.0000000   0.0000000   0.0000000   0.0000000   2.7928460   0.0000000
 AtZNuc=   1.0000000   6.0000000   1.0000000   1.0000000   6.0000000   6.0000000   6.0000000   6.0000000   1.0000000   6.0000000

  Atom        21          22          23          24          25          26          27          28          29          30
 IAtWgt=          12           1          12          12           1          12           1          12          12          14
 AtmWgt=  12.0000000   1.0078250  12.0000000  12.0000000   1.0078250  12.0000000   1.0078250  12.0000000  12.0000000  14.0030740
 NucSpn=           0           1           0           0           1           0           1           0           0           2
 AtZEff=  -0.0000000  -0.0000000  -0.0000000  -0.0000000  -0.0000000  -0.0000000  -0.0000000  -0.0000000  -0.0000000  -0.0000000
 NQMom=    0.0000000   0.0000000   0.0000000   0.0000000   0.0000000   0.0000000   0.0000000   0.0000000   0.0000000   2.0440000
 NMagM=    0.0000000   2.7928460   0.0000000   0.0000000   2.7928460   0.0000000   2.7928460   0.0000000   0.0000000   0.4037610
 AtZNuc=   6.0000000   1.0000000   6.0000000   6.0000000   1.0000000   6.0000000   1.0000000   6.0000000   6.0000000   7.0000000

  Atom        31          32          33          34          35          36          37          38          39          40
 IAtWgt=          14          12          12          14          14          12          12          14          14          12
 AtmWgt=  14.0030740  12.0000000  12.0000000  14.0030740  14.0030740  12.0000000  12.0000000  14.0030740  14.0030740  12.0000000
 NucSpn=           2           0           0           2           2           0           0           2           2           0
 AtZEff=  -0.0000000  -0.0000000  -0.0000000  -0.0000000  -0.0000000  -0.0000000  -0.0000000  -0.0000000  -0.0000000  -0.0000000
 NQMom=    2.0440000   0.0000000   0.0000000   2.0440000   2.0440000   0.0000000   0.0000000   2.0440000   2.0440000   0.0000000
 NMagM=    0.4037610   0.0000000   0.0000000   0.4037610   0.4037610   0.0000000   0.0000000   0.4037610   0.4037610   0.0000000
 AtZNuc=   7.0000000   6.0000000   6.0000000   7.0000000   7.0000000   6.0000000   6.0000000   7.0000000   7.0000000   6.0000000

  Atom        41          42          43          44          45          46          47          48          49          50
 IAtWgt=          12          14          14           1           1           1           1           1           1           1
 AtmWgt=  12.0000000  14.0030740  14.0030740   1.0078250   1.0078250   1.0078250   1.0078250   1.0078250   1.0078250   1.0078250
 NucSpn=           0           2           2           1           1           1           1           1           1           1
 AtZEff=  -0.0000000  -0.0000000  -0.0000000  -0.0000000  -0.0000000  -0.0000000  -0.0000000  -0.0000000  -0.0000000  -0.0000000
 NQMom=    0.0000000   2.0440000   2.0440000   0.0000000   0.0000000   0.0000000   0.0000000   0.0000000   0.0000000   0.0000000
 NMagM=    0.0000000   0.4037610   0.4037610   2.7928460   2.7928460   2.7928460   2.7928460   2.7928460   2.7928460   2.7928460
 AtZNuc=   6.0000000   7.0000000   7.0000000   1.0000000   1.0000000   1.0000000   1.0000000   1.0000000   1.0000000   1.0000000

  Atom        51          52          53          54          55          56          57          58          59          60
 IAtWgt=          12          12          12          12           1          12           1          12           1           1
 AtmWgt=  12.0000000  12.0000000  12.0000000  12.0000000   1.0078250  12.0000000   1.0078250  12.0000000   1.0078250   1.0078250
 NucSpn=           0           0           0           0           1           0           1           0           1           1
 AtZEff=  -0.0000000  -0.0000000  -0.0000000  -0.0000000  -0.0000000  -0.0000000  -0.0000000  -0.0000000  -0.0000000  -0.0000000
 NQMom=    0.0000000   0.0000000   0.0000000   0.0000000   0.0000000   0.0000000   0.0000000   0.0000000   0.0000000   0.0000000
 NMagM=    0.0000000   0.0000000   0.0000000   0.0000000   2.7928460   0.0000000   2.7928460   0.0000000   2.7928460   2.7928460
 AtZNuc=   6.0000000   6.0000000   6.0000000   6.0000000   1.0000000   6.0000000   1.0000000   6.0000000   1.0000000   1.0000000

  Atom        61          62          63          64          65          66          67          68          69          70
 IAtWgt=          12           1           1           1           1           1           1           1          12           1
 AtmWgt=  12.0000000   1.0078250   1.0078250   1.0078250   1.0078250   1.0078250   1.0078250   1.0078250  12.0000000   1.0078250
 NucSpn=           0           1           1           1           1           1           1           1           0           1
 AtZEff=  -0.0000000  -0.0000000  -0.0000000  -0.0000000  -0.0000000  -0.0000000  -0.0000000  -0.0000000  -0.0000000  -0.0000000
 NQMom=    0.0000000   0.0000000   0.0000000   0.0000000   0.0000000   0.0000000   0.0000000   0.0000000   0.0000000   0.0000000
 NMagM=    0.0000000   2.7928460   2.7928460   2.7928460   2.7928460   2.7928460   2.7928460   2.7928460   0.0000000   2.7928460
 AtZNuc=   6.0000000   1.0000000   1.0000000   1.0000000   1.0000000   1.0000000   1.0000000   1.0000000   6.0000000   1.0000000

  Atom        71          72          73          74          75          76          77          78          79          80
 IAtWgt=           1          12           1           1          12           1           1           1           1           1
 AtmWgt=   1.0078250  12.0000000   1.0078250   1.0078250  12.0000000   1.0078250   1.0078250   1.0078250   1.0078250   1.0078250
 NucSpn=           1           0           1           1           0           1           1           1           1           1
 AtZEff=  -0.0000000  -0.0000000  -0.0000000  -0.0000000  -0.0000000  -0.0000000  -0.0000000  -0.0000000  -0.0000000  -0.0000000
 NQMom=    0.0000000   0.0000000   0.0000000   0.0000000   0.0000000   0.0000000   0.0000000   0.0000000   0.0000000   0.0000000
 NMagM=    2.7928460   0.0000000   2.7928460   2.7928460   0.0000000   2.7928460   2.7928460   2.7928460   2.7928460   2.7928460
 AtZNuc=   1.0000000   6.0000000   1.0000000   1.0000000   6.0000000   1.0000000   1.0000000   1.0000000   1.0000000   1.0000000

  Atom        81          82          83          84          85          86          87          88          89          90
 IAtWgt=           1          12           1           1          12           1           1          12           1           1
 AtmWgt=   1.0078250  12.0000000   1.0078250   1.0078250  12.0000000   1.0078250   1.0078250  12.0000000   1.0078250   1.0078250
 NucSpn=           1           0           1           1           0           1           1           0           1           1
 AtZEff=  -0.0000000  -0.0000000  -0.0000000  -0.0000000  -0.0000000  -0.0000000  -0.0000000  -0.0000000  -0.0000000  -0.0000000
 NQMom=    0.0000000   0.0000000   0.0000000   0.0000000   0.0000000   0.0000000   0.0000000   0.0000000   0.0000000   0.0000000
 NMagM=    2.7928460   0.0000000   2.7928460   2.7928460   0.0000000   2.7928460   2.7928460   0.0000000   2.7928460   2.7928460
 AtZNuc=   1.0000000   6.0000000   1.0000000   1.0000000   6.0000000   1.0000000   1.0000000   6.0000000   1.0000000   1.0000000

  Atom        91          92          93          94          95          96          97          98          99         100
 IAtWgt=           1           1           1           1          12           1          12           1           1          12
 AtmWgt=   1.0078250   1.0078250   1.0078250   1.0078250  12.0000000   1.0078250  12.0000000   1.0078250   1.0078250  12.0000000
 NucSpn=           1           1           1           1           0           1           0           1           1           0
 AtZEff=  -0.0000000  -0.0000000  -0.0000000  -0.0000000  -0.0000000  -0.0000000  -0.0000000  -0.0000000  -0.0000000  -0.0000000
 NQMom=    0.0000000   0.0000000   0.0000000   0.0000000   0.0000000   0.0000000   0.0000000   0.0000000   0.0000000   0.0000000
 NMagM=    2.7928460   2.7928460   2.7928460   2.7928460   0.0000000   2.7928460   0.0000000   2.7928460   2.7928460   0.0000000
 AtZNuc=   1.0000000   1.0000000   1.0000000   1.0000000   6.0000000   1.0000000   6.0000000   1.0000000   1.0000000   6.0000000

  Atom       101         102         103         104         105         106
 IAtWgt=           1           1           1           1           1           1
 AtmWgt=   1.0078250   1.0078250   1.0078250   1.0078250   1.0078250   1.0078250
 NucSpn=           1           1           1           1           1           1
 AtZEff=  -0.0000000  -0.0000000  -0.0000000  -0.0000000  -0.0000000  -0.0000000
 NQMom=    0.0000000   0.0000000   0.0000000   0.0000000   0.0000000   0.0000000
 NMagM=    2.7928460   2.7928460   2.7928460   2.7928460   2.7928460   2.7928460
 AtZNuc=   1.0000000   1.0000000   1.0000000   1.0000000   1.0000000   1.0000000
 Leave Link  101 at Sun Nov  7 11:03:52 2021, MaxMem=  7864320000 cpu:               3.3 elap:               0.1
 (Enter /apps/gaussian/g16-c01-avx/g16/l202.exe)
 Stoichiometry    C42H56N8
 Framework group  C1[X(C42H56N8)]
 Deg. of freedom   312
 Full point group                 C1      NOp   1
 Largest Abelian subgroup         C1      NOp   1
 Largest concise Abelian subgroup C1      NOp   1
                         Standard orientation:                         
 ---------------------------------------------------------------------
 Center     Atomic      Atomic             Coordinates (Angstroms)
 Number     Number       Type             X           Y           Z
 ---------------------------------------------------------------------
      1          6           0        1.850040    1.154403   -1.930407
      2          6           0        2.751299    2.146725   -1.368995
      3          6           0        0.663136    1.522196   -2.563079
      4          6           0       -0.233611    0.555370   -2.995045
      5          1           0        0.449819    2.571043   -2.699353
      6          6           0        0.035609   -0.784404   -2.757720
      7          6           0        1.218443   -1.169613   -2.128508
      8          1           0       -0.682049   -1.524949   -3.077385
      9          6           0        2.132742   -0.194276   -1.743991
     10          6           0        1.448200   -2.563211   -1.776955
     11          1           0        3.045528   -0.510249   -1.264189
     12          6           0       -1.518658    0.990203   -3.662143
     13          1           0        0.552673   -3.206017   -1.785907
     14          1           0        3.692414    1.744827   -0.963119
     15          6           0        1.218165    1.169815    2.128516
     16          6           0        1.447609    2.563473    1.776882
     17          6           0        2.132655    0.194691    1.743876
     18          6           0        1.850184   -1.154052    1.930306
     19          1           0        3.045388    0.510753    1.264128
     20          6           0        0.663391   -1.522173    2.563040
     21          6           0       -0.233471   -0.555514    2.994959
     22          1           0        0.450233   -2.571030    2.699318
     23          6           0        0.035433    0.784311    2.757775
     24          6           0       -1.518471   -0.990520    3.662203
     25          1           0       -0.682394    1.524741    3.077435
     26          6           0        2.751726   -2.146168    1.368902
     27          1           0        3.692633   -1.744113    0.962971
     28          6           0        2.702833    4.325049    0.912894
     29          6           0        3.322787    4.210093   -0.503218
     30          7           0        2.578429    2.997392    1.426078
     31          7           0        2.458033    3.371046   -1.274739
     32          6           0       -3.436822   -0.159419   -3.066633
     33          6           0       -3.650815    1.339618   -2.794138
     34          7           0       -2.354662   -0.161579   -4.040028
     35          7           0       -2.296201    1.868684   -2.755693
     36          6           0        2.703775   -4.324576   -0.912840
     37          6           0        3.323659   -4.209488    0.503195
     38          7           0        2.579050   -2.996913   -1.425968
     39          7           0        2.458696   -3.370590    1.274740
     40          6           0       -3.650524   -1.340334    2.794076
     41          6           0       -3.436824    0.158812    3.066760
     42          7           0       -2.295870   -1.869135    2.755732
     43          7           0       -2.354698    0.160946    4.040140
     44          1           0        0.551935    3.206086    1.785827
     45          1           0       -1.919490   -1.798167    1.813807
     46          1           0       -1.264889   -1.570151    4.561026
     47          1           0       -2.735229    0.025159    4.971285
     48          1           0       -1.919805    1.797709   -1.813737
     49          1           0       -2.735236   -0.025933   -4.971274
     50          1           0       -1.265154    1.569786   -4.561102
     51          6           0       -4.747827    0.819612    3.439606
     52          6           0       -4.538997    1.528838   -1.581858
     53          6           0        3.620899    5.178329    1.788138
     54          6           0        3.450905   -5.600709    1.115020
     55          1           0        1.717793    4.818654    0.822556
     56          6           0        3.449689    5.601373   -1.114935
     57          1           0        4.322740    3.755801   -0.383258
     58          6           0        4.336453    6.481321   -0.239307
     59          1           0        2.453540    6.036521   -1.208221
     60          1           0        3.873233    5.513739   -2.117354
     61          6           0        3.782982    6.568117    1.180603
     62          1           0        4.405839    7.481468   -0.671741
     63          1           0        5.343790    6.059350   -0.208542
     64          1           0        2.810942    7.066711    1.159338
     65          1           0        4.451860    7.164915    1.804279
     66          1           0        4.589850    4.683210    1.870719
     67          1           0        3.192718    5.249450    2.790519
     68          1           0       -4.140789    1.788277   -3.671693
     69          6           0       -5.878324    0.847485   -1.881872
     70          1           0       -4.692167    2.588745   -1.371848
     71          1           0       -4.068197    1.071333   -0.707325
     72          6           0       -5.712752   -0.626540   -2.264951
     73          1           0       -6.362902    1.378102   -2.704727
     74          1           0       -6.531701    0.920853   -1.010159
     75          6           0       -4.747782   -0.820520   -3.439523
     76          1           0       -6.689435   -1.041662   -2.521236
     77          1           0       -5.332683   -1.181375   -1.404344
     78          1           0       -5.154066   -0.354965   -4.341125
     79          1           0       -4.605588   -1.883724   -3.639532
     80          1           0       -3.040811   -0.627615   -2.152960
     81          1           0       -3.040840    0.627087    2.153088
     82          6           0       -5.712759    0.625646    2.264928
     83          1           0       -4.605803    1.882943    3.639599
     84          1           0       -5.154083    0.353996    4.341035
     85          6           0       -5.878145   -0.848415    1.881844
     86          1           0       -5.332740    1.180508    1.404369
     87          1           0       -6.689509    1.040640    2.521201
     88          6           0       -4.538714   -1.529630    1.581749
     89          1           0       -6.531438   -0.921879    1.010001
     90          1           0       -6.362662   -1.379119    2.704652
     91          1           0       -4.691707   -2.589441    1.371756
     92          1           0       -4.067959   -1.071933    0.707349
     93          1           0       -4.140513   -1.789075    3.671602
     94          1           0        4.323547   -3.755016    0.383256
     95          6           0        3.621971   -5.177582   -1.788134
     96          1           0        1.718755   -4.818318   -0.822523
     97          6           0        3.784352   -6.567369   -1.180640
     98          1           0        4.590843   -4.682231   -1.870659
     99          1           0        3.193852   -5.248764   -2.790492
    100          6           0        4.337735   -6.480500    0.239361
    101          1           0        4.453317   -7.164038   -1.804254
    102          1           0        2.812437   -7.066219   -1.159283
    103          1           0        5.345068   -6.058233    0.208576
    104          1           0        4.407416   -7.480648    0.671823
    105          1           0        2.454777   -6.036193    1.208203
    106          1           0        3.874392   -5.513097    2.117345
 ---------------------------------------------------------------------
 Rotational constants (GHZ):           0.0512411           0.0472639           0.0373036
 Leave Link  202 at Sun Nov  7 11:03:52 2021, MaxMem=  7864320000 cpu:               0.6 elap:               0.0
 (Enter /apps/gaussian/g16-c01-avx/g16/l301.exe)
 Standard basis: Aug-CC-pVDZ (5D, 7F)
 Ernie: Thresh=  0.10000D-02 Tol=  0.10000D-05 Strict=F.
 Ernie:  100 primitive shells out of 1642 were deleted.
 There are  1754 symmetry adapted cartesian basis functions of A   symmetry.
 There are  1654 symmetry adapted basis functions of A   symmetry.
  1654 basis functions,  2766 primitive gaussians,  1754 cartesian basis functions
   182 alpha electrons      182 beta electrons
       nuclear repulsion energy      6739.3961331385 Hartrees.
 IExCor=    0 DFT=F Ex=HF Corr=None ExCW=0 ScaHFX=  1.000000
 ScaDFX=  1.000000  1.000000  1.000000  1.000000 ScalE2=  1.000000  1.000000
 IRadAn=      7 IRanWt=     -1 IRanGd=            0 ICorTp=0 IEmpDi=  4
 NAtoms=  106 NActive=  106 NUniq=  106 SFac= 1.00D+00 NAtFMM=   60 NAOKFM=T Big=T
 Integral buffers will be    131072 words long.
 Raffenetti 1 integral format.
 Two-electron integral symmetry is turned on.
 ------------------------------------------------------------------------------
 Polarizable Continuum Model (PCM)
 =================================
 Model                : PCM.
 Atomic radii         : UFF (Universal Force Field).
 Polarization charges : Total charges.
 Charge compensation  : None.
 Solution method      : On-the-fly selection.
 Cavity type          : Scaled VdW (van der Waals Surface) (Alpha=1.100).
 Cavity algorithm     : GePol (No added spheres)
                        Default sphere list used, NSphG=  106.
                        Lebedev-Laikov grids with approx.  5.0 points / Ang**2.
                        Smoothing algorithm: York/Karplus (Gamma=1.0000).
                        Polarization charges: spherical gaussians, with
                                              point-specific exponents (IZeta= 3).
                        Self-potential: point-specific (ISelfS= 7).
                        Self-field    : sphere-specific E.n sum rule (ISelfD= 2).
 Solvent              : Chloroform, Eps=   4.711300 Eps(inf)=   2.090627
 ------------------------------------------------------------------------------
 GePol: Number of generator spheres                  =     106
 GePol: Total number of spheres                      =     106
 GePol: Number of exposed spheres                    =     106 (100.00%)
 GePol: Number of points                             =    6023
 GePol: Average weight of points                     =       0.13
 GePol: Minimum weight of points                     =   0.11D-11
 GePol: Maximum weight of points                     =    0.20577
 GePol: Number of points with low weight             =     509
 GePol: Fraction of low-weight points (<1% of avg)   =       8.45%
 GePol: Cavity surface area                          =    767.546 Ang**2
 GePol: Cavity volume                                =    952.752 Ang**3
 Leave Link  301 at Sun Nov  7 11:03:52 2021, MaxMem=  7864320000 cpu:               1.8 elap:               0.1
 (Enter /apps/gaussian/g16-c01-avx/g16/l302.exe)
 NPDir=0 NMtPBC=     1 NCelOv=     1 NCel=       1 NClECP=     1 NCelD=      1
         NCelK=      1 NCelE2=     1 NClLst=     1 CellRange=     0.0.
 One-electron integrals computed using PRISM.
 One-electron integral symmetry used in STVInt
 NBasis=  1654 RedAO= T EigKep=  1.06D-06  NBF=  1654
 NBsUse=  1642 1.00D-06 EigRej=  9.81D-07 NBFU=  1642
 Leave Link  302 at Sun Nov  7 11:04:02 2021, MaxMem=  7864320000 cpu:             304.2 elap:               9.6
 (Enter /apps/gaussian/g16-c01-avx/g16/l303.exe)
 DipDrv:  MaxL=1.
 Leave Link  303 at Sun Nov  7 11:04:03 2021, MaxMem=  7864320000 cpu:              25.6 elap:               1.0
 (Enter /apps/gaussian/g16-c01-avx/g16/l401.exe)
 ExpMin= 2.97D-02 ExpMax= 9.05D+03 ExpMxC= 3.09D+02 IAcc=3 IRadAn=         7 AccDes= 0.00D+00
 Harris functional with IExCor=  205 and IRadAn=       7 diagonalized for initial guess.
 HarFok:  IExCor=  205 AccDes= 0.00D+00 IRadAn=         7 IDoV= 1 UseB2=F ITyADJ=14
 ICtDFT=  3500011 ScaDFX=  1.000000  1.000000  1.000000  1.000000
 FoFCou: FMM=F IPFlag=           0 FMFlag=      100000 FMFlg1=        2001
         NFxFlg=           0 DoJE=T BraDBF=F KetDBF=T FulRan=T
         wScrn=  0.000000 ICntrl=       500 IOpCl=  0 I1Cent=   200000004 NGrid=           0
         NMat0=    1 NMatS0=      1 NMatT0=    0 NMatD0=    1 NMtDS0=    0 NMtDT0=    0
 Petite list used in FoFCou.
 Harris En= -2062.09641290687    
 JPrj=0 DoOrth=F DoCkMO=F.
 Leave Link  401 at Sun Nov  7 11:04:43 2021, MaxMem=  7864320000 cpu:            1256.1 elap:              39.6
 (Enter /apps/gaussian/g16-c01-avx/g16/l508.exe)
 Integral symmetry usage will be decided dynamically.
 Tight linear equation convergence will be used.
 RHF wavefunction.
 Linear searches until partial convergence.
 Full line searches.
 Fock matrices will be formed incrementally for  20 cycles.
 Inv3:  Mode=1 IEnd=   108829587.
 Iteration    1 A*A^-1 deviation from unit magnitude is 1.01D-14 for   6021.
 Iteration    1 A*A^-1 deviation from orthogonality  is 3.11D-15 for   5998   4884.
 Iteration    1 A^-1*A deviation from unit magnitude is 1.01D-14 for   6021.
 Iteration    1 A^-1*A deviation from orthogonality  is 5.24D-15 for   5999   4893.
 FoFJK:  IHMeth= 1 ICntrl=       0 DoSepK=F KAlg= 0 I1Cent=           0 FoldK=F
 IRaf= 990000000 NMat=       1 IRICut=       1 DoRegI=T DoRafI=F ISym2E= 1 IDoP0=0 IntGTp=1.
 Iteration   1 EE= -2056.96192861157                                    Grad=2.193D+00 Max rot=    2.4424 deg.
 Gradient too large for Newton-Raphson -- use scaled steepest descent instead.
 Alpha Gap=     0.456 HL deriv= 1.53D-03
     ILin= 1 X=0.000D+00 Y=-2.056961928612D+03 DE= 0.00D+00 F= -5.88D+00
 RMSU=  7.51D-03    CP:  7.76D-01
     ILin= 2 X=3.000D-01 Y=-2.058288272642D+03 DE=-1.33D+00 F= -2.96D+00 OKLS=F
 RMSU=  1.72D-03    CP:  6.58D-01  1.55D+00
     ILin= 3 X=5.000D-01 Y=-2.058682754666D+03 DE=-1.72D+00 F= -9.87D-01
 RMSU=  4.12D-03    CP:  4.98D-01  2.37D+00  3.00D+00
     ILin= 4 X=9.000D-01 Y=-2.058288865820D+03 DE=-1.33D+00 F=  2.95D+00
     An  expanding polynomial of degree  4 produced  0.6004
 RMSU=  3.89D-06    CP:  6.08D-01  1.79D+00  1.80D+00  1.01D-05
 Iteration   2 EE= -2058.73205273422     Delta-E=       -1.770124122651 Grad=7.471D-01 Max rot=    0.7645 deg.
 Gradient too large for Newton-Raphson -- use scaled steepest descent instead.
 Alpha Gap=     0.474 HL deriv= 8.27D-04
     ILin= 1 X=0.000D+00 Y=-2.058732052734D+03 DE= 0.00D+00 F= -3.30D-01
 RMSU=  2.36D-03    CP:  5.40D-01  1.99D+00  3.00D+00  8.35D-03  3.00D+00
     ILin= 2 X=4.000D-01 Y=-2.058830873916D+03 DE=-9.88D-02 F= -1.65D-01 OKLS=F
 RMSU=  4.32D-04    CP:  4.85D-01  2.17D+00  3.00D+00  6.10D-01  3.00D+00
                    CP:  1.91D+00
     ILin= 3 X=8.000D-01 Y=-2.058863810910D+03 DE=-1.32D-01 F= -2.05D-04
 RMSU=  2.22D-03    CP:  4.08D-01  2.46D+00  3.00D+00  2.30D+00  3.00D+00
                    CP:  3.00D+00  3.00D+00
     ILin= 4 X=1.700D+00 Y=-2.058698563877D+03 DE= 3.35D-02 F=  3.67D-01
     An  expanding polynomial of degree  4 produced  0.8006
     Minimum is close to point  3 DX=  5.71D-04 DF= -6.68D-08 DXR=  7.13D-04 DFR=  5.07D-07 which will be used.
 Iteration   3 EE= -2058.86381090982     Delta-E=       -0.131758175599 Grad=2.176D-01 Max rot=    0.2756 deg.
 Gradient too large for Newton-Raphson -- use scaled steepest descent instead.
 Alpha Gap=     0.463 HL deriv= 8.89D-05
     ILin= 1 X=0.000D+00 Y=-2.058863810910D+03 DE= 0.00D+00 F= -4.90D-02
 RMSU=  1.00D-03    CP:  4.60D-01  2.18D+00  3.00D+00  8.49D-01  3.00D+00
                    CP:  2.11D+00  1.91D+00 -3.46D-04
     ILin= 2 X=7.000D-01 Y=-2.058880547639D+03 DE=-1.67D-02 F=  1.21D-03 OKLS=T
     Accept linear search using points  1 and  2.
     An  expanding polynomial of degree  2 produced  0.6458
     Minimum is close to point  2 DX= -5.42D-02 DF= -4.89D-05 DXR=  8.40D-02 DFR=  2.92D-03 which will be used.
 Iteration   4 EE= -2058.88054763916     Delta-E=       -0.016736729338 Grad=8.381D-02 Max rot=    0.2033 deg.
 Gradient too large for Newton-Raphson -- use scaled steepest descent instead.
 Alpha Gap=     0.469 HL deriv= 1.59D-04
     ILin= 1 X=0.000D+00 Y=-2.058880547639D+03 DE= 0.00D+00 F= -7.38D-03
 RMSU=  3.11D-04    CP:  4.49D-01  2.17D+00  3.00D+00  9.09D-01  3.00D+00
                    CP:  2.28D+00  2.29D+00  6.22D-04  1.27D+00
     ILin= 2 X=7.000D-01 Y=-2.058883403002D+03 DE=-2.86D-03 F= -7.85D-04 OKLS=T
     Reject lnstep IMin12=  1  2 Big=T Turn=F Min= 1.332D+00 FVal=-2.058883939788D+03 Lims=  0.00D+00  7.00D-01
 RMSU=  1.95D-05    CP:  4.39D-01  2.15D+00  3.00D+00  9.71D-01  3.00D+00
                    CP:  2.45D+00  2.72D+00  1.61D-03  1.53D+00  2.00D+00
     ILin= 3 X=1.400D+00 Y=-2.058881651722D+03 DE=-1.10D-03 F=  5.78D-03
     An  expanding polynomial of degree  3 produced  0.7839
 RMSU=  4.61D-10    CP:  4.48D-01  2.17D+00  3.00D+00  9.16D-01  3.00D+00
                    CP:  2.30D+00  2.34D+00  7.39D-04  1.30D+00  1.12D+00
                    CP:  6.71D-02
 Iteration   5 EE= -2058.88343577524     Delta-E=       -0.002888136085 Grad=3.202D-02 Max rot=    0.0897 deg.
 Gradient too large for Newton-Raphson -- use scaled steepest descent instead.
 Alpha Gap=     0.469 HL deriv= 7.80D-05
     ILin= 1 X=0.000D+00 Y=-2.058883435775D+03 DE= 0.00D+00 F= -1.62D-03
 RMSU=  8.05D-05    CP:  4.44D-01  2.16D+00  3.00D+00  9.32D-01  3.00D+00
                    CP:  2.34D+00  2.52D+00  7.88D-04  1.53D+00  1.30D+00
                    CP:  8.39D-03 -3.00D+00
     ILin= 2 X=7.000D-01 Y=-2.058884035296D+03 DE=-6.00D-04 F= -8.97D-05 OKLS=T
     Reject lnstep IMin12=  1  2 Big=T Turn=F Min= 1.298D+00 FVal=-2.058884078067D+03 Lims=  0.00D+00  7.00D-01
 RMSU=  2.98D-06    CP:  4.41D-01  2.15D+00  3.00D+00  9.48D-01  3.00D+00
                    CP:  2.37D+00  2.70D+00  8.41D-04  1.75D+00  1.47D+00
                    CP:  1.26D-01 -3.00D+00  2.00D+00
     ILin= 3 X=1.400D+00 Y=-2.058883561479D+03 DE=-1.26D-04 F=  1.44D-03
     An  expanding polynomial of degree  3 produced  0.7410
     Minimum is close to point  2 DX=  4.10D-02 DF= -1.84D-06 DXR=  5.53D-02 DFR=  3.07D-03 which will be used.
 Iteration   6 EE= -2058.88403529633     Delta-E=       -0.000599521089 Grad=1.403D-02 Max rot=    0.0559 deg.
 Gradient too large for Newton-Raphson -- use scaled steepest descent instead.
 Alpha Gap=     0.470 HL deriv= 4.14D-05
     ILin= 1 X=0.000D+00 Y=-2.058884035296D+03 DE= 0.00D+00 F= -3.26D-04
 RMSU=  2.68D-05    CP:  4.42D-01  2.15D+00  3.00D+00  9.32D-01  3.00D+00
                    CP:  2.37D+00  2.61D+00  1.01D-03  1.61D+00  1.60D+00
                    CP: -7.42D-02 -3.00D+00  1.39D+00 -1.72D+00
     ILin= 2 X=8.000D-01 Y=-2.058884183204D+03 DE=-1.48D-04 F= -4.34D-05 OKLS=T
     Reject lnstep IMin12=  1  2 Big=T Turn=F Min= 1.931D+00 FVal=-2.058884214087D+03 Lims=  0.00D+00  8.00D-01
 RMSU=  6.50D-07    CP:  4.41D-01  2.14D+00  3.00D+00  9.32D-01  3.00D+00
                    CP:  2.39D+00  2.69D+00  1.20D-03  1.68D+00  1.86D+00
                    CP: -8.55D-02 -3.00D+00  1.73D+00 -3.00D+00  1.87D+00
     ILin= 3 X=1.500D+00 Y=-2.058884127034D+03 DE=-9.17D-05 F=  2.04D-04
     An  expanding polynomial of degree  3 produced  0.9230
 RMSU=  2.65D-08    CP:  4.42D-01  2.15D+00  3.00D+00  9.32D-01  3.00D+00
                    CP:  2.37D+00  2.63D+00  1.04D-03  1.62D+00  1.64D+00
                    CP: -8.03D-02 -3.00D+00  1.45D+00 -1.97D+00  1.15D+00
                    CP:  8.95D-02
 Iteration   7 EE= -2058.88418587261     Delta-E=       -0.000150576281 Grad=7.443D-03 Max rot=    0.0318 deg.
 SCF Done:  E(RHF) =  -2058.88418587     a.u. after    7 cycles
            Convg  =    0.7443D-02                    17 Fock formations.
              S**2 =  0.0000                  -V/T =  2.0002
 Leave Link  508 at Sun Nov  7 12:57:38 2021, MaxMem=  7864320000 cpu:          214522.4 elap:            6774.4
 (Enter /apps/gaussian/g16-c01-avx/g16/l502.exe)
 Integral symmetry usage will be decided dynamically.
 Closed shell SCF:
 Using DIIS extrapolation, IDIIS=  1040.
 NGot=  7864320000 LenX=  7858092042 LenY=  7855013772
 Requested convergence on RMS density matrix=1.00D-08 within 128 cycles.
 Requested convergence on MAX density matrix=1.00D-06.
 Requested convergence on             energy=1.00D-06.
 No special actions if energy rises.
 Fock matrices will be formed incrementally for  20 cycles.

 Cycle   1  Pass 1  IDiag  1:
 FoFJK:  IHMeth= 1 ICntrl=       0 DoSepK=F KAlg= 0 I1Cent=           0 FoldK=F
 IRaf= 990000000 NMat=       1 IRICut=       1 DoRegI=T DoRafI=F ISym2E= 0 IDoP0=0 IntGTp=1.
 FoFCou: FMM=T IPFlag=           0 FMFlag=      100000 FMFlg1=        2001
         NFxFlg=           0 DoJE=F BraDBF=F KetDBF=F FulRan=T
         wScrn=  0.000000 ICntrl=         0 IOpCl=  0 I1Cent=           0 NGrid=           0
         NMat0=    1 NMatS0=      1 NMatT0=    0 NMatD0=    1 NMtDS0=    0 NMtDT0=    0
 Symmetry not used in FoFCou.
 FMM levels:  10  Number of levels for PrismC:   9
 E= -2058.88418586142    
 DIIS: error= 8.32D-05 at cycle   1 NSaved=   1.
 NSaved= 1 IEnMin= 1 EnMin= -2058.88418586142     IErMin= 1 ErrMin= 8.32D-05
 ErrMax= 8.32D-05  0.00D+00 EMaxC= 1.00D-01 BMatC= 2.77D-05 BMatP= 2.77D-05
 IDIUse=1 WtCom= 1.00D+00 WtEn= 0.00D+00
 Coeff-Com:  0.100D+01
 Coeff:      0.100D+01
 Gap=     0.470 Goal=   None    Shift=    0.000
 RMSDP=1.15D-04 MaxDP=1.33D-02              OVMax= 1.73D-03

 Cycle   2  Pass 1  IDiag  1:
 RMSU=  1.06D-04    CP:  9.99D-01
 E= -2058.88422613740     Delta-E=       -0.000040275985 Rises=F Damp=F
 DIIS: error= 7.01D-05 at cycle   2 NSaved=   2.
 NSaved= 2 IEnMin= 2 EnMin= -2058.88422613740     IErMin= 2 ErrMin= 7.01D-05
 ErrMax= 7.01D-05  0.00D+00 EMaxC= 1.00D-01 BMatC= 9.59D-06 BMatP= 2.77D-05
 IDIUse=1 WtCom= 1.00D+00 WtEn= 0.00D+00
 Coeff-Com:  0.336D+00 0.664D+00
 Coeff:      0.336D+00 0.664D+00
 Gap=     0.348 Goal=   None    Shift=    0.000
 RMSDP=2.41D-05 MaxDP=3.68D-03 DE=-4.03D-05 OVMax= 4.97D-04

 Cycle   3  Pass 1  IDiag  1:
 RMSU=  1.94D-05    CP:  9.98D-01  1.07D+00
 E= -2058.88423781635     Delta-E=       -0.000011678947 Rises=F Damp=F
 DIIS: error= 1.61D-05 at cycle   3 NSaved=   3.
 NSaved= 3 IEnMin= 3 EnMin= -2058.88423781635     IErMin= 3 ErrMin= 1.61D-05
 ErrMax= 1.61D-05  0.00D+00 EMaxC= 1.00D-01 BMatC= 7.70D-07 BMatP= 9.59D-06
 IDIUse=1 WtCom= 1.00D+00 WtEn= 0.00D+00
 Coeff-Com: -0.196D+00-0.143D+00 0.134D+01
 Coeff:     -0.196D+00-0.143D+00 0.134D+01
 Gap=     0.349 Goal=   None    Shift=    0.000
 RMSDP=1.87D-05 MaxDP=1.86D-03 DE=-1.17D-05 OVMax= 7.91D-04

 Cycle   4  Pass 1  IDiag  1:
 RMSU=  1.02D-05    CP:  9.98D-01  1.20D+00  1.28D+00
 E= -2058.88424090240     Delta-E=       -0.000003086049 Rises=F Damp=F
 DIIS: error= 4.85D-06 at cycle   4 NSaved=   4.
 NSaved= 4 IEnMin= 4 EnMin= -2058.88424090240     IErMin= 4 ErrMin= 4.85D-06
 ErrMax= 4.85D-06  0.00D+00 EMaxC= 1.00D-01 BMatC= 1.26D-07 BMatP= 7.70D-07
 IDIUse=1 WtCom= 1.00D+00 WtEn= 0.00D+00
 Coeff-Com: -0.576D-01-0.685D-01 0.255D+00 0.871D+00
 Coeff:     -0.576D-01-0.685D-01 0.255D+00 0.871D+00
 Gap=     0.349 Goal=   None    Shift=    0.000
 RMSDP=3.88D-06 MaxDP=3.48D-04 DE=-3.09D-06 OVMax= 2.36D-04

 Cycle   5  Pass 1  IDiag  1:
 RMSU=  3.01D-06    CP:  9.98D-01  1.20D+00  1.35D+00  1.20D+00
 E= -2058.88424133653     Delta-E=       -0.000000434125 Rises=F Damp=F
 DIIS: error= 3.08D-06 at cycle   5 NSaved=   5.
 NSaved= 5 IEnMin= 5 EnMin= -2058.88424133653     IErMin= 5 ErrMin= 3.08D-06
 ErrMax= 3.08D-06  0.00D+00 EMaxC= 1.00D-01 BMatC= 5.31D-08 BMatP= 1.26D-07
 IDIUse=1 WtCom= 1.00D+00 WtEn= 0.00D+00
 Coeff-Com:  0.842D-01 0.619D-01-0.571D+00 0.791D-01 0.135D+01
 Coeff:      0.842D-01 0.619D-01-0.571D+00 0.791D-01 0.135D+01
 Gap=     0.349 Goal=   None    Shift=    0.000
 RMSDP=4.94D-06 MaxDP=5.50D-04 DE=-4.34D-07 OVMax= 2.91D-04

 Cycle   6  Pass 1  IDiag  1:
 RMSU=  2.69D-06    CP:  9.98D-01  1.19D+00  1.38D+00  1.49D+00  1.63D+00
 E= -2058.88424161503     Delta-E=       -0.000000278504 Rises=F Damp=F
 DIIS: error= 1.12D-06 at cycle   6 NSaved=   6.
 NSaved= 6 IEnMin= 6 EnMin= -2058.88424161503     IErMin= 6 ErrMin= 1.12D-06
 ErrMax= 1.12D-06  0.00D+00 EMaxC= 1.00D-01 BMatC= 5.92D-09 BMatP= 5.31D-08
 IDIUse=1 WtCom= 1.00D+00 WtEn= 0.00D+00
 Coeff-Com: -0.115D-01-0.430D-02 0.104D+00-0.137D+00-0.485D+00 0.153D+01
 Coeff:     -0.115D-01-0.430D-02 0.104D+00-0.137D+00-0.485D+00 0.153D+01
 Gap=     0.349 Goal=   None    Shift=    0.000
 RMSDP=2.25D-06 MaxDP=1.74D-04 DE=-2.79D-07 OVMax= 1.41D-04

 Cycle   7  Pass 1  IDiag  1:
 RMSU=  7.58D-07    CP:  9.98D-01  1.19D+00  1.40D+00  1.58D+00  1.95D+00
                    CP:  1.53D+00
 E= -2058.88424165983     Delta-E=       -0.000000044803 Rises=F Damp=F
 DIIS: error= 3.29D-07 at cycle   7 NSaved=   7.
 NSaved= 7 IEnMin= 7 EnMin= -2058.88424165983     IErMin= 7 ErrMin= 3.29D-07
 ErrMax= 3.29D-07  0.00D+00 EMaxC= 1.00D-01 BMatC= 5.87D-10 BMatP= 5.92D-09
 IDIUse=1 WtCom= 1.00D+00 WtEn= 0.00D+00
 Coeff-Com: -0.123D-01-0.846D-02 0.888D-01-0.278D-01-0.266D+00 0.307D+00
 Coeff-Com:  0.918D+00
 Coeff:     -0.123D-01-0.846D-02 0.888D-01-0.278D-01-0.266D+00 0.307D+00
 Coeff:      0.918D+00
 Gap=     0.349 Goal=   None    Shift=    0.000
 RMSDP=5.16D-07 MaxDP=4.30D-05 DE=-4.48D-08 OVMax= 3.02D-05

 Cycle   8  Pass 1  IDiag  1:
 RMSU=  2.19D-07    CP:  9.98D-01  1.19D+00  1.40D+00  1.60D+00  1.97D+00
                    CP:  1.63D+00  1.27D+00
 E= -2058.88424166224     Delta-E=       -0.000000002403 Rises=F Damp=F
 DIIS: error= 9.74D-08 at cycle   8 NSaved=   8.
 NSaved= 8 IEnMin= 8 EnMin= -2058.88424166224     IErMin= 8 ErrMin= 9.74D-08
 ErrMax= 9.74D-08  0.00D+00 EMaxC= 1.00D-01 BMatC= 7.13D-11 BMatP= 5.87D-10
 IDIUse=1 WtCom= 1.00D+00 WtEn= 0.00D+00
 Coeff-Com:  0.604D-03-0.139D-03-0.689D-02 0.167D-01 0.358D-01-0.168D+00
 Coeff-Com:  0.853D-01 0.104D+01
 Coeff:      0.604D-03-0.139D-03-0.689D-02 0.167D-01 0.358D-01-0.168D+00
 Coeff:      0.853D-01 0.104D+01
 Gap=     0.349 Goal=   None    Shift=    0.000
 RMSDP=1.91D-07 MaxDP=1.55D-05 DE=-2.40D-09 OVMax= 7.58D-06

 Cycle   9  Pass 1  IDiag  1:
 RMSU=  8.95D-08    CP:  9.98D-01  1.19D+00  1.40D+00  1.61D+00  1.97D+00
                    CP:  1.64D+00  1.40D+00  1.27D+00
 E= -2058.88424166235     Delta-E=       -0.000000000116 Rises=F Damp=F
 DIIS: error= 4.06D-08 at cycle   9 NSaved=   9.
 NSaved= 9 IEnMin= 9 EnMin= -2058.88424166235     IErMin= 9 ErrMin= 4.06D-08
 ErrMax= 4.06D-08  0.00D+00 EMaxC= 1.00D-01 BMatC= 8.06D-12 BMatP= 7.13D-11
 IDIUse=1 WtCom= 1.00D+00 WtEn= 0.00D+00
 Coeff-Com:  0.141D-02 0.914D-03-0.107D-01 0.585D-02 0.311D-01-0.525D-01
 Coeff-Com: -0.801D-01 0.801D-01 0.102D+01
 Coeff:      0.141D-02 0.914D-03-0.107D-01 0.585D-02 0.311D-01-0.525D-01
 Coeff:     -0.801D-01 0.801D-01 0.102D+01
 Gap=     0.349 Goal=   None    Shift=    0.000
 RMSDP=5.12D-08 MaxDP=4.50D-06 DE=-1.16D-10 OVMax= 2.77D-06

 Cycle  10  Pass 1  IDiag  1:
 RMSU=  3.50D-08    CP:  9.98D-01  1.19D+00  1.40D+00  1.61D+00  1.97D+00
                    CP:  1.64D+00  1.42D+00  1.31D+00  1.16D+00
 E= -2058.88424166248     Delta-E=       -0.000000000125 Rises=F Damp=F
 DIIS: error= 2.05D-08 at cycle  10 NSaved=  10.
 NSaved=10 IEnMin=10 EnMin= -2058.88424166248     IErMin=10 ErrMin= 2.05D-08
 ErrMax= 2.05D-08  0.00D+00 EMaxC= 1.00D-01 BMatC= 2.49D-12 BMatP= 8.06D-12
 IDIUse=1 WtCom= 1.00D+00 WtEn= 0.00D+00
 Coeff-Com:  0.132D-03 0.205D-03-0.704D-03-0.129D-02-0.135D-02 0.197D-01
 Coeff-Com: -0.234D-01-0.183D+00 0.216D+00 0.973D+00
 Coeff:      0.132D-03 0.205D-03-0.704D-03-0.129D-02-0.135D-02 0.197D-01
 Coeff:     -0.234D-01-0.183D+00 0.216D+00 0.973D+00
 Gap=     0.349 Goal=   None    Shift=    0.000
 RMSDP=1.78D-08 MaxDP=1.80D-06 DE=-1.25D-10 OVMax= 1.11D-06

 Cycle  11  Pass 1  IDiag  1:
 RMSU=  1.29D-08    CP:  9.98D-01  1.19D+00  1.40D+00  1.61D+00  1.97D+00
                    CP:  1.64D+00  1.42D+00  1.32D+00  1.24D+00  1.21D+00
 E= -2058.88424166248     Delta-E=       -0.000000000009 Rises=F Damp=F
 DIIS: error= 7.73D-09 at cycle  11 NSaved=  11.
 NSaved=11 IEnMin=11 EnMin= -2058.88424166248     IErMin=11 ErrMin= 7.73D-09
 ErrMax= 7.73D-09  0.00D+00 EMaxC= 1.00D-01 BMatC= 3.51D-13 BMatP= 2.49D-12
 IDIUse=1 WtCom= 1.00D+00 WtEn= 0.00D+00
 Coeff-Com: -0.325D-03-0.187D-03 0.248D-02-0.119D-02-0.775D-02 0.128D-01
 Coeff-Com:  0.206D-01-0.307D-01-0.185D+00-0.635D-01 0.125D+01
 Coeff:     -0.325D-03-0.187D-03 0.248D-02-0.119D-02-0.775D-02 0.128D-01
 Coeff:      0.206D-01-0.307D-01-0.185D+00-0.635D-01 0.125D+01
 Gap=     0.349 Goal=   None    Shift=    0.000
 RMSDP=1.45D-08 MaxDP=1.41D-06 DE=-9.09D-12 OVMax= 6.86D-07

 Cycle  12  Pass 1  IDiag  1:
 RMSU=  8.93D-09    CP:  9.98D-01  1.19D+00  1.40D+00  1.61D+00  1.97D+00
                    CP:  1.64D+00  1.42D+00  1.30D+00  1.26D+00  1.36D+00
                    CP:  1.58D+00
 E= -2058.88424166292     Delta-E=       -0.000000000431 Rises=F Damp=F
 DIIS: error= 3.16D-09 at cycle  12 NSaved=  12.
 NSaved=12 IEnMin=12 EnMin= -2058.88424166292     IErMin=12 ErrMin= 3.16D-09
 ErrMax= 3.16D-09  0.00D+00 EMaxC= 1.00D-01 BMatC= 6.46D-14 BMatP= 3.51D-13
 IDIUse=1 WtCom= 1.00D+00 WtEn= 0.00D+00
 Coeff-Com: -0.478D-04-0.459D-04 0.315D-03 0.808D-04-0.592D-03-0.160D-02
 Coeff-Com:  0.536D-02 0.199D-01-0.375D-01-0.170D+00 0.124D+00 0.106D+01
 Coeff:     -0.478D-04-0.459D-04 0.315D-03 0.808D-04-0.592D-03-0.160D-02
 Coeff:      0.536D-02 0.199D-01-0.375D-01-0.170D+00 0.124D+00 0.106D+01
 Gap=     0.349 Goal=   None    Shift=    0.000
 RMSDP=1.12D-08 MaxDP=8.91D-07 DE=-4.31D-10 OVMax= 2.76D-07

 Cycle  13  Pass 1  IDiag  1:
 RMSU=  8.38D-09    CP:  9.98D-01  1.19D+00  1.40D+00  1.61D+00  1.97D+00
                    CP:  1.64D+00  1.42D+00  1.30D+00  1.26D+00  1.36D+00
                    CP:  1.90D+00  1.55D+00
 E= -2058.88424166282     Delta-E=        0.000000000093 Rises=F Damp=F
 DIIS: error= 2.54D-09 at cycle  13 NSaved=  13.
 NSaved=13 IEnMin=12 EnMin= -2058.88424166292     IErMin=13 ErrMin= 2.54D-09
 ErrMax= 2.54D-09  0.00D+00 EMaxC= 1.00D-01 BMatC= 9.61D-15 BMatP= 6.46D-14
 IDIUse=1 WtCom= 1.00D+00 WtEn= 0.00D+00
 Coeff-Com:  0.583D-04 0.297D-04-0.451D-03 0.247D-03 0.147D-02-0.270D-02
 Coeff-Com: -0.320D-02 0.829D-02 0.340D-01-0.106D-01-0.225D+00 0.131D+00
 Coeff-Com:  0.107D+01
 Coeff:      0.583D-04 0.297D-04-0.451D-03 0.247D-03 0.147D-02-0.270D-02
 Coeff:     -0.320D-02 0.829D-02 0.340D-01-0.106D-01-0.225D+00 0.131D+00
 Coeff:      0.107D+01
 Gap=     0.349 Goal=   None    Shift=    0.000
 RMSDP=2.09D-08 MaxDP=1.35D-06 DE= 9.28D-11 OVMax= 9.80D-08

 Cycle  14  Pass 1  IDiag  1:
 RMSU=  1.36D-08    CP:  9.98D-01  1.19D+00  1.40D+00  1.61D+00  1.97D+00
                    CP:  1.64D+00  1.43D+00  1.30D+00  1.27D+00  1.35D+00
                    CP:  2.19D+00  2.70D+00  2.31D+00
 E= -2058.88424166237     Delta-E=        0.000000000457 Rises=F Damp=F
 DIIS: error= 6.94D-09 at cycle  14 NSaved=  14.
 NSaved=14 IEnMin=12 EnMin= -2058.88424166292     IErMin=13 ErrMin= 2.54D-09
 ErrMax= 6.94D-09  0.00D+00 EMaxC= 1.00D-01 BMatC= 3.84D-15 BMatP= 9.61D-15
 IDIUse=1 WtCom= 1.00D+00 WtEn= 0.00D+00
 Coeff-Com:  0.265D-04 0.143D-04-0.201D-03 0.962D-04 0.646D-03-0.105D-02
 Coeff-Com: -0.157D-02 0.250D-02 0.156D-01 0.489D-02-0.101D+00-0.209D-02
 Coeff-Com:  0.452D+00 0.630D+00
 Coeff:      0.265D-04 0.143D-04-0.201D-03 0.962D-04 0.646D-03-0.105D-02
 Coeff:     -0.157D-02 0.250D-02 0.156D-01 0.489D-02-0.101D+00-0.209D-02
 Coeff:      0.452D+00 0.630D+00
 Gap=     0.349 Goal=   None    Shift=    0.000
 RMSDP=1.75D-08 MaxDP=1.08D-06 DE= 4.57D-10 OVMax= 1.88D-08

 Cycle  15  Pass 1  IDiag  1:
 RMSU=  7.89D-09    CP:  9.98D-01  1.19D+00  1.40D+00  1.61D+00  1.97D+00
                    CP:  1.64D+00  1.43D+00  1.30D+00  1.27D+00  1.36D+00
                    CP:  2.41D+00  3.00D+00  3.00D+00  1.78D+00
 E= -2058.88424166249     Delta-E=       -0.000000000126 Rises=F Damp=F
 DIIS: error= 7.64D-09 at cycle  15 NSaved=  15.
 NSaved=15 IEnMin=12 EnMin= -2058.88424166292     IErMin=13 ErrMin= 2.54D-09
 ErrMax= 7.64D-09  0.00D+00 EMaxC= 1.00D-01 BMatC= 4.72D-15 BMatP= 3.84D-15
 IDIUse=1 WtCom= 1.00D+00 WtEn= 0.00D+00
 Coeff-Com:  0.297D-04 0.163D-04-0.225D-03 0.104D-03 0.716D-03-0.111D-02
 Coeff-Com: -0.180D-02 0.242D-02 0.176D-01 0.790D-02-0.112D+00-0.189D-01
 Coeff-Com:  0.492D+00 0.936D+00-0.323D+00
 Coeff:      0.297D-04 0.163D-04-0.225D-03 0.104D-03 0.716D-03-0.111D-02
 Coeff:     -0.180D-02 0.242D-02 0.176D-01 0.790D-02-0.112D+00-0.189D-01
 Coeff:      0.492D+00 0.936D+00-0.323D+00
 Gap=     0.349 Goal=   None    Shift=    0.000
 RMSDP=1.01D-08 MaxDP=6.84D-07 DE=-1.26D-10 OVMax= 2.07D-09

 Cycle  16  Pass 1  IDiag  1:
 RMSU=  4.11D-09    CP:  9.98D-01  1.19D+00  1.40D+00  1.61D+00  1.97D+00
                    CP:  1.64D+00  1.43D+00  1.30D+00  1.27D+00  1.34D+00
                    CP:  2.29D+00  3.00D+00  3.00D+00  1.28D+00  2.70D-01
 E= -2058.88424166260     Delta-E=       -0.000000000106 Rises=F Damp=F
 DIIS: error= 5.41D-09 at cycle  16 NSaved=  16.
 NSaved=16 IEnMin=12 EnMin= -2058.88424166292     IErMin=13 ErrMin= 2.54D-09
 ErrMax= 5.41D-09  0.00D+00 EMaxC= 1.00D-01 BMatC= 3.74D-15 BMatP= 3.84D-15
 IDIUse=1 WtCom= 1.00D+00 WtEn= 0.00D+00
 Large coefficients: NSaved= 16 BigCof=    0.00 CofMax=   10.00 Det=-2.92D-16
 Inversion failed.  Reducing to 15 matrices.
 Coeff-Com: -0.116D-05-0.285D-05-0.508D-06 0.422D-04 0.361D-05-0.329D-03
 Coeff-Com: -0.518D-03 0.407D-02 0.111D-01-0.354D-01-0.623D-01 0.183D+00
 Coeff-Com:  0.112D+01-0.152D+01 0.130D+01
 Coeff:     -0.116D-05-0.285D-05-0.508D-06 0.422D-04 0.361D-05-0.329D-03
 Coeff:     -0.518D-03 0.407D-02 0.111D-01-0.354D-01-0.623D-01 0.183D+00
 Coeff:      0.112D+01-0.152D+01 0.130D+01
 Gap=     0.349 Goal=   None    Shift=    0.000
 RMSDP=1.51D-08 MaxDP=1.19D-06 DE=-1.06D-10 OVMax= 5.35D-09

 Cycle  17  Pass 1  IDiag  1:
 RMSU=  1.29D-08    CP:  9.98D-01  1.19D+00  1.40D+00  1.61D+00  1.97D+00
                    CP:  1.64D+00  1.43D+00  1.30D+00  1.26D+00  1.32D+00
                    CP:  2.17D+00  2.68D+00  2.78D+00  1.18D+00 -1.45D-01
                    CP:  1.99D+00
 E= -2058.88424166254     Delta-E=        0.000000000060 Rises=F Damp=F
 DIIS: error= 5.88D-09 at cycle  17 NSaved=  16.
 NSaved=16 IEnMin=11 EnMin= -2058.88424166292     IErMin=12 ErrMin= 2.54D-09
 ErrMax= 5.88D-09  0.00D+00 EMaxC= 1.00D-01 BMatC= 2.84D-15 BMatP= 3.74D-15
 IDIUse=1 WtCom= 1.00D+00 WtEn= 0.00D+00
 Large coefficients: NSaved= 16 BigCof=    0.00 CofMax=   10.00 Det=-2.88D-16
 Inversion failed.  Reducing to 15 matrices.
 Coeff-Com:  0.131D-05-0.131D-04 0.722D-05 0.814D-04-0.198D-03-0.780D-03
 Coeff-Com:  0.184D-02 0.938D-02-0.172D-01-0.490D-01 0.817D-01 0.784D+00
 Coeff-Com: -0.171D+01 0.885D+00 0.102D+01
 Coeff:      0.131D-05-0.131D-04 0.722D-05 0.814D-04-0.198D-03-0.780D-03
 Coeff:      0.184D-02 0.938D-02-0.172D-01-0.490D-01 0.817D-01 0.784D+00
 Coeff:     -0.171D+01 0.885D+00 0.102D+01
 Gap=     0.349 Goal=   None    Shift=    0.000
 RMSDP=2.08D-08 MaxDP=1.81D-06 DE= 6.00D-11 OVMax= 6.19D-09

 Cycle  18  Pass 1  IDiag  1:
 RMSU=  1.16D-08    CP:  9.98D-01  1.19D+00  1.40D+00  1.61D+00  1.97D+00
                    CP:  1.64D+00  1.42D+00  1.31D+00  1.26D+00  1.30D+00
                    CP:  2.02D+00  2.10D+00  1.93D+00  9.03D-01 -4.01D-01
                    CP:  3.00D+00  1.97D+00
 E= -2058.88424166263     Delta-E=       -0.000000000089 Rises=F Damp=F
 DIIS: error= 3.38D-09 at cycle  18 NSaved=  16.
 NSaved=16 IEnMin=10 EnMin= -2058.88424166292     IErMin=11 ErrMin= 2.54D-09
 ErrMax= 3.38D-09  0.00D+00 EMaxC= 1.00D-01 BMatC= 1.77D-15 BMatP= 2.84D-15
 IDIUse=1 WtCom= 1.00D+00 WtEn= 0.00D+00
 Large coefficients: NSaved= 16 BigCof=    0.00 CofMax=   10.00 Det=-2.62D-16
 Inversion failed.  Reducing to 15 matrices.
 Coeff-Com: -0.824D-05 0.142D-04 0.533D-04-0.187D-03-0.560D-03 0.204D-02
 Coeff-Com:  0.791D-02-0.190D-01-0.411D-01 0.950D-01 0.600D+00-0.976D+00
 Coeff-Com:  0.426D+00 0.510D-01 0.855D+00
 Coeff:     -0.824D-05 0.142D-04 0.533D-04-0.187D-03-0.560D-03 0.204D-02
 Coeff:      0.791D-02-0.190D-01-0.411D-01 0.950D-01 0.600D+00-0.976D+00
 Coeff:      0.426D+00 0.510D-01 0.855D+00
 Gap=     0.349 Goal=   None    Shift=    0.000
 RMSDP=1.27D-08 MaxDP=1.09D-06 DE=-8.91D-11 OVMax= 4.71D-09

 Cycle  19  Pass 1  IDiag  1:
 RMSU=  7.22D-09    CP:  9.98D-01  1.19D+00  1.40D+00  1.61D+00  1.97D+00
                    CP:  1.64D+00  1.42D+00  1.31D+00  1.27D+00  1.32D+00
                    CP:  1.99D+00  1.96D+00  1.38D+00  7.71D-01 -4.51D-01
                    CP:  3.00D+00  2.17D+00  1.70D+00
 E= -2058.88424166208     Delta-E=        0.000000000545 Rises=F Damp=F
 DIIS: error= 3.67D-09 at cycle  19 NSaved=  16.
 NSaved=16 IEnMin= 9 EnMin= -2058.88424166292     IErMin=10 ErrMin= 2.54D-09
 ErrMax= 3.67D-09  0.00D+00 EMaxC= 1.00D-01 BMatC= 1.72D-15 BMatP= 1.77D-15
 IDIUse=1 WtCom= 1.00D+00 WtEn= 0.00D+00
 Large coefficients: NSaved= 16 BigCof=    0.00 CofMax=   10.00 Det=-2.39D-16
 Inversion failed.  Reducing to 15 matrices.
 Coeff-Com:  0.176D-04-0.463D-05-0.133D-03-0.253D-03 0.160D-02 0.614D-02
 Coeff-Com: -0.156D-01-0.337D-01 0.827D-01 0.478D+00-0.857D+00 0.571D+00
 Coeff-Com: -0.148D+00 0.403D+00 0.513D+00
 Coeff:      0.176D-04-0.463D-05-0.133D-03-0.253D-03 0.160D-02 0.614D-02
 Coeff:     -0.156D-01-0.337D-01 0.827D-01 0.478D+00-0.857D+00 0.571D+00
 Coeff:     -0.148D+00 0.403D+00 0.513D+00
 Gap=     0.349 Goal=   None    Shift=    0.000
 RMSDP=9.33D-09 MaxDP=9.92D-07 DE= 5.45D-10 OVMax= 1.98D-09

 Error on total polarization charges =  0.02393
 SCF Done:  E(RHF) =  -2058.88424166     A.U. after   19 cycles
            NFock= 19  Conv=0.93D-08     -V/T= 2.0002
 KE= 2.058380255193D+03 PE=-1.828120685347D+04 EE= 7.424546223480D+03
 Leave Link  502 at Sun Nov  7 14:25:53 2021, MaxMem=  7864320000 cpu:          167925.0 elap:            5294.3
 (Enter /apps/gaussian/g16-c01-avx/g16/l508.exe)
 QCSCF skips out because SCF is already converged.
 Leave Link  508 at Sun Nov  7 14:25:53 2021, MaxMem=  7864320000 cpu:               0.1 elap:               0.0
 (Enter /apps/gaussian/g16-c01-avx/g16/l801.exe)
 ExpMin= 2.97D-02 ExpMax= 9.05D+03 ExpMxC= 3.09D+02 IAcc=3 IRadAn=         7 AccDes= 0.00D+00
 HarFok:  IExCor=  205 AccDes= 0.00D+00 IRadAn=         7 IDoV=-2 UseB2=F ITyADJ=14
 ICtDFT= 12500011 ScaDFX=  1.000000  1.000000  1.000000  1.000000
 GSVD:  LWork=       -2900 too small for GESVD, short by       13250 words or       13250 for optimal perf.
 Largest valence mixing into a core orbital is  1.24D-04
 Largest core mixing into a valence orbital is  4.54D-05
 Range of M.O.s used for correlation:    51  1642
 NBasis=  1654 NAE=   182 NBE=   182 NFC=    50 NFV=     0
 NROrb=   1592 NOA=   132 NOB=   132 NVA=  1460 NVB=  1460

 **** Warning!!: The largest alpha MO coefficient is  0.14447848D+03

 Leave Link  801 at Sun Nov  7 14:25:54 2021, MaxMem=  7864320000 cpu:              21.0 elap:               0.7
 (Enter /apps/gaussian/g16-c01-avx/g16/l906.exe)
 FulOut=F Deriv=F AODrv=F NAtomX=   106
   MMem=           0  MDisk=         132 MDiskD=         132
  W3Min=   338030880 MinDsk=   307572463 NBas6D=        1754
 NBas2D=     1541421    NTT=     1539135    LW2=     2000000
    MDV=  7849357240 MDiskM=       62138 NBas2p=     1106809
 Disk-based method using OVN memory for132 occupieds at a time.
 Estimated scratch disk usage=647773252138 words.
 IMap=   1   2   3   4   5   6   7   8   9  10  11  12  13  14  15  16  17  18  19  20
 IMap=  21  22  23  24  25  26  27  28  29  30  31  32  33  34  35  36  37  38  39  40
 IMap=  41  42  43  44  45  46  47  48  49  50  51  52  53  54  55  56  57  58  59  60
 IMap=  61  62  63  64  65  66  67  68  69  70  71  72  73  74  75  76  77  78  79  80
 IMap=  81  82  83  84  85  86  87  88  89  90  91  92  93  94  95  96  97  98  99 100
 IMap= 101 102 103 104 105 106 107 108 109 110 111 112 113 114 115 116 117 118 119 120
 IMap= 121 122 123 124 125 126 127 128 129 130 131 132
 Actual    scratch disk usage=639942432616 words.
 JobTyp=1 Pass  1:  I=   1 to 132 NPSUse= 32 ParTrn=T ParDer=T DoDerP=F.
 Spin components of T(2) and E(2):
     alpha-alpha T2 =       0.3530223172D+00 E2=     -0.9596385990D+00
     alpha-beta  T2 =       0.1864621668D+01 E2=     -0.5421328324D+01
     beta-beta   T2 =       0.3530223172D+00 E2=     -0.9596385990D+00
 The integrals were generated   1 times.
 ANorm=    0.1889620677D+01
 E2 =    -0.7340605522D+01 EUMP2 =    -0.20662248471842D+04
 Leave Link  906 at Mon Nov  8 07:05:47 2021, MaxMem=  7864320000 cpu:         1881296.0 elap:           59992.8
 (Enter /apps/gaussian/g16-c01-avx/g16/l601.exe)
 Copying SCF densities to generalized density rwf, IOpCl= 0 IROHF=0.
 Hyperfine terms turned off by default for NAtoms > 100.

 **********************************************************************

            Population analysis using the SCF Density.

 **********************************************************************

 Orbital symmetries:
       Occupied  (A) (A) (A) (A) (A) (A) (A) (A) (A) (A) (A) (A)
                 (A) (A) (A) (A) (A) (A) (A) (A) (A) (A) (A) (A)
                 (A) (A) (A) (A) (A) (A) (A) (A) (A) (A) (A) (A)
                 (A) (A) (A) (A) (A) (A) (A) (A) (A) (A) (A) (A)
                 (A) (A) (A) (A) (A) (A) (A) (A) (A) (A) (A) (A)
                 (A) (A) (A) (A) (A) (A) (A) (A) (A) (A) (A) (A)
                 (A) (A) (A) (A) (A) (A) (A) (A) (A) (A) (A) (A)
                 (A) (A) (A) (A) (A) (A) (A) (A) (A) (A) (A) (A)
                 (A) (A) (A) (A) (A) (A) (A) (A) (A) (A) (A) (A)
                 (A) (A) (A) (A) (A) (A) (A) (A) (A) (A) (A) (A)
                 (A) (A) (A) (A) (A) (A) (A) (A) (A) (A) (A) (A)
                 (A) (A) (A) (A) (A) (A) (A) (A) (A) (A) (A) (A)
                 (A) (A) (A) (A) (A) (A) (A) (A) (A) (A) (A) (A)
                 (A) (A) (A) (A) (A) (A) (A) (A) (A) (A) (A) (A)
                 (A) (A) (A) (A) (A) (A) (A) (A) (A) (A) (A) (A)
                 (A) (A)
       Virtual   (A) (A) (A) (A) (A) (A) (A) (A) (A) (A) (A) (A)
                 (A) (A) (A) (A) (A) (A) (A) (A) (A) (A) (A) (A)
                 (A) (A) (A) (A) (A) (A) (A) (A) (A) (A) (A) (A)
                 (A) (A) (A) (A) (A) (A) (A) (A) (A) (A) (A) (A)
                 (A) (A) (A) (A) (A) (A) (A) (A) (A) (A) (A) (A)
                 (A) (A) (A) (A) (A) (A) (A) (A) (A) (A) (A) (A)
                 (A) (A) (A) (A) (A) (A) (A) (A) (A) (A) (A) (A)
                 (A) (A) (A) (A) (A) (A) (A) (A) (A) (A) (A) (A)
                 (A) (A) (A) (A) (A) (A) (A) (A) (A) (A) (A) (A)
                 (A) (A) (A) (A) (A) (A) (A) (A) (A) (A) (A) (A)
                 (A) (A) (A) (A) (A) (A) (A) (A) (A) (A) (A) (A)
                 (A) (A) (A) (A) (A) (A) (A) (A) (A) (A) (A) (A)
                 (A) (A) (A) (A) (A) (A) (A) (A) (A) (A) (A) (A)
                 (A) (A) (A) (A) (A) (A) (A) (A) (A) (A) (A) (A)
                 (A) (A) (A) (A) (A) (A) (A) (A) (A) (A) (A) (A)
                 (A) (A) (A) (A) (A) (A) (A) (A) (A) (A) (A) (A)
                 (A) (A) (A) (A) (A) (A) (A) (A) (A) (A) (A) (A)
                 (A) (A) (A) (A) (A) (A) (A) (A) (A) (A) (A) (A)
                 (A) (A) (A) (A) (A) (A) (A) (A) (A) (A) (A) (A)
                 (A) (A) (A) (A) (A) (A) (A) (A) (A) (A) (A) (A)
                 (A) (A) (A) (A) (A) (A) (A) (A) (A) (A) (A) (A)
                 (A) (A) (A) (A) (A) (A) (A) (A) (A) (A) (A) (A)
                 (A) (A) (A) (A) (A) (A) (A) (A) (A) (A) (A) (A)
                 (A) (A) (A) (A) (A) (A) (A) (A) (A) (A) (A) (A)
                 (A) (A) (A) (A) (A) (A) (A) (A) (A) (A) (A) (A)
                 (A) (A) (A) (A) (A) (A) (A) (A) (A) (A) (A) (A)
                 (A) (A) (A) (A) (A) (A) (A) (A) (A) (A) (A) (A)
                 (A) (A) (A) (A) (A) (A) (A) (A) (A) (A) (A) (A)
                 (A) (A) (A) (A) (A) (A) (A) (A) (A) (A) (A) (A)
                 (A) (A) (A) (A) (A) (A) (A) (A) (A) (A) (A) (A)
                 (A) (A) (A) (A) (A) (A) (A) (A) (A) (A) (A) (A)
                 (A) (A) (A) (A) (A) (A) (A) (A) (A) (A) (A) (A)
                 (A) (A) (A) (A) (A) (A) (A) (A) (A) (A) (A) (A)
                 (A) (A) (A) (A) (A) (A) (A) (A) (A) (A) (A) (A)
                 (A) (A) (A) (A) (A) (A) (A) (A) (A) (A) (A) (A)
                 (A) (A) (A) (A) (A) (A) (A) (A) (A) (A) (A) (A)
                 (A) (A) (A) (A) (A) (A) (A) (A) (A) (A) (A) (A)
                 (A) (A) (A) (A) (A) (A) (A) (A) (A) (A) (A) (A)
                 (A) (A) (A) (A) (A) (A) (A) (A) (A) (A) (A) (A)
                 (A) (A) (A) (A) (A) (A) (A) (A) (A) (A) (A) (A)
                 (A) (A) (A) (A) (A) (A) (A) (A) (A) (A) (A) (A)
                 (A) (A) (A) (A) (A) (A) (A) (A) (A) (A) (A) (A)
                 (A) (A) (A) (A) (A) (A) (A) (A) (A) (A) (A) (A)
                 (A) (A) (A) (A) (A) (A) (A) (A) (A) (A) (A) (A)
                 (A) (A) (A) (A) (A) (A) (A) (A) (A) (A) (A) (A)
                 (A) (A) (A) (A) (A) (A) (A) (A) (A) (A) (A) (A)
                 (A) (A) (A) (A) (A) (A) (A) (A) (A) (A) (A) (A)
                 (A) (A) (A) (A) (A) (A) (A) (A) (A) (A) (A) (A)
                 (A) (A) (A) (A) (A) (A) (A) (A) (A) (A) (A) (A)
                 (A) (A) (A) (A) (A) (A) (A) (A) (A) (A) (A) (A)
                 (A) (A) (A) (A) (A) (A) (A) (A) (A) (A) (A) (A)
                 (A) (A) (A) (A) (A) (A) (A) (A) (A) (A) (A) (A)
                 (A) (A) (A) (A) (A) (A) (A) (A) (A) (A) (A) (A)
                 (A) (A) (A) (A) (A) (A) (A) (A) (A) (A) (A) (A)
                 (A) (A) (A) (A) (A) (A) (A) (A) (A) (A) (A) (A)
                 (A) (A) (A) (A) (A) (A) (A) (A) (A) (A) (A) (A)
                 (A) (A) (A) (A) (A) (A) (A) (A) (A) (A) (A) (A)
                 (A) (A) (A) (A) (A) (A) (A) (A) (A) (A) (A) (A)
                 (A) (A) (A) (A) (A) (A) (A) (A) (A) (A) (A) (A)
                 (A) (A) (A) (A) (A) (A) (A) (A) (A) (A) (A) (A)
                 (A) (A) (A) (A) (A) (A) (A) (A) (A) (A) (A) (A)
                 (A) (A) (A) (A) (A) (A) (A) (A) (A) (A) (A) (A)
                 (A) (A) (A) (A) (A) (A) (A) (A) (A) (A) (A) (A)
                 (A) (A) (A) (A) (A) (A) (A) (A) (A) (A) (A) (A)
                 (A) (A) (A) (A) (A) (A) (A) (A) (A) (A) (A) (A)
                 (A) (A) (A) (A) (A) (A) (A) (A) (A) (A) (A) (A)
                 (A) (A) (A) (A) (A) (A) (A) (A) (A) (A) (A) (A)
                 (A) (A) (A) (A) (A) (A) (A) (A) (A) (A) (A) (A)
                 (A) (A) (A) (A) (A) (A) (A) (A) (A) (A) (A) (A)
                 (A) (A) (A) (A) (A) (A) (A) (A) (A) (A) (A) (A)
                 (A) (A) (A) (A) (A) (A) (A) (A) (A) (A) (A) (A)
                 (A) (A) (A) (A) (A) (A) (A) (A) (A) (A) (A) (A)
                 (A) (A) (A) (A) (A) (A) (A) (A) (A) (A) (A) (A)
                 (A) (A) (A) (A) (A) (A) (A) (A) (A) (A) (A) (A)
                 (A) (A) (A) (A) (A) (A) (A) (A) (A) (A) (A) (A)
                 (A) (A) (A) (A) (A) (A) (A) (A) (A) (A) (A) (A)
                 (A) (A) (A) (A) (A) (A) (A) (A) (A) (A) (A) (A)
                 (A) (A) (A) (A) (A) (A) (A) (A) (A) (A) (A) (A)
                 (A) (A) (A) (A) (A) (A) (A) (A) (A) (A) (A) (A)
                 (A) (A) (A) (A) (A) (A) (A) (A) (A) (A) (A) (A)
                 (A) (A) (A) (A) (A) (A) (A) (A) (A) (A) (A) (A)
                 (A) (A) (A) (A) (A) (A) (A) (A) (A) (A) (A) (A)
                 (A) (A) (A) (A) (A) (A) (A) (A) (A) (A) (A) (A)
                 (A) (A) (A) (A) (A) (A) (A) (A) (A) (A) (A) (A)
                 (A) (A) (A) (A) (A) (A) (A) (A) (A) (A) (A) (A)
                 (A) (A) (A) (A) (A) (A) (A) (A) (A) (A) (A) (A)
                 (A) (A) (A) (A) (A) (A) (A) (A) (A) (A) (A) (A)
                 (A) (A) (A) (A) (A) (A) (A) (A) (A) (A) (A) (A)
                 (A) (A) (A) (A) (A) (A) (A) (A) (A) (A) (A) (A)
                 (A) (A) (A) (A) (A) (A) (A) (A) (A) (A) (A) (A)
                 (A) (A) (A) (A) (A) (A) (A) (A) (A) (A) (A) (A)
                 (A) (A) (A) (A) (A) (A) (A) (A) (A) (A) (A) (A)
                 (A) (A) (A) (A) (A) (A) (A) (A) (A) (A) (A) (A)
                 (A) (A) (A) (A) (A) (A) (A) (A) (A) (A) (A) (A)
                 (A) (A) (A) (A) (A) (A) (A) (A) (A) (A) (A) (A)
                 (A) (A) (A) (A) (A) (A) (A) (A) (A) (A) (A) (A)
                 (A) (A) (A) (A) (A) (A) (A) (A) (A) (A) (A) (A)
                 (A) (A) (A) (A) (A) (A) (A) (A) (A) (A) (A) (A)
                 (A) (A) (A) (A) (A) (A) (A) (A) (A) (A) (A) (A)
                 (A) (A) (A) (A) (A) (A) (A) (A) (A) (A) (A) (A)
                 (A) (A) (A) (A) (A) (A) (A) (A) (A) (A) (A) (A)
                 (A) (A) (A) (A) (A) (A) (A) (A) (A) (A) (A) (A)
                 (A) (A) (A) (A) (A) (A) (A) (A) (A) (A) (A) (A)
                 (A) (A) (A) (A) (A) (A) (A) (A) (A) (A) (A) (A)
                 (A) (A) (A) (A) (A) (A) (A) (A) (A) (A) (A) (A)
                 (A) (A) (A) (A) (A) (A) (A) (A) (A) (A) (A) (A)
                 (A) (A) (A) (A) (A) (A) (A) (A) (A) (A) (A) (A)
                 (A) (A) (A) (A) (A) (A) (A) (A) (A) (A) (A) (A)
                 (A) (A) (A) (A) (A) (A) (A) (A) (A) (A) (A) (A)
                 (A) (A) (A) (A) (A) (A) (A) (A) (A) (A) (A) (A)
                 (A) (A) (A) (A) (A) (A) (A) (A) (A) (A) (A) (A)
                 (A) (A) (A) (A) (A) (A) (A) (A) (A) (A) (A) (A)
                 (A) (A) (A) (A) (A) (A) (A) (A) (A) (A) (A) (A)
                 (A) (A) (A) (A) (A) (A) (A) (A) (A) (A) (A) (A)
                 (A) (A) (A) (A) (A) (A) (A) (A) (A) (A) (A) (A)
                 (A) (A) (A) (A) (A) (A) (A) (A) (A) (A) (A) (A)
                 (A) (A) (A) (A) (A) (A) (A) (A) (A) (A) (A) (A)
                 (A) (A) (A) (A) (A) (A) (A) (A) (A) (A) (A) (A)
                 (A) (A) (A) (A) (A) (A) (A) (A) (A) (A) (A) (A)
                 (A) (A) (A) (A) (A) (A) (A) (A) (A) (A) (A) (A)
                 (A) (A) (A) (A) (A) (A) (A) (A) (A) (A) (A) (A)
                 (A) (A) (A) (A) (A) (A) (A) (A)
 The electronic state is 1-A.
 Alpha  occ. eigenvalues --  -15.55692 -15.55691 -15.55424 -15.55424 -15.55199
 Alpha  occ. eigenvalues --  -15.55198 -15.55076 -15.55074 -11.29172 -11.29171
 Alpha  occ. eigenvalues --  -11.28289 -11.28289 -11.28052 -11.28052 -11.25379
 Alpha  occ. eigenvalues --  -11.25378 -11.25177 -11.25177 -11.24983 -11.24983
 Alpha  occ. eigenvalues --  -11.24871 -11.24871 -11.24518 -11.24518 -11.24484
 Alpha  occ. eigenvalues --  -11.24484 -11.24333 -11.24332 -11.24232 -11.24232
 Alpha  occ. eigenvalues --  -11.24096 -11.24095 -11.24020 -11.24019 -11.22522
 Alpha  occ. eigenvalues --  -11.22521 -11.22500 -11.22500 -11.22462 -11.22462
 Alpha  occ. eigenvalues --  -11.22418 -11.22418 -11.21885 -11.21885 -11.21830
 Alpha  occ. eigenvalues --  -11.21829 -11.21771 -11.21769 -11.21611 -11.21611
 Alpha  occ. eigenvalues --   -1.27953  -1.27947  -1.26371  -1.26210  -1.23219
 Alpha  occ. eigenvalues --   -1.22793  -1.17180  -1.16351  -1.14963  -1.14961
 Alpha  occ. eigenvalues --   -1.11587  -1.11516  -1.11186  -1.10603  -1.05433
 Alpha  occ. eigenvalues --   -1.05270  -1.05137  -1.04964  -1.00412  -1.00151
 Alpha  occ. eigenvalues --   -1.00146  -0.99870  -0.99734  -0.98513  -0.97864
 Alpha  occ. eigenvalues --   -0.97826  -0.89694  -0.89189  -0.88231  -0.87985
 Alpha  occ. eigenvalues --   -0.87392  -0.86188  -0.83125  -0.83064  -0.82622
 Alpha  occ. eigenvalues --   -0.82069  -0.82024  -0.81756  -0.81384  -0.80586
 Alpha  occ. eigenvalues --   -0.78333  -0.77947  -0.77096  -0.76753  -0.76135
 Alpha  occ. eigenvalues --   -0.75709  -0.74599  -0.73835  -0.70304  -0.69887
 Alpha  occ. eigenvalues --   -0.68975  -0.68689  -0.67229  -0.66965  -0.66643
 Alpha  occ. eigenvalues --   -0.66289  -0.65782  -0.64988  -0.64147  -0.64110
 Alpha  occ. eigenvalues --   -0.63310  -0.63299  -0.63089  -0.62655  -0.62384
 Alpha  occ. eigenvalues --   -0.62135  -0.61542  -0.60690  -0.60620  -0.60053
 Alpha  occ. eigenvalues --   -0.59546  -0.59538  -0.59078  -0.59020  -0.58589
 Alpha  occ. eigenvalues --   -0.58437  -0.57503  -0.57366  -0.55987  -0.55768
 Alpha  occ. eigenvalues --   -0.55458  -0.55389  -0.54985  -0.54929  -0.54310
 Alpha  occ. eigenvalues --   -0.54210  -0.53663  -0.53421  -0.52579  -0.52541
 Alpha  occ. eigenvalues --   -0.51986  -0.51250  -0.50977  -0.50604  -0.50329
 Alpha  occ. eigenvalues --   -0.50083  -0.49296  -0.49273  -0.49053  -0.49050
 Alpha  occ. eigenvalues --   -0.48752  -0.48388  -0.48000  -0.47913  -0.47103
 Alpha  occ. eigenvalues --   -0.46893  -0.46880  -0.46447  -0.46112  -0.46087
 Alpha  occ. eigenvalues --   -0.45545  -0.45354  -0.45177  -0.45094  -0.44969
 Alpha  occ. eigenvalues --   -0.44942  -0.43313  -0.42288  -0.41187  -0.40683
 Alpha  occ. eigenvalues --   -0.40404  -0.40188  -0.39522  -0.39426  -0.37972
 Alpha  occ. eigenvalues --   -0.37942  -0.37344  -0.37342  -0.33119  -0.31958
 Alpha  occ. eigenvalues --   -0.31779  -0.31672
 Alpha virt. eigenvalues --    0.03183   0.03497   0.03545   0.03617   0.03970
 Alpha virt. eigenvalues --    0.04051   0.04276   0.04349   0.04461   0.04892
 Alpha virt. eigenvalues --    0.04964   0.05219   0.05232   0.05482   0.05696
 Alpha virt. eigenvalues --    0.05997   0.06192   0.06256   0.06594   0.06717
 Alpha virt. eigenvalues --    0.06731   0.06795   0.07070   0.07198   0.07485
 Alpha virt. eigenvalues --    0.07493   0.07612   0.07616   0.08285   0.08356
 Alpha virt. eigenvalues --    0.08473   0.08631   0.08879   0.09010   0.09097
 Alpha virt. eigenvalues --    0.09235   0.09280   0.09706   0.09838   0.09880
 Alpha virt. eigenvalues --    0.10159   0.10408   0.10504   0.10895   0.11109
 Alpha virt. eigenvalues --    0.11219   0.11551   0.11709   0.11734   0.11818
 Alpha virt. eigenvalues --    0.12137   0.12442   0.12777   0.12934   0.13054
 Alpha virt. eigenvalues --    0.13164   0.13407   0.13441   0.13673   0.13899
 Alpha virt. eigenvalues --    0.14048   0.14053   0.14140   0.14327   0.14419
 Alpha virt. eigenvalues --    0.14466   0.14602   0.14842   0.14915   0.14993
 Alpha virt. eigenvalues --    0.15215   0.15246   0.15434   0.15636   0.15745
 Alpha virt. eigenvalues --    0.15914   0.16017   0.16171   0.16343   0.16392
 Alpha virt. eigenvalues --    0.16446   0.16771   0.16858   0.16861   0.16907
 Alpha virt. eigenvalues --    0.17044   0.17098   0.17381   0.17566   0.17813
 Alpha virt. eigenvalues --    0.17939   0.17945   0.18155   0.18437   0.18464
 Alpha virt. eigenvalues --    0.18539   0.18887   0.19022   0.19067   0.19101
 Alpha virt. eigenvalues --    0.19174   0.19330   0.19471   0.19647   0.19819
 Alpha virt. eigenvalues --    0.19869   0.20075   0.20230   0.20280   0.20462
 Alpha virt. eigenvalues --    0.20546   0.20569   0.20671   0.21140   0.21209
 Alpha virt. eigenvalues --    0.21258   0.21410   0.21494   0.21559   0.21660
 Alpha virt. eigenvalues --    0.21883   0.21959   0.22165   0.22294   0.22343
 Alpha virt. eigenvalues --    0.22774   0.22865   0.23031   0.23045   0.23083
 Alpha virt. eigenvalues --    0.23128   0.23279   0.23490   0.23630   0.23810
 Alpha virt. eigenvalues --    0.23888   0.23986   0.24408   0.24508   0.24668
 Alpha virt. eigenvalues --    0.24731   0.24971   0.25053   0.25088   0.25154
 Alpha virt. eigenvalues --    0.25387   0.25424   0.25724   0.25767   0.26036
 Alpha virt. eigenvalues --    0.26119   0.26478   0.26550   0.26893   0.26951
 Alpha virt. eigenvalues --    0.27046   0.27389   0.27467   0.27502   0.27689
 Alpha virt. eigenvalues --    0.27873   0.28043   0.28054   0.28305   0.28724
 Alpha virt. eigenvalues --    0.28727   0.28837   0.29031   0.29177   0.29189
 Alpha virt. eigenvalues --    0.29297   0.29520   0.29668   0.29822   0.30077
 Alpha virt. eigenvalues --    0.30151   0.30331   0.30586   0.30596   0.30814
 Alpha virt. eigenvalues --    0.30815   0.30956   0.31143   0.31475   0.31528
 Alpha virt. eigenvalues --    0.31615   0.31737   0.31878   0.31889   0.32027
 Alpha virt. eigenvalues --    0.32265   0.32350   0.32797   0.32831   0.32906
 Alpha virt. eigenvalues --    0.33027   0.33206   0.33366   0.33444   0.33468
 Alpha virt. eigenvalues --    0.33578   0.33673   0.33929   0.33977   0.34229
 Alpha virt. eigenvalues --    0.34267   0.34405   0.34521   0.34678   0.34887
 Alpha virt. eigenvalues --    0.35034   0.35178   0.35410   0.35478   0.35613
 Alpha virt. eigenvalues --    0.35617   0.35848   0.36065   0.36335   0.36464
 Alpha virt. eigenvalues --    0.36563   0.36804   0.36819   0.36954   0.37025
 Alpha virt. eigenvalues --    0.37164   0.37220   0.37333   0.37364   0.37590
 Alpha virt. eigenvalues --    0.37658   0.37822   0.38054   0.38171   0.38207
 Alpha virt. eigenvalues --    0.38401   0.38632   0.38652   0.38828   0.38846
 Alpha virt. eigenvalues --    0.38922   0.39171   0.39197   0.39526   0.39633
 Alpha virt. eigenvalues --    0.39691   0.39790   0.39844   0.39938   0.40067
 Alpha virt. eigenvalues --    0.40133   0.40497   0.40501   0.40800   0.41133
 Alpha virt. eigenvalues --    0.41140   0.41276   0.41364   0.41569   0.41628
 Alpha virt. eigenvalues --    0.41697   0.41871   0.41998   0.42067   0.42294
 Alpha virt. eigenvalues --    0.42401   0.42609   0.42742   0.42832   0.42922
 Alpha virt. eigenvalues --    0.43040   0.43178   0.43272   0.43330   0.43634
 Alpha virt. eigenvalues --    0.43752   0.43760   0.44008   0.44144   0.44263
 Alpha virt. eigenvalues --    0.44508   0.44624   0.44628   0.44839   0.45015
 Alpha virt. eigenvalues --    0.45129   0.45319   0.45499   0.45610   0.45666
 Alpha virt. eigenvalues --    0.45998   0.46215   0.46344   0.46422   0.46543
 Alpha virt. eigenvalues --    0.46625   0.46748   0.46847   0.46880   0.47304
[...]
 Alpha virt. eigenvalues --    1.30311   1.30773   1.30792   1.31420   1.31506
 Alpha virt. eigenvalues --    1.32097   1.32110   1.32633   1.33058   1.33109
 Alpha virt. eigenvalues --    1.33717   1.33973   1.34083   1.34726   1.34883
 Alpha virt. eigenvalues --    1.35124   1.35271   1.35516   1.36018   1.36413
 Alpha virt. eigenvalues --    1.36467   1.37516   1.37605   1.37919   1.38711
 Alpha virt. eigenvalues --    1.38755   1.38804   1.39086   1.39928   1.40114
 Alpha virt. eigenvalues --    1.40745   1.40943   1.41108   1.41185   1.41415
 Alpha virt. eigenvalues --    1.41875   1.42097   1.42779   1.43181   1.43659
 Alpha virt. eigenvalues --    1.43798   1.44014   1.44290   1.44544   1.44992
 Alpha virt. eigenvalues --    1.45342   1.45938   1.46108   1.46257   1.46450
 Alpha virt. eigenvalues --    1.46790   1.46978   1.47950   1.48478   1.48710
 Alpha virt. eigenvalues --    1.48744   1.48957   1.49358   1.49934   1.50140
 Alpha virt. eigenvalues --    1.50385   1.50707   1.50987   1.51214   1.51453
 Alpha virt. eigenvalues --    1.51616   1.51785   1.51916   1.52421   1.53170
 Alpha virt. eigenvalues --    1.53242   1.54097   1.54460   1.54682   1.54793
 Alpha virt. eigenvalues --    1.54842   1.55799   1.55862   1.56089   1.56414
 Alpha virt. eigenvalues --    1.57061   1.57219   1.57464   1.57493   1.57643
 Alpha virt. eigenvalues --    1.57955   1.58308   1.58319   1.58883   1.59139
 Alpha virt. eigenvalues --    1.59674   1.59813   1.60343   1.60547   1.60972
 Alpha virt. eigenvalues --    1.61447   1.62171   1.62306   1.62677   1.63459
 Alpha virt. eigenvalues --    1.63557   1.63911   1.64710   1.65312   1.65546
 Alpha virt. eigenvalues --    1.65959   1.66308   1.66583   1.66806   1.67130
 Alpha virt. eigenvalues --    1.67509   1.67785   1.67934   1.67960   1.68229
 Alpha virt. eigenvalues --    1.68408   1.69028   1.69332   1.69556   1.69721
 Alpha virt. eigenvalues --    1.70362   1.70623   1.70713   1.71017   1.71735
 Alpha virt. eigenvalues --    1.71899   1.71979   1.72105   1.72653   1.72654
 Alpha virt. eigenvalues --    1.73246   1.73435   1.74238   1.74785   1.75431
 Alpha virt. eigenvalues --    1.75724   1.75746   1.76010   1.76296   1.76802
 Alpha virt. eigenvalues --    1.76935   1.77146   1.77322   1.77695   1.77732
 Alpha virt. eigenvalues --    1.78397   1.78616   1.78986   1.79336   1.79391
 Alpha virt. eigenvalues --    1.79511   1.79984   1.80399   1.80691   1.80987
 Alpha virt. eigenvalues --    1.81277   1.81291   1.81395   1.81554   1.82403
 Alpha virt. eigenvalues --    1.82637   1.82734   1.83125   1.83497   1.83668
 Alpha virt. eigenvalues --    1.84020   1.84340   1.84753   1.84770   1.85724
 Alpha virt. eigenvalues --    1.85870   1.86351   1.86429   1.86928   1.87020
 Alpha virt. eigenvalues --    1.87340   1.87859   1.88028   1.88206   1.88387
 Alpha virt. eigenvalues --    1.88545   1.88617   1.89089   1.89122   1.89534
 Alpha virt. eigenvalues --    1.89587   1.90041   1.90145   1.90516   1.90834
 Alpha virt. eigenvalues --    1.90913   1.91090   1.91562   1.91665   1.92012
 Alpha virt. eigenvalues --    1.92351   1.92775   1.92813   1.93150   1.93203
 Alpha virt. eigenvalues --    1.93709   1.93746   1.94130   1.94616   1.94734
 Alpha virt. eigenvalues --    1.94815   1.94893   1.95045   1.95266   1.95549
 Alpha virt. eigenvalues --    1.95788   1.96196   1.96237   1.96664   1.96770
 Alpha virt. eigenvalues --    1.96784   1.97014   1.97023   1.97740   1.97990
 Alpha virt. eigenvalues --    1.98214   1.98550   1.99042   1.99571   1.99904
 Alpha virt. eigenvalues --    2.00319   2.00485   2.00663   2.00681   2.01245
 Alpha virt. eigenvalues --    2.01394   2.01906   2.02064   2.03007   2.03320
 Alpha virt. eigenvalues --    2.03422   2.03482   2.03843   2.04026   2.04402
 Alpha virt. eigenvalues --    2.04607   2.04824   2.04976   2.05304   2.05519
 Alpha virt. eigenvalues --    2.05635   2.06558   2.06646   2.06780   2.07059
 Alpha virt. eigenvalues --    2.07529   2.08219   2.08401   2.08778   2.08907
 Alpha virt. eigenvalues --    2.08971   2.09340   2.09418   2.09907   2.10210
 Alpha virt. eigenvalues --    2.10429   2.10915   2.11345   2.11462   2.11648
 Alpha virt. eigenvalues --    2.11970   2.12205   2.12815   2.12876   2.13312
 Alpha virt. eigenvalues --    2.13484   2.13763   2.13993   2.14291   2.14470
 Alpha virt. eigenvalues --    2.14938   2.14983   2.15004   2.15457   2.15625
 Alpha virt. eigenvalues --    2.16097   2.16242   2.16427   2.17146   2.17230
 Alpha virt. eigenvalues --    2.17323   2.17490   2.17585   2.18025   2.18317
 Alpha virt. eigenvalues --    2.18459   2.18984   2.19209   2.19334   2.19617
 Alpha virt. eigenvalues --    2.19669   2.20194   2.20585   2.20809   2.20847
 Alpha virt. eigenvalues --    2.21063   2.21385   2.21667   2.21954   2.22549
 Alpha virt. eigenvalues --    2.22550   2.22861   2.23240   2.23280   2.23693
 Alpha virt. eigenvalues --    2.23965   2.24138   2.24354   2.24709   2.24829
 Alpha virt. eigenvalues --    2.25475   2.25518   2.25911   2.25996   2.26349
 Alpha virt. eigenvalues --    2.26687   2.26965   2.27054   2.27290   2.27545
 Alpha virt. eigenvalues --    2.27795   2.28289   2.28358   2.28846   2.28938
 Alpha virt. eigenvalues --    2.29219   2.29585   2.30057   2.30088   2.30370
 Alpha virt. eigenvalues --    2.30500   2.30588   2.30924   2.31246   2.31429
 Alpha virt. eigenvalues --    2.31715   2.32091   2.32190   2.32383   2.32599
 Alpha virt. eigenvalues --    2.32703   2.33052   2.33174   2.33495   2.34044
 Alpha virt. eigenvalues --    2.34520   2.35192   2.35352   2.35691   2.35936
 Alpha virt. eigenvalues --    2.36386   2.36476   2.36790   2.36831   2.37590
 Alpha virt. eigenvalues --    2.37600   2.38065   2.38244   2.38647   2.38891
 Alpha virt. eigenvalues --    2.39036   2.39546   2.39756   2.40126   2.40161
 Alpha virt. eigenvalues --    2.40498   2.40654   2.40814   2.41161   2.41804
 Alpha virt. eigenvalues --    2.41940   2.42053   2.42685   2.43460   2.43629
 Alpha virt. eigenvalues --    2.43800   2.44188   2.44269   2.44328   2.45042
 Alpha virt. eigenvalues --    2.45464   2.45507   2.46086   2.46248   2.46471
 Alpha virt. eigenvalues --    2.46899   2.46951   2.47260   2.47842   2.47851
 Alpha virt. eigenvalues --    2.47886   2.48480   2.49345   2.49405   2.49756
 Alpha virt. eigenvalues --    2.49943   2.50194   2.50328   2.50874   2.51200
 Alpha virt. eigenvalues --    2.51279   2.51378   2.51538   2.51748   2.52205
 Alpha virt. eigenvalues --    2.52458   2.52682   2.52812   2.53197   2.53549
 Alpha virt. eigenvalues --    2.53814   2.54220   2.54558   2.54569   2.55226
 Alpha virt. eigenvalues --    2.55392   2.55678   2.55756   2.56029   2.56270
 Alpha virt. eigenvalues --    2.56507   2.56795   2.57432   2.57815   2.58340
 Alpha virt. eigenvalues --    2.58836   2.58858   2.59373   2.59622   2.59746
 Alpha virt. eigenvalues --    2.60222   2.61086   2.61279   2.61634   2.61890
 Alpha virt. eigenvalues --    2.62168   2.62400   2.62931   2.63261   2.63516
 Alpha virt. eigenvalues --    2.63692   2.63744   2.64545   2.64639   2.64788
 Alpha virt. eigenvalues --    2.64985   2.65228   2.65334   2.65618   2.65789
 Alpha virt. eigenvalues --    2.65907   2.66362   2.67204   2.67854   2.67981
 Alpha virt. eigenvalues --    2.68323   2.68530   2.68849   2.69059   2.69707
 Alpha virt. eigenvalues --    2.69745   2.70116   2.70710   2.70808   2.70954
 Alpha virt. eigenvalues --    2.71214   2.71580   2.71635   2.72274   2.72355
 Alpha virt. eigenvalues --    2.72547   2.72838   2.73489   2.73723   2.74097
 Alpha virt. eigenvalues --    2.74434   2.74608   2.74896   2.75182   2.75415
 Alpha virt. eigenvalues --    2.75458   2.76103   2.76360   2.76602   2.77001
 Alpha virt. eigenvalues --    2.77058   2.77566   2.78346   2.78975   2.79214
 Alpha virt. eigenvalues --    2.79301   2.79676   2.79857   2.80158   2.80204
 Alpha virt. eigenvalues --    2.80782   2.81126   2.81603   2.82423   2.82744
 Alpha virt. eigenvalues --    2.83383   2.83390   2.85049   2.85405   2.86006
 Alpha virt. eigenvalues --    2.86362   2.86578   2.86607   2.86983   2.87894
 Alpha virt. eigenvalues --    2.87983   2.88511   2.88954   2.89342   2.89442
 Alpha virt. eigenvalues --    2.89920   2.89932   2.90699   2.90782   2.90983
 Alpha virt. eigenvalues --    2.91046   2.91193   2.91716   2.92228   2.92300
 Alpha virt. eigenvalues --    2.92797   2.93359   2.93604   2.94319   2.94512
 Alpha virt. eigenvalues --    2.94522   2.95584   2.95972   2.96562   2.97948
 Alpha virt. eigenvalues --    2.98036   2.98290   2.98813   2.98960   2.99047
 Alpha virt. eigenvalues --    2.99989   3.00066   3.00304   3.00378   3.01178
 Alpha virt. eigenvalues --    3.01190   3.02023   3.02704   3.03122   3.03205
 Alpha virt. eigenvalues --    3.03323   3.03551   3.03603   3.04448   3.04614
 Alpha virt. eigenvalues --    3.04700   3.05005   3.05073   3.05484   3.05750
 Alpha virt. eigenvalues --    3.06287   3.06528   3.07181   3.07664   3.08095
 Alpha virt. eigenvalues --    3.08386   3.08568   3.08931   3.09019   3.10251
 Alpha virt. eigenvalues --    3.11428   3.11687   3.11846   3.12426   3.13263
 Alpha virt. eigenvalues --    3.13645   3.14192   3.14451   3.15058   3.15100
 Alpha virt. eigenvalues --    3.15321   3.16036   3.16225   3.16904   3.17835
 Alpha virt. eigenvalues --    3.18325   3.18561   3.19150   3.19332   3.19456
 Alpha virt. eigenvalues --    3.19737   3.21256   3.21965   3.23428   3.23563
 Alpha virt. eigenvalues --    3.24255   3.24560   3.24842   3.25313   3.25542
 Alpha virt. eigenvalues --    3.26065   3.26375   3.26662   3.26994   3.28123
 Alpha virt. eigenvalues --    3.28369   3.28727   3.30344   3.30721   3.31570
 Alpha virt. eigenvalues --    3.32048   3.32930   3.32968   3.33145   3.33423
 Alpha virt. eigenvalues --    3.34422   3.34517   3.35486   3.36190   3.36471
 Alpha virt. eigenvalues --    3.38238   3.41107   3.41439   3.45730   3.46024
 Alpha virt. eigenvalues --    3.46500   3.47094   3.47712   3.48551   3.49458
 Alpha virt. eigenvalues --    3.50013   3.51773   3.53723   3.57541   3.58118
 Alpha virt. eigenvalues --    3.61063   3.61962   3.64012   3.64719   3.65779
 Alpha virt. eigenvalues --    3.66156   3.71623   3.71916   3.73449   3.74422
 Alpha virt. eigenvalues --    3.76538   3.78645   3.79739   3.80737   3.83225
 Alpha virt. eigenvalues --    3.86262   3.86726   3.89040   3.92203   3.93283
 Alpha virt. eigenvalues --    3.95291   3.95940   3.99637   4.02634   4.02919
 Alpha virt. eigenvalues --    4.05934   4.06930   4.08284   4.09791   4.11013
 Alpha virt. eigenvalues --    4.13000   4.16676   4.21143   4.25531   4.38118
 Alpha virt. eigenvalues --    4.41608   4.43875   4.45611   4.51735   4.52887
 Alpha virt. eigenvalues --    4.55935   4.58818   4.66401   4.75006   4.79951
 Alpha virt. eigenvalues --    4.81635   5.18309   5.22966   5.25693   5.33838
          Condensed to atoms (all electrons):
 Mulliken charges:
               1
     1  C    1.484919
     2  C    0.438741
     3  C   -0.080739
     4  C    0.192530
     5  H   -1.083602
     6  C    0.766409
     7  C    1.327896
     8  H   -0.857851
     9  C    0.491327
    10  C    0.407881
    11  H   -1.043995
    12  C    0.960260
    13  H   -0.788333
    14  H   -0.722632
    15  C    1.327655
    16  C    0.408290
    17  C    0.491238
    18  C    1.485242
    19  H   -1.044168
    20  C   -0.080462
    21  C    0.192881
    22  H   -1.083639
    23  C    0.766045
    24  C    0.960620
    25  H   -0.857726
    26  C    0.439596
    27  H   -0.723155
    28  C   -0.220223
    29  C   -0.009699
    30  N   -0.454274
    31  N   -0.535212
    32  C   -0.113934
    33  C   -0.021783
    34  N   -0.789313
    35  N   -0.520030
    36  C   -0.221276
    37  C   -0.009668
    38  N   -0.454063
    39  N   -0.535467
    40  C   -0.021742
    41  C   -0.114324
    42  N   -0.520082
    43  N   -0.789029
    44  H   -0.788276
    45  H    0.244507
    46  H   -0.220074
    47  H    0.101216
    48  H    0.244569
    49  H    0.101358
    50  H   -0.219615
    51  C    0.748857
    52  C    1.005053
    53  C    0.705163
    54  C    0.762065
    55  H   -0.313027
    56  C    0.761736
    57  H   -0.374403
    58  C    0.534352
    59  H   -0.118860
    60  H   -0.206366
    61  C    0.543677
    62  H   -0.143893
    63  H   -0.082728
    64  H   -0.080335
    65  H   -0.142268
    66  H   -0.126178
    67  H   -0.240751
    68  H   -0.460341
    69  C    0.619738
    70  H   -0.240054
    71  H    0.036951
    72  C    0.417589
    73  H   -0.131410
    74  H   -0.242923
    75  C    0.749304
    76  H   -0.188042
    77  H   -0.212132
    78  H   -0.026319
    79  H   -0.135962
    80  H   -0.862292
    81  H   -0.862186
    82  C    0.417827
    83  H   -0.135469
    84  H   -0.026624
    85  C    0.619339
    86  H   -0.212393
    87  H   -0.188027
    88  C    1.006007
    89  H   -0.242653
    90  H   -0.131551
    91  H   -0.240515
    92  H    0.036684
    93  H   -0.460258
    94  H   -0.374280
    95  C    0.705485
    96  H   -0.312811
    97  C    0.544026
    98  H   -0.126005
    99  H   -0.240882
   100  C    0.533565
   101  H   -0.142454
   102  H   -0.080292
   103  H   -0.082372
   104  H   -0.143931
   105  H   -0.118442
   106  H   -0.206780
 Sum of Mulliken charges =   0.00000
 Mulliken charges with hydrogens summed into heavy atoms:
               1
     1  C    1.484919
     2  C   -0.283891
     3  C   -1.164340
     4  C    0.192530
     6  C   -0.091442
     7  C    1.327896
     9  C   -0.552668
    10  C   -0.380451
    12  C    0.740645
    15  C    1.327655
    16  C   -0.379987
    17  C   -0.552930
    18  C    1.485242
    20  C   -1.164101
    21  C    0.192881
    23  C   -0.091681
    24  C    0.740546
    26  C   -0.283559
    28  C   -0.533250
    29  C   -0.384102
    30  N   -0.454274
    31  N   -0.535212
    32  C   -0.976226
    33  C   -0.482124
    34  N   -0.687955
    35  N   -0.275461
    36  C   -0.534087
    37  C   -0.383948
    38  N   -0.454063
    39  N   -0.535467
    40  C   -0.482000
    41  C   -0.976510
    42  N   -0.275575
    43  N   -0.687812
    51  C    0.586763
    52  C    0.801949
    53  C    0.338235
    54  C    0.436843
    56  C    0.436510
    58  C    0.307732
    61  C    0.321073
    69  C    0.245405
    72  C    0.017414
    75  C    0.587023
    82  C    0.017407
    85  C    0.245135
    88  C    0.802176
    95  C    0.338598
    97  C    0.321280
   100  C    0.307262
 Electronic spatial extent (au):  <R**2>=          34700.5271
 Charge=              0.0000 electrons
 Dipole moment (field-independent basis, Debye):
    X=             -5.3690    Y=             -0.0002    Z=             -0.0005  Tot=              5.3690
 Quadrupole moment (field-independent basis, Debye-Ang):
   XX=           -274.7365   YY=           -303.6489   ZZ=           -304.8337
   XY=              0.0023   XZ=             -0.0013   YZ=              8.9606
 Traceless Quadrupole moment (field-independent basis, Debye-Ang):
   XX=             19.6699   YY=             -9.2425   ZZ=            -10.4273
   XY=              0.0023   XZ=             -0.0013   YZ=              8.9606
 Octapole moment (field-independent basis, Debye-Ang**2):
  XXX=            -98.6113  YYY=              0.0145  ZZZ=             -0.0055  XYY=             47.3674
  XXY=             -0.0114  XXZ=             -0.0028  XZZ=           -120.0882  YZZ=             -0.0230
  YYZ=             -0.0036  XYZ=             -2.7553
 Hexadecapole moment (field-independent basis, Debye-Ang**3):
 XXXX=         -19629.6038 YYYY=         -17705.9922 ZZZZ=          -9400.6027 XXXY=              0.0939
 XXXZ=              0.0113 YYYX=             -0.0033 YYYZ=            274.4062 ZZZX=              0.0020
 ZZZY=           -126.4022 XXYY=          -6293.7964 XXZZ=          -4819.3643 YYZZ=          -4816.6143
 XXYZ=            -37.2868 YYXZ=             -0.0366 ZZXY=              0.0143
 N-N= 6.739396133138D+03 E-N=-1.828120685348D+04  KE= 2.058380255193D+03
 Leave Link  601 at Mon Nov  8 07:05:49 2021, MaxMem=  7864320000 cpu:              53.0 elap:               2.1
 (Enter /apps/gaussian/g16-c01-avx/g16/l9999.exe)
 Unable to Open any file for archive entry.
 1\1\GINC-CX3-6-6\SP\RMP2-FC\Aug-CC-pVDZ\C42H56N8\ATARZIA\08-Nov-2021\0
 \\#P MP2/aug-cc-pVDZ SP SCF=(YQC,MaxCycle=900) int=(Grid=Superfinegrid
 ) SCRF=(PCM,Solvent=Chloroform)\\_2_alde1_4_ami3_1_opt_cfm_mp2\\0,1\C,
 0,-3.8474,-1.9079,-0.377\C,0,-4.1136,-1.5038,0.9934\C,0,-3.1019,-3.049
 5,-0.669\C,0,-2.7684,-3.3565,-1.9805\H,0,-2.7795,-3.682,0.1435\C,0,-3.
 1453,-2.4981,-3.0027\C,0,-3.8927,-1.3537,-2.7286\H,0,-2.8584,-2.7363,-
 4.0159\C,0,-4.2633,-1.0821,-1.4156\C,0,-4.1894,-0.3951,-3.7829\H,0,-4.
 8468,-0.1959,-1.2222\C,0,-1.9447,-4.5931,-2.2594\H,0,-3.5757,-0.4903,-
 4.6937\H,0,-4.7759,-0.6311,1.1016\C,0,-1.2498,1.1561,0.4825\C,0,-1.337
 2,0.3796,1.7105\C,0,-2.4088,1.6099,-0.1387\C,0,-2.352,2.2115,-1.3911\H
 ,0,-3.3521,1.448,0.3584\C,0,-1.1122,2.4115,-1.9971\C,0,0.0544,2.0069,-
 1.3641\H,0,-1.0779,2.8748,-2.9709\C,0,-0.0187,1.3621,-0.1383\C,0,1.380
 3,2.224,-2.0573\H,0,0.895,1.0308,0.3319\C,0,-3.5936,2.5226,-2.0795\H,0
 ,-4.5054,2.3965,-1.4758\C,0,-2.4685,-0.5622,3.5156\C,0,-3.7312,-1.4271
 ,3.2697\N,0,-2.3733,0.3607,2.429\N,0,-3.5713,-2.0524,1.9928\C,0,-0.271
 1,-4.3886,-3.8446\C,0,0.3515,-4.8742,-2.5241\N,0,-1.6721,-4.7548,-3.69
 74\N,0,-0.6543,-4.5254,-1.5326\C,0,-5.158,1.5429,-4.6382\C,0,-4.9323,2
 .8996,-3.9233\N,0,-5.0448,0.5212,-3.6458\N,0,-3.6455,2.8387,-3.3007\C,
 0,2.6505,0.8133,-3.4057\C,0,2.9155,0.4975,-1.9233\N,0,1.3904,1.5394,-3
 .3723\N,0,2.5063,1.7224,-1.252\H,0,-0.4528,-0.2358,1.9437\H,0,0.6106,0
 .8885,-3.4188\H,0,1.5078,3.3012,-2.2349\H,0,3.2709,2.3898,-1.2674\H,0,
 -0.5041,-3.5758,-1.2014\H,0,-1.8002,-5.7242,-3.97\H,0,-2.4964,-5.4692,
 -1.8901\C,0,4.3362,0.0075,-1.7338\C,0,1.7499,-4.3134,-2.3683\C,0,-2.61
 73,0.1632,4.853\C,0,-5.0103,4.0295,-4.9447\H,0,-1.5902,-1.2323,3.5564\
 C,0,-3.8657,-2.4561,4.3873\H,0,-4.5989,-0.7432,3.2773\C,0,-3.9827,-1.7
 539,5.7366\H,0,-2.9915,-3.1087,4.3713\H,0,-4.748,-3.0718,4.2019\C,0,-2
 .7794,-0.8478,5.9837\H,0,-4.0574,-2.4963,6.5337\H,0,-4.8954,-1.1535,5.
 7518\H,0,-1.8758,-1.4583,6.0523\H,0,-2.9,-0.3204,6.9323\H,0,-3.4864,0.
 8212,4.8027\H,0,-1.7345,0.7839,5.022\H,0,0.4059,-5.9733,-2.5463\C,0,2.
 5788,-4.8068,-3.5589\H,0,2.2005,-4.6433,-1.4307\H,0,1.7082,-3.2207,-2.
 362\C,0,1.9455,-4.4413,-4.9051\H,0,2.6732,-5.8931,-3.4918\H,0,3.5839,-
 4.3833,-3.508\C,0,0.5011,-4.9388,-5.026\H,0,2.5475,-4.8658,-5.7109\H,0
 ,1.9528,-3.3555,-5.0231\H,0,0.4767,-6.0314,-5.008\H,0,0.0641,-4.6037,-
 5.968\H,0,-0.2325,-3.2891,-3.8656\H,0,2.2145,-0.2878,-1.6027\C,0,4.505
 9,-1.2558,-2.5846\H,0,4.5355,-0.2149,-0.6842\H,0,5.0401,0.7776,-2.0592
 \C,0,4.1494,-1.0216,-4.056\H,0,3.8629,-2.04,-2.1791\H,0,5.5377,-1.6063
 ,-2.5177\C,0,2.7378,-0.4523,-4.2334\H,0,4.2371,-1.9636,-4.6012\H,0,4.8
 655,-0.3198,-4.4897\H,0,2.5433,-0.2439,-5.2867\H,0,1.9921,-1.1714,-3.8
 834\H,0,3.4157,1.5236,-3.7542\H,0,-5.7372,3.0091,-3.1744\C,0,-6.545,1.
 5459,-5.2809\H,0,-4.3886,1.4314,-5.4242\C,0,-6.6543,2.6856,-6.2889\H,0
 ,-7.2966,1.6567,-4.4975\H,0,-6.7116,0.5855,-5.7738\C,0,-6.3767,4.0309,
 -5.6231\H,0,-7.6526,2.689,-6.7314\H,0,-5.932,2.525,-7.0929\H,0,-7.149,
 4.2297,-4.8761\H,0,-6.4183,4.8285,-6.3676\H,0,-4.2183,3.8917,-5.6825\H
 ,0,-4.8365,4.9812,-4.439\\Version=ES64L-G16RevC.01\State=1-A\HF=-2058.
 8842417\MP2=-2066.2248472\RMSD=9.329e-09\PG=C01 [X(C42H56N8)]\\@
 The archive entry for this job was punched.


 NEVER TEACH A PIG TO SING.
 IT WASTES YOUR TIME AND ANNOYS THE PIG.
     -- SEEN ON A GREETING CARD
 Job cpu time:      26 days  5 hours 17 minutes 27.8 seconds.
 Elapsed time:       0 days 20 hours  1 minutes 56.0 seconds.
 File lengths (MBytes):  RWF=4884016 Int=      0 D2E=      0 Chk=    192 Scr=     16
 Normal termination of Gaussian 16 at Mon Nov  8 07:05:51 2021.
