 Entering Gaussian System, Link 0=g16
 Initial command:
 /apps/gaussian/g16-c01-avx/g16/l1.exe "/rds/general/ephemeral/user/atarzia/ephemeral/Gau-1093739.inp" -scrdir="/rds/general/ephemeral/user/atarzia/ephemeral/"
 Entering Link 1 = /apps/gaussian/g16-c01-avx/g16/l1.exe PID=   1093740.
  
 Copyright (c) 1988-2019, Gaussian, Inc.  All Rights Reserved.
  
 This is part of the Gaussian(R) 16 program.  It is based on
 the Gaussian(R) 09 system (copyright 2009, Gaussian, Inc.),
 the Gaussian(R) 03 system (copyright 2003, Gaussian, Inc.),
 the Gaussian(R) 98 system (copyright 1998, Gaussian, Inc.),
 the Gaussian(R) 94 system (copyright 1995, Gaussian, Inc.),
 the Gaussian 92(TM) system (copyright 1992, Gaussian, Inc.),
 the Gaussian 90(TM) system (copyright 1990, Gaussian, Inc.),
 the Gaussian 88(TM) system (copyright 1988, Gaussian, Inc.),
 the Gaussian 86(TM) system (copyright 1986, Carnegie Mellon
 University), and the Gaussian 82(TM) system (copyright 1983,
 Carnegie Mellon University). Gaussian is a federally registered
 trademark of Gaussian, Inc.
  
 This software contains proprietary and confidential information,
 including trade secrets, belonging to Gaussian, Inc.
  
 This software is provided under written license and may be
 used, copied, transmitted, or stored only in accord with that
 written license.
  
 The following legend is applicable only to US Government
 contracts under FAR:
  
                    RESTRICTED RIGHTS LEGEND
  
 Use, reproduction and disclosure by the US Government is
 subject to restrictions as set forth in subparagraphs (a)
 and (c) of the Commercial Computer Software - Restricted
 Rights clause in FAR 52.227-19.
  
 Gaussian, Inc.
 340 Quinnipiac St., Bldg. 40, Wallingford CT 06492
  
  
 ---------------------------------------------------------------
 Warning -- This program may not be used in any manner that
 competes with the business of Gaussian, Inc. or will provide
 assistance to any competitor of Gaussian, Inc.  The licensee
 of this program is prohibited from giving any competitor of
 Gaussian, Inc. access to this program.  By using this program,
 the user acknowledges that Gaussian, Inc. is engaged in the
 business of creating and licensing software in the field of
 computational chemistry and represents and warrants to the
 licensee that it is not a competitor of Gaussian, Inc. and that
 it will not use this program in any manner prohibited above.
 ---------------------------------------------------------------
  

 Cite this work as:
 Gaussian 16, Revision C.01,
 M. J. Frisch, G. W. Trucks, H. B. Schlegel, G. E. Scuseria, 
 M. A. Robb, J. R. Cheeseman, G. Scalmani, V. Barone, 
 G. A. Petersson, H. Nakatsuji, X. Li, M. Caricato, A. V. Marenich, 
 J. Bloino, B. G. Janesko, R. Gomperts, B. Mennucci, H. P. Hratchian, 
 J. V. Ortiz, A. F. Izmaylov, J. L. Sonnenberg, D. Williams-Young, 
 F. Ding, F. Lipparini, F. Egidi, J. Goings, B. Peng, A. Petrone, 
 T. Henderson, D. Ranasinghe, V. G. Zakrzewski, J. Gao, N. Rega, 
 G. Zheng, W. Liang, M. Hada, M. Ehara, K. Toyota, R. Fukuda, 
 J. Hasegawa, M. Ishida, T. Nakajima, Y. Honda, O. Kitao, H. Nakai, 
 T. Vreven, K. Throssell, J. A. Montgomery, Jr., J. E. Peralta, 
 F. Ogliaro, M. J. Bearpark, J. J. Heyd, E. N. Brothers, K. N. Kudin, 
 V. N. Staroverov, T. A. Keith, R. Kobayashi, J. Normand, 
 K. Raghavachari, A. P. Rendell, J. C. Burant, S. S. Iyengar, 
 J. Tomasi, M. Cossi, J. M. Millam, M. Klene, C. Adamo, R. Cammi, 
 J. W. Ochterski, R. L. Martin, K. Morokuma, O. Farkas, 
 J. B. Foresman, and D. J. Fox, Gaussian, Inc., Wallingford CT, 2019.
 
 ******************************************
 Gaussian 16:  ES64L-G16RevC.01  3-Jul-2019
                18-Oct-2021 
 ******************************************
 %chk=_2_alde1_4_ami1_2_opt_cfm.chk
 %mem=60000mb
 %nprocshared=32
 Will use up to   32 processors via shared memory.
 ----------------------------------------------------------------------
 #P PBE1PBE/Def2TZVP SP SCF=(YQC,MaxCycle=900) int=(Grid=Superfinegrid)
  EmpiricalDispersion=GD3 SCRF=(PCM,Solvent=Chloroform)
 ----------------------------------------------------------------------
 1/38=1,172=1/1;
 2/12=2,17=6,18=5,40=1/2;
 3/5=44,7=101,11=2,25=1,30=1,70=2201,72=7,74=-13,75=-7,124=31/1,2,3;
 4//1;
 5/5=2,7=900,8=4,13=1,38=1,53=7/8,2,8;
 6/7=2,8=2,9=2,10=2,28=1/1;
 99/5=1,9=1/99;
 Leave Link    1 at Mon Oct 18 07:14:29 2021, MaxMem=  7864320000 cpu:               5.8 elap:               0.2
 (Enter /apps/gaussian/g16-c01-avx/g16/l101.exe)
 -------------------------
 _2_alde1_4_ami1_2_opt_cfm
 -------------------------
 Symbolic Z-matrix:
 Charge =  0 Multiplicity = 1
 C                    -0.6967   -2.5386   -2.8682 
 C                     0.5874   -2.7339   -2.2084 
 C                    -1.8782   -2.5477   -2.1369 
 C                    -3.1009   -2.2879   -2.7579 
 H                    -1.8734   -2.762    -1.0789 
 C                    -3.1254   -1.9701   -4.1115 
 C                    -1.9479   -1.953    -4.8572 
 H                    -4.0527   -1.728    -4.6083 
 C                    -0.745    -2.2647   -4.2342 
 C                    -1.936    -1.5266   -6.2474 
 H                     0.1804   -2.2717   -4.7884 
 C                    -4.3453   -2.3498   -2.0042 
 H                    -0.9586   -1.5952   -6.7483 
 H                     0.57     -2.6834   -1.1087 
 H                    -5.2594   -2.1108   -2.5721 
 C                     1.062     0.692    -3.5727 
 C                     2.1794   -0.2379   -3.6304 
 C                     0.2545    0.8677   -4.6921 
 C                    -0.9242    1.6058   -4.6101 
 H                     0.502     0.4048   -5.6348 
 C                    -1.2646    2.2115   -3.4038 
 C                    -0.4439    2.0802   -2.286 
 H                    -2.1817    2.7806   -3.3308 
 C                     0.7095    1.3069   -2.3749 
 C                    -0.8212    2.6971   -1.021 
 H                     1.3246    1.1673   -1.5012 
 C                    -1.8505    1.6442   -5.7314 
 H                    -1.7535    3.2846   -1.0273 
 H                    -2.8521    2.0431   -5.5021 
 C                     3.7167   -1.6925   -2.6756 
 C                     2.9136   -2.9353   -2.1823 
 N                     2.8111   -0.5863   -2.5962 
 H                     4.0085   -1.8871   -3.7216 
 C                     4.9774   -1.3953   -1.8465 
 N                     1.6529   -2.8997   -2.8601 
 H                     2.7747   -2.8349   -1.0926 
 C                     3.6224   -4.2732   -2.4709 
 H                     5.6037   -2.2935   -1.8335 
 C                     4.6415   -0.9942   -0.4125 
 C                     5.7584   -0.2734   -2.5313 
 H                     4.6411   -4.2098   -2.0753 
 C                     3.6829   -4.5857   -3.9636 
 C                     2.8907   -5.395    -1.7338 
 H                     6.6749   -0.0599   -1.9863 
 H                     5.1537    0.6302   -2.5644 
 H                     6.0218   -0.5507   -3.5502 
 H                     5.5371   -0.6414    0.0941 
 H                     4.2449   -1.8342    0.1514 
 H                     3.9026   -0.1983   -0.421 
 H                     1.8701   -5.4815   -2.101 
 H                     2.8581   -5.1988   -0.6639 
 H                     3.3966   -6.3446   -1.8924 
 H                     4.0932   -5.5813   -4.1178 
 H                     4.3143   -3.8757   -4.491 
 H                     2.6833   -4.5461   -4.3876 
 C                    -5.6226   -2.7865   -0.0951 
 C                    -5.5486   -1.9269    1.2057 
 N                    -4.3745   -2.6788   -0.7881 
 H                    -6.4473   -2.4194   -0.7303 
 C                    -5.8971   -4.2908    0.1505 
 N                    -4.1898   -1.7439    1.6884 
 H                    -6.1016   -2.4353    2.0024 
 C                    -6.1941   -0.5408    0.9996 
 H                    -5.8086   -4.7731   -0.8322 
 C                    -7.3173   -4.5205    0.6598 
 C                    -4.8739   -4.9379    1.079 
 H                    -5.7227   -0.0751    0.1254 
 C                    -5.9394    0.3411    2.2215 
 C                    -7.702    -0.6327    0.77 
 H                    -5.0317   -6.0143    1.1087 
 H                    -4.9693   -4.5553    2.0925 
 H                    -3.8672   -4.7482    0.7149 
 H                    -8.0474   -4.0809   -0.0161 
 H                    -7.4572   -4.0844    1.6456 
 H                    -7.5147   -5.5879    0.7304 
 H                    -7.952    -1.1744   -0.1384 
 H                    -8.1231    0.367     0.6878 
 H                    -8.1787   -1.1359    1.6086 
 H                    -6.4429   -0.0754    3.0906 
 H                    -6.3216    1.3446    2.0477 
 H                    -4.8781    0.3951    2.4359 
 C                    -2.7725   -0.4488   -8.1185 
 C                    -2.5731    1.0781   -7.8725 
 N                    -2.9481   -1.0423   -6.8246 
 H                    -1.8491   -0.8208   -8.593 
 C                    -3.9728   -0.7904   -9.0163 
 N                    -1.5574    1.1896   -6.8698 
 H                    -3.5305    1.4875   -7.506 
 C                    -2.1534    1.856    -9.1343 
 H                    -3.8413   -0.2828   -9.9774 
 C                    -5.2981   -0.3585   -8.3948 
 C                    -3.9802   -2.2987   -9.2669 
 H                    -2.8997    1.6682   -9.9127 
 C                    -0.7775    1.435    -9.6429 
 C                    -2.1575    3.3522   -8.8193 
 H                    -3.0457   -2.6194   -9.7229 
 H                    -4.7974   -2.5701   -9.9313 
 H                    -4.1042   -2.8292   -8.3255 
 H                    -5.3583   -0.7285   -7.3754 
 H                    -6.1285   -0.7647   -8.9681 
 H                    -5.3949    0.724    -8.3826 
 H                    -3.1355    3.6705   -8.4631 
 H                    -1.9141    3.9269   -9.71 
 H                    -1.4203    3.5754   -8.051 
 H                    -0.4593    2.0983   -10.4442 
 H                    -0.7933    0.4204   -10.0319 
 H                    -0.0555    1.4895   -8.8328 
 C                     0.6092    4.07      1.7061 
 C                    -0.5257    3.1182    1.2635 
 N                     0.6192    5.1796    0.7563 
 H                     1.5477    3.4896    1.6667 
 C                     0.4465    4.6204    3.1357 
 N                    -0.1211    2.547     0.0155 
 H                    -1.4431    3.7221    1.1476 
 C                    -0.8213    1.9563    2.2376 
 H                     0.3992    3.768     3.8198 
 C                    -0.8245    5.453     3.2787 
 C                     1.6654    5.4553    3.5346 
 H                    -1.119     2.388     3.1976 
 C                     0.3941    1.0563    2.4407 
 C                    -1.9973    1.1348    1.7088 
 H                     2.5884    4.9117    3.3406 
 H                     1.6246    5.6879    4.5965 
 H                     1.6883    6.3942    2.9871 
 H                    -0.8546    6.2054    2.4956 
 H                    -0.8426    5.9473    4.2474 
 H                    -1.7113    4.8305    3.1967 
 H                    -2.273     0.3636    2.424 
 H                    -1.7311    0.6547    0.769 
 H                    -2.8642    1.7699    1.5371 
 H                     0.7563    0.7059    1.4782 
 H                     0.12      0.1965    3.0484 
 H                     1.1981    1.587     2.9434 
 H                     2.3825   -0.6788   -4.6184 
 H                    -3.6398   -1.2957    0.9615 
 H                    -3.7646   -2.6473    1.8592 
 H                     0.6758    4.8148   -0.1888 
 H                     1.438     5.7578    0.9075 
 
 ITRead=  0  0  0  0  0  0  0  0  0  0  0  0  0  0  0  0  0  0  0  0
 ITRead=  0  0  0  0  0  0  0  0  0  0  0  0  0  0  0  0  0  0  0  0
 ITRead=  0  0  0  0  0  0  0  0  0  0  0  0  0  0  0  0  0  0  0  0
 ITRead=  0  0  0  0  0  0  0  0  0  0  0  0  0  0  0  0  0  0  0  0
 ITRead=  0  0  0  0  0  0  0  0  0  0  0  0  0  0  0  0  0  0  0  0
 ITRead=  0  0  0  0  0  0  0  0  0  0  0  0  0  0  0  0  0  0  0  0
 ITRead=  0  0  0  0  0  0  0  0  0  0  0  0  0  0  0  0  0  0
 MicOpt= -1 -1 -1 -1 -1 -1 -1 -1 -1 -1 -1 -1 -1 -1 -1 -1 -1 -1 -1 -1
 MicOpt= -1 -1 -1 -1 -1 -1 -1 -1 -1 -1 -1 -1 -1 -1 -1 -1 -1 -1 -1 -1
 MicOpt= -1 -1 -1 -1 -1 -1 -1 -1 -1 -1 -1 -1 -1 -1 -1 -1 -1 -1 -1 -1
 MicOpt= -1 -1 -1 -1 -1 -1 -1 -1 -1 -1 -1 -1 -1 -1 -1 -1 -1 -1 -1 -1
 MicOpt= -1 -1 -1 -1 -1 -1 -1 -1 -1 -1 -1 -1 -1 -1 -1 -1 -1 -1 -1 -1
 MicOpt= -1 -1 -1 -1 -1 -1 -1 -1 -1 -1 -1 -1 -1 -1 -1 -1 -1 -1 -1 -1
 MicOpt= -1 -1 -1 -1 -1 -1 -1 -1 -1 -1 -1 -1 -1 -1 -1 -1 -1 -1
 NAtoms=    138 NQM=      138 NQMF=       0 NMMI=      0 NMMIF=      0
                NMic=       0 NMicF=      0.
                    Isotopes and Nuclear Properties:
 (Nuclear quadrupole moments (NQMom) in fm**2, nuclear magnetic moments (NMagM)
  in nuclear magnetons)

  Atom         1           2           3           4           5           6           7           8           9          10
 IAtWgt=          12          12          12          12           1          12          12           1          12          12
 AtmWgt=  12.0000000  12.0000000  12.0000000  12.0000000   1.0078250  12.0000000  12.0000000   1.0078250  12.0000000  12.0000000
 NucSpn=           0           0           0           0           1           0           0           1           0           0
 AtZEff=  -0.0000000  -0.0000000  -0.0000000  -0.0000000  -0.0000000  -0.0000000  -0.0000000  -0.0000000  -0.0000000  -0.0000000
 NQMom=    0.0000000   0.0000000   0.0000000   0.0000000   0.0000000   0.0000000   0.0000000   0.0000000   0.0000000   0.0000000
 NMagM=    0.0000000   0.0000000   0.0000000   0.0000000   2.7928460   0.0000000   0.0000000   2.7928460   0.0000000   0.0000000
 AtZNuc=   6.0000000   6.0000000   6.0000000   6.0000000   1.0000000   6.0000000   6.0000000   1.0000000   6.0000000   6.0000000

  Atom        11          12          13          14          15          16          17          18          19          20
 IAtWgt=           1          12           1           1           1          12          12          12          12           1
 AtmWgt=   1.0078250  12.0000000   1.0078250   1.0078250   1.0078250  12.0000000  12.0000000  12.0000000  12.0000000   1.0078250
 NucSpn=           1           0           1           1           1           0           0           0           0           1
 AtZEff=  -0.0000000  -0.0000000  -0.0000000  -0.0000000  -0.0000000  -0.0000000  -0.0000000  -0.0000000  -0.0000000  -0.0000000
 NQMom=    0.0000000   0.0000000   0.0000000   0.0000000   0.0000000   0.0000000   0.0000000   0.0000000   0.0000000   0.0000000
 NMagM=    2.7928460   0.0000000   2.7928460   2.7928460   2.7928460   0.0000000   0.0000000   0.0000000   0.0000000   2.7928460
 AtZNuc=   1.0000000   6.0000000   1.0000000   1.0000000   1.0000000   6.0000000   6.0000000   6.0000000   6.0000000   1.0000000

  Atom        21          22          23          24          25          26          27          28          29          30
 IAtWgt=          12          12           1          12          12           1          12           1           1          12
 AtmWgt=  12.0000000  12.0000000   1.0078250  12.0000000  12.0000000   1.0078250  12.0000000   1.0078250   1.0078250  12.0000000
 NucSpn=           0           0           1           0           0           1           0           1           1           0
 AtZEff=  -0.0000000  -0.0000000  -0.0000000  -0.0000000  -0.0000000  -0.0000000  -0.0000000  -0.0000000  -0.0000000  -0.0000000
 NQMom=    0.0000000   0.0000000   0.0000000   0.0000000   0.0000000   0.0000000   0.0000000   0.0000000   0.0000000   0.0000000
 NMagM=    0.0000000   0.0000000   2.7928460   0.0000000   0.0000000   2.7928460   0.0000000   2.7928460   2.7928460   0.0000000
 AtZNuc=   6.0000000   6.0000000   1.0000000   6.0000000   6.0000000   1.0000000   6.0000000   1.0000000   1.0000000   6.0000000

  Atom        31          32          33          34          35          36          37          38          39          40
 IAtWgt=          12          14           1          12          14           1          12           1          12          12
 AtmWgt=  12.0000000  14.0030740   1.0078250  12.0000000  14.0030740   1.0078250  12.0000000   1.0078250  12.0000000  12.0000000
 NucSpn=           0           2           1           0           2           1           0           1           0           0
 AtZEff=  -0.0000000  -0.0000000  -0.0000000  -0.0000000  -0.0000000  -0.0000000  -0.0000000  -0.0000000  -0.0000000  -0.0000000
 NQMom=    0.0000000   2.0440000   0.0000000   0.0000000   2.0440000   0.0000000   0.0000000   0.0000000   0.0000000   0.0000000
 NMagM=    0.0000000   0.4037610   2.7928460   0.0000000   0.4037610   2.7928460   0.0000000   2.7928460   0.0000000   0.0000000
 AtZNuc=   6.0000000   7.0000000   1.0000000   6.0000000   7.0000000   1.0000000   6.0000000   1.0000000   6.0000000   6.0000000

  Atom        41          42          43          44          45          46          47          48          49          50
 IAtWgt=           1          12          12           1           1           1           1           1           1           1
 AtmWgt=   1.0078250  12.0000000  12.0000000   1.0078250   1.0078250   1.0078250   1.0078250   1.0078250   1.0078250   1.0078250
 NucSpn=           1           0           0           1           1           1           1           1           1           1
 AtZEff=  -0.0000000  -0.0000000  -0.0000000  -0.0000000  -0.0000000  -0.0000000  -0.0000000  -0.0000000  -0.0000000  -0.0000000
 NQMom=    0.0000000   0.0000000   0.0000000   0.0000000   0.0000000   0.0000000   0.0000000   0.0000000   0.0000000   0.0000000
 NMagM=    2.7928460   0.0000000   0.0000000   2.7928460   2.7928460   2.7928460   2.7928460   2.7928460   2.7928460   2.7928460
 AtZNuc=   1.0000000   6.0000000   6.0000000   1.0000000   1.0000000   1.0000000   1.0000000   1.0000000   1.0000000   1.0000000

  Atom        51          52          53          54          55          56          57          58          59          60
 IAtWgt=           1           1           1           1           1          12          12          14           1          12
 AtmWgt=   1.0078250   1.0078250   1.0078250   1.0078250   1.0078250  12.0000000  12.0000000  14.0030740   1.0078250  12.0000000
 NucSpn=           1           1           1           1           1           0           0           2           1           0
 AtZEff=  -0.0000000  -0.0000000  -0.0000000  -0.0000000  -0.0000000  -0.0000000  -0.0000000  -0.0000000  -0.0000000  -0.0000000
 NQMom=    0.0000000   0.0000000   0.0000000   0.0000000   0.0000000   0.0000000   0.0000000   2.0440000   0.0000000   0.0000000
 NMagM=    2.7928460   2.7928460   2.7928460   2.7928460   2.7928460   0.0000000   0.0000000   0.4037610   2.7928460   0.0000000
 AtZNuc=   1.0000000   1.0000000   1.0000000   1.0000000   1.0000000   6.0000000   6.0000000   7.0000000   1.0000000   6.0000000

  Atom        61          62          63          64          65          66          67          68          69          70
 IAtWgt=          14           1          12           1          12          12           1          12          12           1
 AtmWgt=  14.0030740   1.0078250  12.0000000   1.0078250  12.0000000  12.0000000   1.0078250  12.0000000  12.0000000   1.0078250
 NucSpn=           2           1           0           1           0           0           1           0           0           1
 AtZEff=  -0.0000000  -0.0000000  -0.0000000  -0.0000000  -0.0000000  -0.0000000  -0.0000000  -0.0000000  -0.0000000  -0.0000000
 NQMom=    2.0440000   0.0000000   0.0000000   0.0000000   0.0000000   0.0000000   0.0000000   0.0000000   0.0000000   0.0000000
 NMagM=    0.4037610   2.7928460   0.0000000   2.7928460   0.0000000   0.0000000   2.7928460   0.0000000   0.0000000   2.7928460
 AtZNuc=   7.0000000   1.0000000   6.0000000   1.0000000   6.0000000   6.0000000   1.0000000   6.0000000   6.0000000   1.0000000

  Atom        71          72          73          74          75          76          77          78          79          80
 IAtWgt=           1           1           1           1           1           1           1           1           1           1
 AtmWgt=   1.0078250   1.0078250   1.0078250   1.0078250   1.0078250   1.0078250   1.0078250   1.0078250   1.0078250   1.0078250
 NucSpn=           1           1           1           1           1           1           1           1           1           1
 AtZEff=  -0.0000000  -0.0000000  -0.0000000  -0.0000000  -0.0000000  -0.0000000  -0.0000000  -0.0000000  -0.0000000  -0.0000000
 NQMom=    0.0000000   0.0000000   0.0000000   0.0000000   0.0000000   0.0000000   0.0000000   0.0000000   0.0000000   0.0000000
 NMagM=    2.7928460   2.7928460   2.7928460   2.7928460   2.7928460   2.7928460   2.7928460   2.7928460   2.7928460   2.7928460
 AtZNuc=   1.0000000   1.0000000   1.0000000   1.0000000   1.0000000   1.0000000   1.0000000   1.0000000   1.0000000   1.0000000

  Atom        81          82          83          84          85          86          87          88          89          90
 IAtWgt=           1          12          12          14           1          12          14           1          12           1
 AtmWgt=   1.0078250  12.0000000  12.0000000  14.0030740   1.0078250  12.0000000  14.0030740   1.0078250  12.0000000   1.0078250
 NucSpn=           1           0           0           2           1           0           2           1           0           1
 AtZEff=  -0.0000000  -0.0000000  -0.0000000  -0.0000000  -0.0000000  -0.0000000  -0.0000000  -0.0000000  -0.0000000  -0.0000000
 NQMom=    0.0000000   0.0000000   0.0000000   2.0440000   0.0000000   0.0000000   2.0440000   0.0000000   0.0000000   0.0000000
 NMagM=    2.7928460   0.0000000   0.0000000   0.4037610   2.7928460   0.0000000   0.4037610   2.7928460   0.0000000   2.7928460
 AtZNuc=   1.0000000   6.0000000   6.0000000   7.0000000   1.0000000   6.0000000   7.0000000   1.0000000   6.0000000   1.0000000

  Atom        91          92          93          94          95          96          97          98          99         100
 IAtWgt=          12          12           1          12          12           1           1           1           1           1
 AtmWgt=  12.0000000  12.0000000   1.0078250  12.0000000  12.0000000   1.0078250   1.0078250   1.0078250   1.0078250   1.0078250
 NucSpn=           0           0           1           0           0           1           1           1           1           1
 AtZEff=  -0.0000000  -0.0000000  -0.0000000  -0.0000000  -0.0000000  -0.0000000  -0.0000000  -0.0000000  -0.0000000  -0.0000000
 NQMom=    0.0000000   0.0000000   0.0000000   0.0000000   0.0000000   0.0000000   0.0000000   0.0000000   0.0000000   0.0000000
 NMagM=    0.0000000   0.0000000   2.7928460   0.0000000   0.0000000   2.7928460   2.7928460   2.7928460   2.7928460   2.7928460
 AtZNuc=   6.0000000   6.0000000   1.0000000   6.0000000   6.0000000   1.0000000   1.0000000   1.0000000   1.0000000   1.0000000

  Atom       101         102         103         104         105         106         107         108         109         110
 IAtWgt=           1           1           1           1           1           1           1          12          12          14
 AtmWgt=   1.0078250   1.0078250   1.0078250   1.0078250   1.0078250   1.0078250   1.0078250  12.0000000  12.0000000  14.0030740
 NucSpn=           1           1           1           1           1           1           1           0           0           2
 AtZEff=  -0.0000000  -0.0000000  -0.0000000  -0.0000000  -0.0000000  -0.0000000  -0.0000000  -0.0000000  -0.0000000  -0.0000000
 NQMom=    0.0000000   0.0000000   0.0000000   0.0000000   0.0000000   0.0000000   0.0000000   0.0000000   0.0000000   2.0440000
 NMagM=    2.7928460   2.7928460   2.7928460   2.7928460   2.7928460   2.7928460   2.7928460   0.0000000   0.0000000   0.4037610
 AtZNuc=   1.0000000   1.0000000   1.0000000   1.0000000   1.0000000   1.0000000   1.0000000   6.0000000   6.0000000   7.0000000

  Atom       111         112         113         114         115         116         117         118         119         120
 IAtWgt=           1          12          14           1          12           1          12          12           1          12
 AtmWgt=   1.0078250  12.0000000  14.0030740   1.0078250  12.0000000   1.0078250  12.0000000  12.0000000   1.0078250  12.0000000
 NucSpn=           1           0           2           1           0           1           0           0           1           0
 AtZEff=  -0.0000000  -0.0000000  -0.0000000  -0.0000000  -0.0000000  -0.0000000  -0.0000000  -0.0000000  -0.0000000  -0.0000000
 NQMom=    0.0000000   0.0000000   2.0440000   0.0000000   0.0000000   0.0000000   0.0000000   0.0000000   0.0000000   0.0000000
 NMagM=    2.7928460   0.0000000   0.4037610   2.7928460   0.0000000   2.7928460   0.0000000   0.0000000   2.7928460   0.0000000
 AtZNuc=   1.0000000   6.0000000   7.0000000   1.0000000   6.0000000   1.0000000   6.0000000   6.0000000   1.0000000   6.0000000

  Atom       121         122         123         124         125         126         127         128         129         130
 IAtWgt=          12           1           1           1           1           1           1           1           1           1
 AtmWgt=  12.0000000   1.0078250   1.0078250   1.0078250   1.0078250   1.0078250   1.0078250   1.0078250   1.0078250   1.0078250
 NucSpn=           0           1           1           1           1           1           1           1           1           1
 AtZEff=  -0.0000000  -0.0000000  -0.0000000  -0.0000000  -0.0000000  -0.0000000  -0.0000000  -0.0000000  -0.0000000  -0.0000000
 NQMom=    0.0000000   0.0000000   0.0000000   0.0000000   0.0000000   0.0000000   0.0000000   0.0000000   0.0000000   0.0000000
 NMagM=    0.0000000   2.7928460   2.7928460   2.7928460   2.7928460   2.7928460   2.7928460   2.7928460   2.7928460   2.7928460
 AtZNuc=   6.0000000   1.0000000   1.0000000   1.0000000   1.0000000   1.0000000   1.0000000   1.0000000   1.0000000   1.0000000

  Atom       131         132         133         134         135         136         137         138
 IAtWgt=           1           1           1           1           1           1           1           1
 AtmWgt=   1.0078250   1.0078250   1.0078250   1.0078250   1.0078250   1.0078250   1.0078250   1.0078250
 NucSpn=           1           1           1           1           1           1           1           1
 AtZEff=  -0.0000000  -0.0000000  -0.0000000  -0.0000000  -0.0000000  -0.0000000  -0.0000000  -0.0000000
 NQMom=    0.0000000   0.0000000   0.0000000   0.0000000   0.0000000   0.0000000   0.0000000   0.0000000
 NMagM=    2.7928460   2.7928460   2.7928460   2.7928460   2.7928460   2.7928460   2.7928460   2.7928460
 AtZNuc=   1.0000000   1.0000000   1.0000000   1.0000000   1.0000000   1.0000000   1.0000000   1.0000000
 Leave Link  101 at Mon Oct 18 07:14:29 2021, MaxMem=  7864320000 cpu:               3.2 elap:               0.1
 (Enter /apps/gaussian/g16-c01-avx/g16/l202.exe)
 Stoichiometry    C50H80N8
 Framework group  C1[X(C50H80N8)]
 Deg. of freedom   408
 Full point group                 C1      NOp   1
 Largest Abelian subgroup         C1      NOp   1
 Largest concise Abelian subgroup C1      NOp   1
                         Standard orientation:                         
 ---------------------------------------------------------------------
 Center     Atomic      Atomic             Coordinates (Angstroms)
 Number     Number       Type             X           Y           Z
 ---------------------------------------------------------------------
      1          6           0       -0.947134    0.013390    2.163696
      2          6           0       -0.198206   -1.035491    2.842922
      3          6           0       -0.386781    1.269235    1.964489
      4          6           0       -1.075999    2.250207    1.249783
      5          1           0        0.586609    1.511334    2.363502
      6          6           0       -2.313602    1.946624    0.693002
      7          6           0       -2.886519    0.689906    0.880864
      8          1           0       -2.850944    2.674288    0.103870
      9          6           0       -2.209656   -0.258513    1.638896
     10          6           0       -4.130190    0.317117    0.225939
     11          1           0       -2.633831   -1.235134    1.811635
     12          6           0       -0.513752    3.583430    1.086003
     13          1           0       -4.510649   -0.683308    0.481514
     14          1           0        0.873346   -0.833162    2.994684
     15          1           0       -1.118866    4.286511    0.490415
     16          6           0       -0.674180   -2.617257   -0.487966
     17          6           0       -0.806620   -3.447989    0.699035
     18          6           0       -1.813449   -2.098722   -1.095560
     19          6           0       -1.708892   -1.155894   -2.115851
     20          1           0       -2.799712   -2.384535   -0.764181
     21          6           0       -0.446675   -0.771126   -2.559322
     22          6           0        0.702815   -1.313943   -1.989860
     23          1           0       -0.357625   -0.034546   -3.346594
     24          6           0        0.580459   -2.224919   -0.945169
     25          6           0        2.019795   -0.886435   -2.443673
     26          1           0        1.467256   -2.614617   -0.473032
     27          6           0       -2.895879   -0.489505   -2.629473
     28          1           0        2.034615   -0.154521   -3.267361
     29          1           0       -2.705105    0.399480   -3.252541
     30          6           0       -0.030093   -4.358629    2.688642
     31          6           0        0.064180   -3.186351    3.713212
     32          7           0        0.189437   -3.770499    1.401783
     33          1           0       -1.049339   -4.774445    2.761894
     34          6           0        0.992192   -5.481866    2.930245
     35          7           0       -0.735825   -2.121693    3.187342
     36          1           0        1.122697   -2.883411    3.780951
     37          6           0       -0.434381   -3.565713    5.121468
     38          1           0        0.875488   -5.841940    3.957820
     39          6           0        2.428058   -5.007361    2.722404
     40          6           0        0.682609   -6.636579    1.977162
     41          1           0        0.086253   -4.477305    5.431643
     42          6           0       -1.940204   -3.812355    5.155168
     43          6           0       -0.068260   -2.448354    6.098505
     44          1           0        1.369438   -7.462927    2.144481
     45          1           0        0.783765   -6.302033    0.947067
     46          1           0       -0.332845   -6.999188    2.124810
     47          1           0        3.107129   -5.856789    2.745768
     48          1           0        2.732185   -4.312103    3.500220
     49          1           0        2.511989   -4.513198    1.758941
     50          1           0       -0.566982   -1.523858    5.814733
     51          1           0        1.005999   -2.274613    6.103560
     52          1           0       -0.377121   -2.711925    7.107447
     53          1           0       -2.266982   -3.972525    6.180304
     54          1           0       -2.210233   -4.690270    4.574422
     55          1           0       -2.462373   -2.950621    4.748598
     56          6           0        1.074639    5.253587    1.479006
     57          6           0        2.536685    5.196609    0.935273
     58          7           0        0.581949    3.916003    1.612147
     59          1           0        0.444723    5.826578    0.776682
     60          6           0        0.934209    5.946954    2.856726
     61          7           0        3.210222    3.947125    1.248261
     62          1           0        3.122486    5.996761    1.399606
     63          6           0        2.576190    5.413997   -0.591685
     64          1           0       -0.114488    5.809810    3.152651
     65          6           0        1.200605    7.446148    2.753936
     66          6           0        1.807503    5.310925    3.934043
     67          1           0        1.895830    4.688297   -1.054060
     68          6           0        3.989138    5.165507   -1.118457
     69          6           0        2.149791    6.827222   -0.986532
     70          1           0        1.570674    5.744006    4.903978
     71          1           0        2.862294    5.485932    3.735409
     72          1           0        1.621840    4.240732    3.981104
     73          1           0        0.559489    7.903281    2.003514
     74          1           0        2.235466    7.644562    2.487004
     75          1           0        1.000515    7.921881    3.711504
     76          1           0        1.118044    7.040092   -0.719485
     77          1           0        2.247872    6.953836   -2.062558
     78          1           0        2.786542    7.561198   -0.497112
     79          1           0        4.671921    5.908043   -0.712542
     80          1           0        4.004356    5.237659   -2.203749
     81          1           0        4.337802    4.183149   -0.820722
     82          6           0       -5.792583    0.494298   -1.376390
     83          6           0       -5.181328   -0.044739   -2.705866
     84          7           0       -4.700090    1.048176   -0.630110
     85          1           0       -6.223543   -0.371760   -0.846844
     86          6           0       -6.884024    1.559257   -1.571514
     87          7           0       -4.063701   -0.856124   -2.328968
     88          1           0       -4.850258    0.824398   -3.300457
     89          6           0       -6.170899   -0.872083   -3.548283
     90          1           0       -7.680116    1.129592   -2.188190
     91          6           0       -6.346320    2.817836   -2.246847
     92          6           0       -7.472086    1.910449   -0.204521
     93          1           0       -7.056545   -0.256099   -3.733576
     94          6           0       -6.590905   -2.161081   -2.847501
     95          6           0       -5.524807   -1.197591   -4.895304
     96          1           0       -7.872089    1.023955    0.283538
     97          1           0       -8.275390    2.635920   -0.310794
     98          1           0       -6.699347    2.335348    0.432171
     99          1           0       -5.453753    3.154847   -1.727763
    100          1           0       -7.094090    3.607117   -2.213517
    101          1           0       -6.098630    2.632375   -3.288758
    102          1           0       -5.227040   -0.287243   -5.412292
    103          1           0       -6.223926   -1.738048   -5.529347
    104          1           0       -4.641924   -1.815907   -4.747758
    105          1           0       -7.174298   -2.779236   -3.526351
    106          1           0       -7.200693   -1.954431   -1.972036
    107          1           0       -5.708103   -2.713850   -2.538272
    108          6           0        5.142016   -2.105282   -2.809902
    109          6           0        4.358557   -0.862505   -2.328745
    110          7           0        4.479790   -2.573053   -4.024843
    111          1           0        5.085438   -2.853177   -1.999562
    112          6           0        6.628886   -1.834495   -3.108330
    113          7           0        3.071777   -1.324648   -1.906731
    114          1           0        4.273089   -0.168785   -3.183847
    115          6           0        4.997507   -0.105798   -1.143250
    116          1           0        7.088801   -1.445789   -2.194984
    117          6           0        6.802742   -0.817445   -4.232828
    118          6           0        7.353618   -3.134705   -3.463454
    119          1           0        5.987226    0.238841   -1.456729
    120          6           0        5.135729   -0.990093    0.092615
    121          6           0        4.155604    1.126750   -0.812351
    122          1           0        7.154257   -3.905349   -2.720872
    123          1           0        8.427481   -2.964027   -3.496434
    124          1           0        7.042455   -3.497891   -4.439716
    125          1           0        6.214903   -1.124777   -5.093206
    126          1           0        7.849235   -0.752742   -4.522146
    127          1           0        6.473120    0.170055   -3.921643
    128          1           0        4.636324    1.716865   -0.035858
    129          1           0        3.170483    0.828156   -0.458853
    130          1           0        4.029531    1.754398   -1.692415
    131          1           0        4.170051   -1.417389    0.348077
    132          1           0        5.492545   -0.398056    0.932770
    133          1           0        5.840585   -1.799236   -0.078357
    134          1           0       -1.837007   -3.705538    0.988442
    135          1           0        2.677695    3.177988    0.852522
    136          1           0        3.220248    3.807774    2.251546
    137          1           0        3.490410   -2.703466   -3.841496
    138          1           0        4.857831   -3.472068   -4.301370
 ---------------------------------------------------------------------
 Rotational constants (GHZ):           0.0362165           0.0310111           0.0260591
 Leave Link  202 at Mon Oct 18 07:14:29 2021, MaxMem=  7864320000 cpu:               0.2 elap:               0.0
 (Enter /apps/gaussian/g16-c01-avx/g16/l301.exe)
 Standard basis: def2TZVP (5D, 7F)
 Ernie: Thresh=  0.10000D-02 Tol=  0.10000D-05 Strict=F.
 There are  2568 symmetry adapted cartesian basis functions of A   symmetry.
 There are  2278 symmetry adapted basis functions of A   symmetry.
  2278 basis functions,  3598 primitive gaussians,  2568 cartesian basis functions
   218 alpha electrons      218 beta electrons
       nuclear repulsion energy      8758.5231894044 Hartrees.
 IExCor= 1009 DFT=T Ex+Corr=PBE1PBE ExCW=0 ScaHFX=  0.250000
 ScaDFX=  0.750000  0.750000  1.000000  1.000000 ScalE2=  1.000000  1.000000
 IRadAn=      7 IRanWt=     -1 IRanGd=            0 ICorTp=0 IEmpDi=131
 NAtoms=  138 NActive=  138 NUniq=  138 SFac= 1.00D+00 NAtFMM=   60 NAOKFM=T Big=T
 Integral buffers will be    131072 words long.
 Raffenetti 2 integral format.
 Two-electron integral symmetry is turned on.
 R6Disp:  Grimme-D3 Dispersion energy=       -0.1194940245 Hartrees.
 Nuclear repulsion after empirical dispersion term =     8758.4036953799 Hartrees.
 ------------------------------------------------------------------------------
 Polarizable Continuum Model (PCM)
 =================================
 Model                : PCM.
 Atomic radii         : UFF (Universal Force Field).
 Polarization charges : Total charges.
 Charge compensation  : None.
 Solution method      : On-the-fly selection.
 Cavity type          : Scaled VdW (van der Waals Surface) (Alpha=1.100).
 Cavity algorithm     : GePol (No added spheres)
                        Default sphere list used, NSphG=  138.
                        Lebedev-Laikov grids with approx.  5.0 points / Ang**2.
                        Smoothing algorithm: York/Karplus (Gamma=1.0000).
                        Polarization charges: spherical gaussians, with
                                              point-specific exponents (IZeta= 3).
                        Self-potential: point-specific (ISelfS= 7).
                        Self-field    : sphere-specific E.n sum rule (ISelfD= 2).
 Solvent              : Chloroform, Eps=   4.711300 Eps(inf)=   2.090627
 ------------------------------------------------------------------------------
 GePol: Number of generator spheres                  =     138
 GePol: Total number of spheres                      =     138
 GePol: Number of exposed spheres                    =     138 (100.00%)
 GePol: Number of points                             =    7790
 GePol: Average weight of points                     =       0.13
 GePol: Minimum weight of points                     =   0.84D-10
 GePol: Maximum weight of points                     =    0.20577
 GePol: Number of points with low weight             =     590
 GePol: Fraction of low-weight points (<1% of avg)   =       7.57%
 GePol: Cavity surface area                          =   1008.496 Ang**2
 GePol: Cavity volume                                =   1226.859 Ang**3
 Leave Link  301 at Mon Oct 18 07:14:29 2021, MaxMem=  7864320000 cpu:               1.5 elap:               0.1
 (Enter /apps/gaussian/g16-c01-avx/g16/l302.exe)
 NPDir=0 NMtPBC=     1 NCelOv=     1 NCel=       1 NClECP=     1 NCelD=      1
         NCelK=      1 NCelE2=     1 NClLst=     1 CellRange=     0.0.
 One-electron integrals computed using PRISM.
 One-electron integral symmetry used in STVInt
   1 Symmetry operations used in ECPInt.
 ECPInt:  NShTT=  459361 NPrTT= 1347136 LenC2=  296116 LenP2D=  559443.
 LDataN:  DoStor=T MaxTD1= 6 Len=  172
 Number of processors reduced to  31 by ecpmxn.
 NBasis=  2278 RedAO= T EigKep=  4.52D-06  NBF=  2278
 NBsUse=  2278 1.00D-06 EigRej= -1.00D+00 NBFU=  2278
 Precomputing XC quadrature grid using
 IXCGrd= 4 IRadAn=           7 IRanWt=          -1 IRanGd=           0 AccXCQ= 0.00D+00.
 Generated NRdTot=       0 NPtTot=           0 NUsed=           0 NTot=          32
 NSgBfM=  2242  2242  2242  2242  2242 MxSgAt=   138 MxSgA2=   138.
 Leave Link  302 at Mon Oct 18 07:14:44 2021, MaxMem=  7864320000 cpu:             474.7 elap:              14.9
 (Enter /apps/gaussian/g16-c01-avx/g16/l303.exe)
 DipDrv:  MaxL=1.
 Leave Link  303 at Mon Oct 18 07:14:45 2021, MaxMem=  7864320000 cpu:              22.4 elap:               0.9
 (Enter /apps/gaussian/g16-c01-avx/g16/l401.exe)
 ExpMin= 9.52D-02 ExpMax= 1.97D+04 ExpMxC= 6.73D+02 IAcc=3 IRadAn=         7 AccDes= 0.00D+00
 Harris functional with IExCor= 1009 and IRadAn=       7 diagonalized for initial guess.
 HarFok:  IExCor= 1009 AccDes= 0.00D+00 IRadAn=         7 IDoV= 1 UseB2=F ITyADJ=14
 ICtDFT=  3500011 ScaDFX=  1.000000  1.000000  1.000000  1.000000
 FoFCou: FMM=F IPFlag=           0 FMFlag=      100000 FMFlg1=        2001
         NFxFlg=           0 DoJE=T BraDBF=F KetDBF=T FulRan=T
         wScrn=  0.000000 ICntrl=       500 IOpCl=  0 I1Cent=   200000004 NGrid=           0
         NMat0=    1 NMatS0=      1 NMatT0=    0 NMatD0=    1 NMtDS0=    0 NMtDT0=    0
 Petite list used in FoFCou.
 Harris En= -2390.53941938399    
 JPrj=0 DoOrth=F DoCkMO=F.
 Leave Link  401 at Mon Oct 18 07:15:23 2021, MaxMem=  7864320000 cpu:            1224.0 elap:              38.5
 (Enter /apps/gaussian/g16-c01-avx/g16/l508.exe)
 Integral symmetry usage will be decided dynamically.
 Tight linear equation convergence will be used.
 RPBE1PBE wavefunction.
 Linear searches until partial convergence.
 Full line searches.
 Fock matrices will be formed incrementally for  20 cycles.
 Inv3:  Mode=1 IEnd=   182052300.
 Iteration    1 A*A^-1 deviation from unit magnitude is 9.77D-15 for   7790.
 Iteration    1 A*A^-1 deviation from orthogonality  is 3.81D-15 for   7762   7746.
 Iteration    1 A^-1*A deviation from unit magnitude is 9.77D-15 for   7790.
 Iteration    1 A^-1*A deviation from orthogonality  is 1.80D-14 for   6851   6822.
 FoFJK:  IHMeth= 1 ICntrl=       0 DoSepK=F KAlg= 0 I1Cent=           0 FoldK=F
 IRaf= 600000000 NMat=       1 IRICut=       1 DoRegI=T DoRafI=F ISym2E= 1 IDoP0=0 IntGTp=1.
 Iteration   1 EE= -2387.86486526782                                    Grad=1.902D+00 Max rot=    2.0514 deg.
 Gradient too large for Newton-Raphson -- use scaled steepest descent instead.
 Alpha Gap=     0.176 HL deriv= 1.18D-03
     ILin= 1 X=0.000D+00 Y=-2.387864865268D+03 DE= 0.00D+00 F= -7.53D+00
 RMSU=  3.93D-04    CP:  9.85D-01
     ILin= 2 X=3.000D-01 Y=-2.389333973921D+03 DE=-1.47D+00 F= -2.25D+00 OKLS=F
 RMSU=  5.67D-05    CP:  9.75D-01  1.68D+00
     ILin= 3 X=5.000D-01 Y=-2.389426890670D+03 DE=-1.56D+00 F=  1.32D+00
     Accept linear search using points  2 and  3.
     An  expanding polynomial of degree  3 produced  0.3947
 RMSU=  4.88D-08    CP:  9.80D-01  1.32D+00  3.74D-01
 Iteration   2 EE= -2389.46679981761     Delta-E=       -1.601934549795 Grad=5.389D-01 Max rot=    1.7185 deg.
 Gradient too large for Newton-Raphson -- use scaled steepest descent instead.
 Alpha Gap=     0.192 HL deriv= 1.48D-02
     ILin= 1 X=0.000D+00 Y=-2.389466799818D+03 DE= 0.00D+00 F= -2.62D-01
 RMSU=  8.86D-05    CP:  9.76D-01  1.48D+00  6.46D-01 -3.00D+00
     ILin= 2 X=3.000D-01 Y=-2.389526935058D+03 DE=-6.01D-02 F= -1.39D-01 OKLS=F
 RMSU=  7.26D-06    CP:  9.71D-01  1.65D+00  1.05D+00 -3.00D+00  2.00D+00
     ILin= 3 X=6.000D-01 Y=-2.389550004188D+03 DE=-8.32D-02 F= -1.52D-02
 RMSU=  9.04D-05    CP:  9.64D-01  1.98D+00  2.25D+00 -3.00D+00  3.00D+00
                    CP:  3.00D+00
     ILin= 4 X=1.200D+00 Y=-2.389485355658D+03 DE=-1.86D-02 F=  2.30D-01
     An  expanding polynomial of degree  4 produced  0.6371
     Minimum is close to point  3 DX=  3.71D-02 DF= -2.83D-04 DXR=  5.82D-02 DFR=  3.40D-03 which will be used.
 Iteration   3 EE= -2389.55000418770     Delta-E=       -0.083204370087 Grad=2.045D-01 Max rot=    0.6042 deg.
 Gradient too large for Newton-Raphson -- use scaled steepest descent instead.
 Alpha Gap=     0.181 HL deriv= 1.51D-02
     ILin= 1 X=0.000D+00 Y=-2.389550004188D+03 DE= 0.00D+00 F= -4.69D-02
 RMSU=  6.67D-05    CP:  9.70D-01  1.79D+00  1.56D+00 -3.00D+00  2.58D+00
                    CP:  1.87D+00 -1.59D-04
     ILin= 2 X=5.000D-01 Y=-2.389558954157D+03 DE=-8.95D-03 F=  1.12D-02 OKLS=T
     Accept linear search using points  1 and  2.
     An  expanding polynomial of degree  2 produced  0.2958
 RMSU=  5.07D-07    CP:  9.70D-01  1.73D+00  1.34D+00 -3.00D+00  2.34D+00
                    CP:  1.45D+00 -9.42D-05  5.91D-01
 Iteration   4 EE= -2389.55881205479     Delta-E=       -0.008807867087 Grad=1.238D-01 Max rot=    0.4262 deg.
 Gradient too large for Newton-Raphson -- use scaled steepest descent instead.
 Alpha Gap=     0.188 HL deriv= 6.19D-04
     ILin= 1 X=0.000D+00 Y=-2.389558812055D+03 DE= 0.00D+00 F= -8.57D-03
 RMSU=  2.15D-05    CP:  9.68D-01  1.80D+00  1.64D+00 -3.00D+00  2.88D+00
                    CP:  2.36D+00  1.80D-04  1.05D+00  5.88D-01
     ILin= 2 X=6.000D-01 Y=-2.389562247026D+03 DE=-3.43D-03 F= -2.88D-03 OKLS=F
 RMSU=  5.14D-06    CP:  9.66D-01  1.89D+00  2.06D+00 -3.00D+00  3.00D+00
                    CP:  3.00D+00  4.92D-01  1.58D+00 -2.75D+00  2.18D+00
     ILin= 3 X=1.300D+00 Y=-2.389561942080D+03 DE=-3.13D-03 F=  3.75D-03
     An  expanding polynomial of degree  3 produced  0.9040
 RMSU=  5.47D-07    CP:  9.67D-01  1.84D+00  1.82D+00 -3.00D+00  3.00D+00
                    CP:  2.94D+00  1.42D-01  1.28D+00 -4.85D-01  1.51D+00
                    CP:  6.16D-01
 Iteration   5 EE= -2389.56268502547     Delta-E=       -0.003872970681 Grad=1.850D-02 Max rot=    0.0278 deg.
 Gradient too large for Newton-Raphson -- use scaled steepest descent instead.
 Alpha Gap=     0.188 HL deriv= 1.28D-03
     ILin= 1 X=0.000D+00 Y=-2.389562685025D+03 DE= 0.00D+00 F= -6.23D-04
 RMSU=  1.21D-05    CP:  9.67D-01  1.86D+00  1.94D+00 -3.00D+00  3.00D+00
                    CP:  3.00D+00  2.26D-01  1.38D+00 -2.22D+00  1.66D+00
                    CP:  6.14D-01  1.68D+00
     ILin= 2 X=5.000D-01 Y=-2.389562830769D+03 DE=-1.46D-04 F=  3.96D-05 OKLS=T
     Accept linear search using points  1 and  2.
     An  expanding polynomial of degree  2 produced  0.3406
 RMSU=  1.39D-08    CP:  9.67D-01  1.85D+00  1.90D+00 -3.00D+00  3.00D+00
                    CP:  3.00D+00  1.99D-01  1.35D+00 -1.65D+00  1.61D+00
                    CP:  6.39D-01  1.55D+00  6.81D-01
 Iteration   6 EE= -2389.56282025316     Delta-E=       -0.000135227696 Grad=8.702D-03 Max rot=    0.0124 deg.
 SCF Done:  E(RPBE1PBE) =  -2389.56282025     a.u. after    6 cycles
            Convg  =    0.8702D-02                    14 Fock formations.
              S**2 =  0.0000                  -V/T =  2.0048
 Leave Link  508 at Mon Oct 18 08:12:04 2021, MaxMem=  7864320000 cpu:          107746.3 elap:            3400.4
 (Enter /apps/gaussian/g16-c01-avx/g16/l502.exe)
 Integral symmetry usage will be decided dynamically.
 Closed shell SCF:
 Using DIIS extrapolation, IDIIS=  1040.
 NGot=  7864320000 LenX=  7851022314 LenY=  7844425122
 Requested convergence on RMS density matrix=1.00D-08 within 128 cycles.
 Requested convergence on MAX density matrix=1.00D-06.
 Requested convergence on             energy=1.00D-06.
 No special actions if energy rises.
 Fock matrices will be formed incrementally for  20 cycles.

 Cycle   1  Pass 1  IDiag  1:
 FoFJK:  IHMeth= 1 ICntrl=       0 DoSepK=F KAlg= 0 I1Cent=           0 FoldK=F
 IRaf= 600000000 NMat=       1 IRICut=       1 DoRegI=T DoRafI=F ISym2E= 0 IDoP0=0 IntGTp=1.
 FoFCou: FMM=T IPFlag=           0 FMFlag=      100000 FMFlg1=        2001
         NFxFlg=           0 DoJE=F BraDBF=F KetDBF=F FulRan=T
         wScrn=  0.000000 ICntrl=         0 IOpCl=  0 I1Cent=           0 NGrid=           0
         NMat0=    1 NMatS0=      1 NMatT0=    0 NMatD0=    1 NMtDS0=    0 NMtDT0=    0
 Symmetry not used in FoFCou.
 FMM levels:  10  Number of levels for PrismC:   9
 E= -2389.56282025326    
 DIIS: error= 4.66D-05 at cycle   1 NSaved=   1.
 NSaved= 1 IEnMin= 1 EnMin= -2389.56282025326     IErMin= 1 ErrMin= 4.66D-05
 ErrMax= 4.66D-05  0.00D+00 EMaxC= 1.00D-01 BMatC= 3.79D-05 BMatP= 3.79D-05
 IDIUse=1 WtCom= 1.00D+00 WtEn= 0.00D+00
 Coeff-Com:  0.100D+01
 Coeff:      0.100D+01
 Gap=     0.188 Goal=   None    Shift=    0.000
 RMSDP=2.64D-05 MaxDP=6.01D-03              OVMax= 8.44D-04

 Cycle   2  Pass 1  IDiag  1:
 RMSU=  2.63D-05    CP:  1.00D+00
 E= -2389.56285349967     Delta-E=       -0.000033246404 Rises=F Damp=F
 DIIS: error= 2.77D-05 at cycle   2 NSaved=   2.
 NSaved= 2 IEnMin= 2 EnMin= -2389.56285349967     IErMin= 2 ErrMin= 2.77D-05
 ErrMax= 2.77D-05  0.00D+00 EMaxC= 1.00D-01 BMatC= 7.08D-06 BMatP= 3.79D-05
 IDIUse=1 WtCom= 1.00D+00 WtEn= 0.00D+00
 Coeff-Com:  0.217D+00 0.783D+00
 Coeff:      0.217D+00 0.783D+00
 Gap=     0.169 Goal=   None    Shift=    0.000
 RMSDP=3.49D-06 MaxDP=7.16D-04 DE=-3.32D-05 OVMax= 6.68D-04

 Cycle   3  Pass 1  IDiag  1:
 RMSU=  3.46D-06    CP:  1.00D+00  9.84D-01
 E= -2389.56285623870     Delta-E=       -0.000002739031 Rises=F Damp=F
 DIIS: error= 2.29D-05 at cycle   3 NSaved=   3.
 NSaved= 3 IEnMin= 3 EnMin= -2389.56285623870     IErMin= 3 ErrMin= 2.29D-05
 ErrMax= 2.29D-05  0.00D+00 EMaxC= 1.00D-01 BMatC= 4.78D-06 BMatP= 7.08D-06
 IDIUse=1 WtCom= 1.00D+00 WtEn= 0.00D+00
 Coeff-Com:  0.124D-01 0.447D+00 0.541D+00
 Coeff:      0.124D-01 0.447D+00 0.541D+00
 Gap=     0.170 Goal=   None    Shift=    0.000
 RMSDP=1.53D-06 MaxDP=3.58D-04 DE=-2.74D-06 OVMax= 4.75D-04

 Cycle   4  Pass 1  IDiag  1:
 RMSU=  1.29D-06    CP:  1.00D+00  1.00D+00  8.03D-01
 E= -2389.56285997108     Delta-E=       -0.000003732381 Rises=F Damp=F
 DIIS: error= 1.15D-05 at cycle   4 NSaved=   4.
 NSaved= 4 IEnMin= 4 EnMin= -2389.56285997108     IErMin= 4 ErrMin= 1.15D-05
 ErrMax= 1.15D-05  0.00D+00 EMaxC= 1.00D-01 BMatC= 9.26D-07 BMatP= 4.78D-06
 IDIUse=1 WtCom= 1.00D+00 WtEn= 0.00D+00
 Coeff-Com: -0.849D-02 0.232D+00 0.364D+00 0.412D+00
 Coeff:     -0.849D-02 0.232D+00 0.364D+00 0.412D+00
 Gap=     0.170 Goal=   None    Shift=    0.000
 RMSDP=8.03D-07 MaxDP=2.20D-04 DE=-3.73D-06 OVMax= 1.76D-04

 Cycle   5  Pass 1  IDiag  1:
 RMSU=  2.86D-07    CP:  1.00D+00  1.02D+00  7.60D-01  5.67D-01
 E= -2389.56286082431     Delta-E=       -0.000000853232 Rises=F Damp=F
 DIIS: error= 1.56D-06 at cycle   5 NSaved=   5.
 NSaved= 5 IEnMin= 5 EnMin= -2389.56286082431     IErMin= 5 ErrMin= 1.56D-06
 ErrMax= 1.56D-06  0.00D+00 EMaxC= 1.00D-01 BMatC= 1.54D-08 BMatP= 9.26D-07
 IDIUse=1 WtCom= 1.00D+00 WtEn= 0.00D+00
 Coeff-Com: -0.496D-02 0.564D-01 0.102D+00 0.162D+00 0.685D+00
 Coeff:     -0.496D-02 0.564D-01 0.102D+00 0.162D+00 0.685D+00
 Gap=     0.170 Goal=   None    Shift=    0.000
 RMSDP=1.26D-07 MaxDP=2.18D-05 DE=-8.53D-07 OVMax= 3.24D-05

 Cycle   6  Pass 1  IDiag  1:
 RMSU=  8.37D-08    CP:  1.00D+00  1.02D+00  7.78D-01  6.13D-01  8.80D-01
 E= -2389.56286083626     Delta-E=       -0.000000011949 Rises=F Damp=F
 DIIS: error= 8.98D-07 at cycle   6 NSaved=   6.
 NSaved= 6 IEnMin= 6 EnMin= -2389.56286083626     IErMin= 6 ErrMin= 8.98D-07
 ErrMax= 8.98D-07  0.00D+00 EMaxC= 1.00D-01 BMatC= 3.09D-09 BMatP= 1.54D-08
 IDIUse=1 WtCom= 1.00D+00 WtEn= 0.00D+00
 Coeff-Com: -0.195D-02 0.937D-02 0.215D-01 0.463D-01 0.362D+00 0.563D+00
 Coeff:     -0.195D-02 0.937D-02 0.215D-01 0.463D-01 0.362D+00 0.563D+00
 Gap=     0.170 Goal=   None    Shift=    0.000
 RMSDP=3.25D-08 MaxDP=3.23D-06 DE=-1.19D-08 OVMax= 1.16D-05

 Cycle   7  Pass 1  IDiag  1:
 RMSU=  2.34D-08    CP:  1.00D+00  1.02D+00  7.80D-01  6.17D-01  9.35D-01
                    CP:  8.45D-01
 E= -2389.56286083907     Delta-E=       -0.000000002812 Rises=F Damp=F
 DIIS: error= 1.27D-07 at cycle   7 NSaved=   7.
 NSaved= 7 IEnMin= 7 EnMin= -2389.56286083907     IErMin= 7 ErrMin= 1.27D-07
 ErrMax= 1.27D-07  0.00D+00 EMaxC= 1.00D-01 BMatC= 1.23D-10 BMatP= 3.09D-09
 IDIUse=1 WtCom= 1.00D+00 WtEn= 0.00D+00
 Coeff-Com: -0.343D-03-0.682D-03 0.300D-03 0.519D-02 0.909D-01 0.224D+00
 Coeff-Com:  0.680D+00
 Coeff:     -0.343D-03-0.682D-03 0.300D-03 0.519D-02 0.909D-01 0.224D+00
 Coeff:      0.680D+00
 Gap=     0.170 Goal=   None    Shift=    0.000
 RMSDP=1.24D-08 MaxDP=2.85D-06 DE=-2.81D-09 OVMax= 3.58D-06

 Cycle   8  Pass 1  IDiag  1:
 RMSU=  9.21D-09    CP:  1.00D+00  1.02D+00  7.80D-01  6.23D-01  9.42D-01
                    CP:  8.75D-01  8.97D-01
 E= -2389.56286083901     Delta-E=        0.000000000056 Rises=F Damp=F
 DIIS: error= 7.07D-08 at cycle   8 NSaved=   8.
 NSaved= 8 IEnMin= 7 EnMin= -2389.56286083907     IErMin= 8 ErrMin= 7.07D-08
 ErrMax= 7.07D-08  0.00D+00 EMaxC= 1.00D-01 BMatC= 3.41D-11 BMatP= 1.23D-10
 IDIUse=1 WtCom= 1.00D+00 WtEn= 0.00D+00
 Coeff-Com:  0.269D-04-0.154D-02-0.238D-02-0.239D-02 0.122D-01 0.666D-01
 Coeff-Com:  0.392D+00 0.535D+00
 Coeff:      0.269D-04-0.154D-02-0.238D-02-0.239D-02 0.122D-01 0.666D-01
 Coeff:      0.392D+00 0.535D+00
 Gap=     0.170 Goal=   None    Shift=    0.000
 RMSDP=4.28D-09 MaxDP=1.59D-06 DE= 5.64D-11 OVMax= 1.40D-06

 Cycle   9  Pass 1  IDiag  1:
 RMSU=  3.18D-09    CP:  1.00D+00  1.02D+00  7.80D-01  6.23D-01  9.46D-01
                    CP:  8.78D-01  9.26D-01  7.66D-01
 E= -2389.56286083915     Delta-E=       -0.000000000136 Rises=F Damp=F
 DIIS: error= 2.20D-08 at cycle   9 NSaved=   9.
 NSaved= 9 IEnMin= 9 EnMin= -2389.56286083915     IErMin= 9 ErrMin= 2.20D-08
 ErrMax= 2.20D-08  0.00D+00 EMaxC= 1.00D-01 BMatC= 5.31D-12 BMatP= 3.41D-11
 IDIUse=1 WtCom= 1.00D+00 WtEn= 0.00D+00
 Coeff-Com:  0.573D-04-0.776D-03-0.136D-02-0.207D-02-0.548D-02 0.709D-02
 Coeff-Com:  0.139D+00 0.326D+00 0.538D+00
 Coeff:      0.573D-04-0.776D-03-0.136D-02-0.207D-02-0.548D-02 0.709D-02
 Coeff:      0.139D+00 0.326D+00 0.538D+00
 Gap=     0.170 Goal=   None    Shift=    0.000
 RMSDP=1.94D-09 MaxDP=5.94D-07 DE=-1.36D-10 OVMax= 3.70D-07

 Error on total polarization charges =  0.02284
 SCF Done:  E(RPBE1PBE) =  -2389.56286084     A.U. after    9 cycles
            NFock=  9  Conv=0.19D-08     -V/T= 2.0048
 KE= 2.378139064642D+03 PE=-2.306566026719D+04 EE= 9.539554646327D+03
 Leave Link  502 at Mon Oct 18 08:44:09 2021, MaxMem=  7864320000 cpu:           61108.1 elap:            1924.8
 (Enter /apps/gaussian/g16-c01-avx/g16/l508.exe)
 QCSCF skips out because SCF is already converged.
 Leave Link  508 at Mon Oct 18 08:44:09 2021, MaxMem=  7864320000 cpu:               0.0 elap:               0.0
 (Enter /apps/gaussian/g16-c01-avx/g16/l601.exe)
 Copying SCF densities to generalized density rwf, IOpCl= 0 IROHF=0.
 Hyperfine terms turned off by default for NAtoms > 100.

 **********************************************************************

            Population analysis using the SCF Density.

 **********************************************************************

 Orbital symmetries:
       Occupied  (A) (A) (A) (A) (A) (A) (A) (A) (A) (A) (A) (A)
                 (A) (A) (A) (A) (A) (A) (A) (A) (A) (A) (A) (A)
                 (A) (A) (A) (A) (A) (A) (A) (A) (A) (A) (A) (A)
                 (A) (A) (A) (A) (A) (A) (A) (A) (A) (A) (A) (A)
                 (A) (A) (A) (A) (A) (A) (A) (A) (A) (A) (A) (A)
                 (A) (A) (A) (A) (A) (A) (A) (A) (A) (A) (A) (A)
                 (A) (A) (A) (A) (A) (A) (A) (A) (A) (A) (A) (A)
                 (A) (A) (A) (A) (A) (A) (A) (A) (A) (A) (A) (A)
                 (A) (A) (A) (A) (A) (A) (A) (A) (A) (A) (A) (A)
                 (A) (A) (A) (A) (A) (A) (A) (A) (A) (A) (A) (A)
                 (A) (A) (A) (A) (A) (A) (A) (A) (A) (A) (A) (A)
                 (A) (A) (A) (A) (A) (A) (A) (A) (A) (A) (A) (A)
                 (A) (A) (A) (A) (A) (A) (A) (A) (A) (A) (A) (A)
                 (A) (A) (A) (A) (A) (A) (A) (A) (A) (A) (A) (A)
                 (A) (A) (A) (A) (A) (A) (A) (A) (A) (A) (A) (A)
                 (A) (A) (A) (A) (A) (A) (A) (A) (A) (A) (A) (A)
                 (A) (A) (A) (A) (A) (A) (A) (A) (A) (A) (A) (A)
                 (A) (A) (A) (A) (A) (A) (A) (A) (A) (A) (A) (A)
                 (A) (A)
       Virtual   (A) (A) (A) (A) (A) (A) (A) (A) (A) (A) (A) (A)
                 (A) (A) (A) (A) (A) (A) (A) (A) (A) (A) (A) (A)
                 (A) (A) (A) (A) (A) (A) (A) (A) (A) (A) (A) (A)
                 (A) (A) (A) (A) (A) (A) (A) (A) (A) (A) (A) (A)
                 (A) (A) (A) (A) (A) (A) (A) (A) (A) (A) (A) (A)
                 (A) (A) (A) (A) (A) (A) (A) (A) (A) (A) (A) (A)
                 (A) (A) (A) (A) (A) (A) (A) (A) (A) (A) (A) (A)
                 (A) (A) (A) (A) (A) (A) (A) (A) (A) (A) (A) (A)
                 (A) (A) (A) (A) (A) (A) (A) (A) (A) (A) (A) (A)
                 (A) (A) (A) (A) (A) (A) (A) (A) (A) (A) (A) (A)
                 (A) (A) (A) (A) (A) (A) (A) (A) (A) (A) (A) (A)
                 (A) (A) (A) (A) (A) (A) (A) (A) (A) (A) (A) (A)
                 (A) (A) (A) (A) (A) (A) (A) (A) (A) (A) (A) (A)
                 (A) (A) (A) (A) (A) (A) (A) (A) (A) (A) (A) (A)
                 (A) (A) (A) (A) (A) (A) (A) (A) (A) (A) (A) (A)
                 (A) (A) (A) (A) (A) (A) (A) (A) (A) (A) (A) (A)
                 (A) (A) (A) (A) (A) (A) (A) (A) (A) (A) (A) (A)
                 (A) (A) (A) (A) (A) (A) (A) (A) (A) (A) (A) (A)
                 (A) (A) (A) (A) (A) (A) (A) (A) (A) (A) (A) (A)
                 (A) (A) (A) (A) (A) (A) (A) (A) (A) (A) (A) (A)
                 (A) (A) (A) (A) (A) (A) (A) (A) (A) (A) (A) (A)
                 (A) (A) (A) (A) (A) (A) (A) (A) (A) (A) (A) (A)
                 (A) (A) (A) (A) (A) (A) (A) (A) (A) (A) (A) (A)
                 (A) (A) (A) (A) (A) (A) (A) (A) (A) (A) (A) (A)
                 (A) (A) (A) (A) (A) (A) (A) (A) (A) (A) (A) (A)
                 (A) (A) (A) (A) (A) (A) (A) (A) (A) (A) (A) (A)
                 (A) (A) (A) (A) (A) (A) (A) (A) (A) (A) (A) (A)
                 (A) (A) (A) (A) (A) (A) (A) (A) (A) (A) (A) (A)
                 (A) (A) (A) (A) (A) (A) (A) (A) (A) (A) (A) (A)
                 (A) (A) (A) (A) (A) (A) (A) (A) (A) (A) (A) (A)
                 (A) (A) (A) (A) (A) (A) (A) (A) (A) (A) (A) (A)
                 (A) (A) (A) (A) (A) (A) (A) (A) (A) (A) (A) (A)
                 (A) (A) (A) (A) (A) (A) (A) (A) (A) (A) (A) (A)
                 (A) (A) (A) (A) (A) (A) (A) (A) (A) (A) (A) (A)
                 (A) (A) (A) (A) (A) (A) (A) (A) (A) (A) (A) (A)
                 (A) (A) (A) (A) (A) (A) (A) (A) (A) (A) (A) (A)
                 (A) (A) (A) (A) (A) (A) (A) (A) (A) (A) (A) (A)
                 (A) (A) (A) (A) (A) (A) (A) (A) (A) (A) (A) (A)
                 (A) (A) (A) (A) (A) (A) (A) (A) (A) (A) (A) (A)
                 (A) (A) (A) (A) (A) (A) (A) (A) (A) (A) (A) (A)
                 (A) (A) (A) (A) (A) (A) (A) (A) (A) (A) (A) (A)
                 (A) (A) (A) (A) (A) (A) (A) (A) (A) (A) (A) (A)
                 (A) (A) (A) (A) (A) (A) (A) (A) (A) (A) (A) (A)
                 (A) (A) (A) (A) (A) (A) (A) (A) (A) (A) (A) (A)
                 (A) (A) (A) (A) (A) (A) (A) (A) (A) (A) (A) (A)
                 (A) (A) (A) (A) (A) (A) (A) (A) (A) (A) (A) (A)
                 (A) (A) (A) (A) (A) (A) (A) (A) (A) (A) (A) (A)
                 (A) (A) (A) (A) (A) (A) (A) (A) (A) (A) (A) (A)
                 (A) (A) (A) (A) (A) (A) (A) (A) (A) (A) (A) (A)
                 (A) (A) (A) (A) (A) (A) (A) (A) (A) (A) (A) (A)
                 (A) (A) (A) (A) (A) (A) (A) (A) (A) (A) (A) (A)
                 (A) (A) (A) (A) (A) (A) (A) (A) (A) (A) (A) (A)
                 (A) (A) (A) (A) (A) (A) (A) (A) (A) (A) (A) (A)
                 (A) (A) (A) (A) (A) (A) (A) (A) (A) (A) (A) (A)
                 (A) (A) (A) (A) (A) (A) (A) (A) (A) (A) (A) (A)
                 (A) (A) (A) (A) (A) (A) (A) (A) (A) (A) (A) (A)
                 (A) (A) (A) (A) (A) (A) (A) (A) (A) (A) (A) (A)
                 (A) (A) (A) (A) (A) (A) (A) (A) (A) (A) (A) (A)
                 (A) (A) (A) (A) (A) (A) (A) (A) (A) (A) (A) (A)
                 (A) (A) (A) (A) (A) (A) (A) (A) (A) (A) (A) (A)
                 (A) (A) (A) (A) (A) (A) (A) (A) (A) (A) (A) (A)
                 (A) (A) (A) (A) (A) (A) (A) (A) (A) (A) (A) (A)
                 (A) (A) (A) (A) (A) (A) (A) (A) (A) (A) (A) (A)
                 (A) (A) (A) (A) (A) (A) (A) (A) (A) (A) (A) (A)
                 (A) (A) (A) (A) (A) (A) (A) (A) (A) (A) (A) (A)
                 (A) (A) (A) (A) (A) (A) (A) (A) (A) (A) (A) (A)
                 (A) (A) (A) (A) (A) (A) (A) (A) (A) (A) (A) (A)
                 (A) (A) (A) (A) (A) (A) (A) (A) (A) (A) (A) (A)
                 (A) (A) (A) (A) (A) (A) (A) (A) (A) (A) (A) (A)
                 (A) (A) (A) (A) (A) (A) (A) (A) (A) (A) (A) (A)
                 (A) (A) (A) (A) (A) (A) (A) (A) (A) (A) (A) (A)
                 (A) (A) (A) (A) (A) (A) (A) (A) (A) (A) (A) (A)
                 (A) (A) (A) (A) (A) (A) (A) (A) (A) (A) (A) (A)
                 (A) (A) (A) (A) (A) (A) (A) (A) (A) (A) (A) (A)
                 (A) (A) (A) (A) (A) (A) (A) (A) (A) (A) (A) (A)
                 (A) (A) (A) (A) (A) (A) (A) (A) (A) (A) (A) (A)
                 (A) (A) (A) (A) (A) (A) (A) (A) (A) (A) (A) (A)
                 (A) (A) (A) (A) (A) (A) (A) (A) (A) (A) (A) (A)
                 (A) (A) (A) (A) (A) (A) (A) (A) (A) (A) (A) (A)
                 (A) (A) (A) (A) (A) (A) (A) (A) (A) (A) (A) (A)
                 (A) (A) (A) (A) (A) (A) (A) (A) (A) (A) (A) (A)
                 (A) (A) (A) (A) (A) (A) (A) (A) (A) (A) (A) (A)
                 (A) (A) (A) (A) (A) (A) (A) (A) (A) (A) (A) (A)
                 (A) (A) (A) (A) (A) (A) (A) (A) (A) (A) (A) (A)
                 (A) (A) (A) (A) (A) (A) (A) (A) (A) (A) (A) (A)
                 (A) (A) (A) (A) (A) (A) (A) (A) (A) (A) (A) (A)
                 (A) (A) (A) (A) (A) (A) (A) (A) (A) (A) (A) (A)
                 (A) (A) (A) (A) (A) (A) (A) (A) (A) (A) (A) (A)
                 (A) (A) (A) (A) (A) (A) (A) (A) (A) (A) (A) (A)
                 (A) (A) (A) (A) (A) (A) (A) (A) (A) (A) (A) (A)
                 (A) (A) (A) (A) (A) (A) (A) (A) (A) (A) (A) (A)
                 (A) (A) (A) (A) (A) (A) (A) (A) (A) (A) (A) (A)
                 (A) (A) (A) (A) (A) (A) (A) (A) (A) (A) (A) (A)
                 (A) (A) (A) (A) (A) (A) (A) (A) (A) (A) (A) (A)
                 (A) (A) (A) (A) (A) (A) (A) (A) (A) (A) (A) (A)
                 (A) (A) (A) (A) (A) (A) (A) (A) (A) (A) (A) (A)
                 (A) (A) (A) (A) (A) (A) (A) (A) (A) (A) (A) (A)
                 (A) (A) (A) (A) (A) (A) (A) (A) (A) (A) (A) (A)
                 (A) (A) (A) (A) (A) (A) (A) (A) (A) (A) (A) (A)
                 (A) (A) (A) (A) (A) (A) (A) (A) (A) (A) (A) (A)
                 (A) (A) (A) (A) (A) (A) (A) (A) (A) (A) (A) (A)
                 (A) (A) (A) (A) (A) (A) (A) (A) (A) (A) (A) (A)
                 (A) (A) (A) (A) (A) (A) (A) (A) (A) (A) (A) (A)
                 (A) (A) (A) (A) (A) (A) (A) (A) (A) (A) (A) (A)
                 (A) (A) (A) (A) (A) (A) (A) (A) (A) (A) (A) (A)
                 (A) (A) (A) (A) (A) (A) (A) (A) (A) (A) (A) (A)
                 (A) (A) (A) (A) (A) (A) (A) (A) (A) (A) (A) (A)
                 (A) (A) (A) (A) (A) (A) (A) (A) (A) (A) (A) (A)
                 (A) (A) (A) (A) (A) (A) (A) (A) (A) (A) (A) (A)
                 (A) (A) (A) (A) (A) (A) (A) (A) (A) (A) (A) (A)
                 (A) (A) (A) (A) (A) (A) (A) (A) (A) (A) (A) (A)
                 (A) (A) (A) (A) (A) (A) (A) (A) (A) (A) (A) (A)
                 (A) (A) (A) (A) (A) (A) (A) (A) (A) (A) (A) (A)
                 (A) (A) (A) (A) (A) (A) (A) (A) (A) (A) (A) (A)
                 (A) (A) (A) (A) (A) (A) (A) (A) (A) (A) (A) (A)
                 (A) (A) (A) (A) (A) (A) (A) (A) (A) (A) (A) (A)
                 (A) (A) (A) (A) (A) (A) (A) (A) (A) (A) (A) (A)
                 (A) (A) (A) (A) (A) (A) (A) (A) (A) (A) (A) (A)
                 (A) (A) (A) (A) (A) (A) (A) (A) (A) (A) (A) (A)
                 (A) (A) (A) (A) (A) (A) (A) (A) (A) (A) (A) (A)
                 (A) (A) (A) (A) (A) (A) (A) (A) (A) (A) (A) (A)
                 (A) (A) (A) (A) (A) (A) (A) (A) (A) (A) (A) (A)
                 (A) (A) (A) (A) (A) (A) (A) (A) (A) (A) (A) (A)
                 (A) (A) (A) (A) (A) (A) (A) (A) (A) (A) (A) (A)
                 (A) (A) (A) (A) (A) (A) (A) (A) (A) (A) (A) (A)
                 (A) (A) (A) (A) (A) (A) (A) (A) (A) (A) (A) (A)
                 (A) (A) (A) (A) (A) (A) (A) (A) (A) (A) (A) (A)
                 (A) (A) (A) (A) (A) (A) (A) (A) (A) (A) (A) (A)
                 (A) (A) (A) (A) (A) (A) (A) (A) (A) (A) (A) (A)
                 (A) (A) (A) (A) (A) (A) (A) (A) (A) (A) (A) (A)
                 (A) (A) (A) (A) (A) (A) (A) (A) (A) (A) (A) (A)
                 (A) (A) (A) (A) (A) (A) (A) (A) (A) (A) (A) (A)
                 (A) (A) (A) (A) (A) (A) (A) (A) (A) (A) (A) (A)
                 (A) (A) (A) (A) (A) (A) (A) (A) (A) (A) (A) (A)
                 (A) (A) (A) (A) (A) (A) (A) (A) (A) (A) (A) (A)
                 (A) (A) (A) (A) (A) (A) (A) (A) (A) (A) (A) (A)
                 (A) (A) (A) (A) (A) (A) (A) (A) (A) (A) (A) (A)
                 (A) (A) (A) (A) (A) (A) (A) (A) (A) (A) (A) (A)
                 (A) (A) (A) (A) (A) (A) (A) (A) (A) (A) (A) (A)
                 (A) (A) (A) (A) (A) (A) (A) (A) (A) (A) (A) (A)
                 (A) (A) (A) (A) (A) (A) (A) (A) (A) (A) (A) (A)
                 (A) (A) (A) (A) (A) (A) (A) (A) (A) (A) (A) (A)
                 (A) (A) (A) (A) (A) (A) (A) (A) (A) (A) (A) (A)
                 (A) (A) (A) (A) (A) (A) (A) (A) (A) (A) (A) (A)
                 (A) (A) (A) (A) (A) (A) (A) (A) (A) (A) (A) (A)
                 (A) (A) (A) (A) (A) (A) (A) (A) (A) (A) (A) (A)
                 (A) (A) (A) (A) (A) (A) (A) (A) (A) (A) (A) (A)
                 (A) (A) (A) (A) (A) (A) (A) (A) (A) (A) (A) (A)
                 (A) (A) (A) (A) (A) (A) (A) (A) (A) (A) (A) (A)
                 (A) (A) (A) (A) (A) (A) (A) (A) (A) (A) (A) (A)
                 (A) (A) (A) (A) (A) (A) (A) (A) (A) (A) (A) (A)
                 (A) (A) (A) (A) (A) (A) (A) (A) (A) (A) (A) (A)
                 (A) (A) (A) (A) (A) (A) (A) (A) (A) (A) (A) (A)
                 (A) (A) (A) (A) (A) (A) (A) (A) (A) (A) (A) (A)
                 (A) (A) (A) (A) (A) (A) (A) (A) (A) (A) (A) (A)
                 (A) (A) (A) (A) (A) (A) (A) (A) (A) (A) (A) (A)
                 (A) (A) (A) (A) (A) (A) (A) (A) (A) (A) (A) (A)
                 (A) (A) (A) (A) (A) (A) (A) (A) (A) (A) (A) (A)
                 (A) (A) (A) (A) (A) (A) (A) (A) (A) (A) (A) (A)
                 (A) (A) (A) (A) (A) (A) (A) (A) (A) (A) (A) (A)
                 (A) (A) (A) (A) (A) (A) (A) (A) (A) (A) (A) (A)
                 (A) (A) (A) (A) (A) (A) (A) (A) (A) (A) (A) (A)
                 (A) (A) (A) (A) (A) (A) (A) (A) (A) (A) (A) (A)
                 (A) (A) (A) (A) (A) (A) (A) (A) (A) (A) (A) (A)
                 (A) (A) (A) (A) (A) (A) (A) (A) (A) (A) (A) (A)
                 (A) (A) (A) (A) (A) (A) (A) (A) (A) (A) (A) (A)
                 (A) (A) (A) (A) (A) (A) (A) (A) (A) (A) (A) (A)
                 (A) (A) (A) (A) (A) (A) (A) (A) (A) (A) (A) (A)
                 (A) (A) (A) (A) (A) (A) (A) (A) (A) (A) (A) (A)
                 (A) (A) (A) (A) (A) (A) (A) (A) (A) (A) (A) (A)
                 (A) (A) (A) (A) (A) (A) (A) (A) (A) (A) (A) (A)
                 (A) (A) (A) (A) (A) (A) (A) (A)
 The electronic state is 1-A.
 Alpha  occ. eigenvalues --  -14.37624 -14.37623 -14.37616 -14.37589 -14.37357
 Alpha  occ. eigenvalues --  -14.37209 -14.35516 -14.34831 -10.26712 -10.26705
 Alpha  occ. eigenvalues --  -10.26652 -10.26592 -10.26403 -10.26305 -10.25179
 Alpha  occ. eigenvalues --  -10.25090 -10.24984 -10.24906 -10.24461 -10.24451
 Alpha  occ. eigenvalues --  -10.24414 -10.24395 -10.24347 -10.24343 -10.24296
 Alpha  occ. eigenvalues --  -10.24295 -10.24284 -10.24268 -10.24213 -10.23929
 Alpha  occ. eigenvalues --  -10.23909 -10.23888 -10.23856 -10.23386 -10.22638
 Alpha  occ. eigenvalues --  -10.22592 -10.22576 -10.22409 -10.22304 -10.22235
 Alpha  occ. eigenvalues --  -10.21968 -10.21924 -10.20509 -10.20323 -10.20303
 Alpha  occ. eigenvalues --  -10.20300 -10.20268 -10.20247 -10.20178 -10.20108
 Alpha  occ. eigenvalues --  -10.20021 -10.19951 -10.19929 -10.19845 -10.19703
 Alpha  occ. eigenvalues --  -10.19686 -10.19513 -10.19220  -0.98123  -0.97958
 Alpha  occ. eigenvalues --   -0.96928  -0.96816  -0.95001  -0.94639  -0.91233
 Alpha  occ. eigenvalues --   -0.91035  -0.90118  -0.89501  -0.84902  -0.84217
 Alpha  occ. eigenvalues --   -0.83168  -0.82869  -0.82382  -0.81783  -0.80999
 Alpha  occ. eigenvalues --   -0.80756  -0.80149  -0.79980  -0.79682  -0.79373
 Alpha  occ. eigenvalues --   -0.74683  -0.73996  -0.73223  -0.72942  -0.70601
 Alpha  occ. eigenvalues --   -0.70450  -0.70352  -0.70123  -0.70097  -0.69993
 Alpha  occ. eigenvalues --   -0.69868  -0.69603  -0.69263  -0.69052  -0.67666
 Alpha  occ. eigenvalues --   -0.67217  -0.66635  -0.65273  -0.64187  -0.63826
 Alpha  occ. eigenvalues --   -0.62980  -0.62045  -0.59940  -0.59523  -0.58660
 Alpha  occ. eigenvalues --   -0.58313  -0.57984  -0.57736  -0.57154  -0.56585
 Alpha  occ. eigenvalues --   -0.55684  -0.55227  -0.54861  -0.54470  -0.53819
 Alpha  occ. eigenvalues --   -0.53400  -0.52107  -0.51929  -0.51635  -0.51042
 Alpha  occ. eigenvalues --   -0.50687  -0.50220  -0.50194  -0.49821  -0.49546
 Alpha  occ. eigenvalues --   -0.49082  -0.48709  -0.48369  -0.48195  -0.48050
 Alpha  occ. eigenvalues --   -0.47302  -0.46689  -0.46608  -0.46305  -0.45989
 Alpha  occ. eigenvalues --   -0.45682  -0.45133  -0.45064  -0.45017  -0.44888
 Alpha  occ. eigenvalues --   -0.44276  -0.44064  -0.43854  -0.43378  -0.43355
 Alpha  occ. eigenvalues --   -0.43306  -0.43198  -0.43122  -0.43043  -0.42618
 Alpha  occ. eigenvalues --   -0.42292  -0.42185  -0.42086  -0.41848  -0.41665
 Alpha  occ. eigenvalues --   -0.40562  -0.40335  -0.40251  -0.40194  -0.40067
 Alpha  occ. eigenvalues --   -0.39721  -0.39502  -0.39413  -0.39310  -0.39116
 Alpha  occ. eigenvalues --   -0.39092  -0.39000  -0.38860  -0.38723  -0.38657
 Alpha  occ. eigenvalues --   -0.38327  -0.38126  -0.38023  -0.37826  -0.37621
 Alpha  occ. eigenvalues --   -0.37053  -0.36866  -0.36621  -0.36446  -0.36066
 Alpha  occ. eigenvalues --   -0.35480  -0.35344  -0.35042  -0.34959  -0.34751
 Alpha  occ. eigenvalues --   -0.34739  -0.34631  -0.34520  -0.34489  -0.34370
 Alpha  occ. eigenvalues --   -0.34182  -0.33967  -0.33876  -0.33728  -0.33697
 Alpha  occ. eigenvalues --   -0.33666  -0.33122  -0.33058  -0.32843  -0.32710
 Alpha  occ. eigenvalues --   -0.32374  -0.32091  -0.31834  -0.31668  -0.30036
 Alpha  occ. eigenvalues --   -0.29434  -0.27296  -0.27050  -0.26875  -0.26805
 Alpha  occ. eigenvalues --   -0.26754  -0.26566  -0.26301  -0.25721  -0.25383
 Alpha  occ. eigenvalues --   -0.25251  -0.24790  -0.24112
 Alpha virt. eigenvalues --   -0.07153  -0.06249  -0.05429  -0.05217  -0.02574
 Alpha virt. eigenvalues --   -0.01426   0.03128   0.04140   0.04251   0.04360
 Alpha virt. eigenvalues --    0.04460   0.04645   0.04909   0.05078   0.05569
 Alpha virt. eigenvalues --    0.05656   0.05931   0.06085   0.06304   0.06393
 Alpha virt. eigenvalues --    0.06552   0.06744   0.06934   0.07038   0.07537
 Alpha virt. eigenvalues --    0.07707   0.07817   0.08172   0.08299   0.08563
 Alpha virt. eigenvalues --    0.08725   0.08849   0.09192   0.09297   0.09518
 Alpha virt. eigenvalues --    0.09635   0.09821   0.10055   0.10113   0.10342
 Alpha virt. eigenvalues --    0.10573   0.10723   0.10802   0.10870   0.11002
 Alpha virt. eigenvalues --    0.11194   0.11347   0.11469   0.11638   0.11898
 Alpha virt. eigenvalues --    0.12150   0.12312   0.12509   0.12589   0.13015
 Alpha virt. eigenvalues --    0.13257   0.13495   0.13522   0.13648   0.13765
 Alpha virt. eigenvalues --    0.13970   0.14025   0.14207   0.14396   0.14545
 Alpha virt. eigenvalues --    0.14694   0.14810   0.15052   0.15140   0.15393
 Alpha virt. eigenvalues --    0.15507   0.15631   0.15795   0.15814   0.16034
 Alpha virt. eigenvalues --    0.16100   0.16229   0.16256   0.16341   0.16582
 Alpha virt. eigenvalues --    0.16707   0.16889   0.17027   0.17072   0.17111
 Alpha virt. eigenvalues --    0.17407   0.17620   0.17715   0.17784   0.18038
 Alpha virt. eigenvalues --    0.18133   0.18175   0.18380   0.18412   0.18675
 Alpha virt. eigenvalues --    0.18764   0.19016   0.19247   0.19358   0.19510
 Alpha virt. eigenvalues --    0.19710   0.19748   0.19850   0.19954   0.20111
 Alpha virt. eigenvalues --    0.20498   0.20578   0.20733   0.20989   0.21148
 Alpha virt. eigenvalues --    0.21306   0.21439   0.21564   0.21594   0.21772
 Alpha virt. eigenvalues --    0.21849   0.21999   0.22003   0.22106   0.22158
 Alpha virt. eigenvalues --    0.22380   0.22487   0.22564   0.22759   0.22886
 Alpha virt. eigenvalues --    0.22935   0.23169   0.23218   0.23402   0.23587
 Alpha virt. eigenvalues --    0.23769   0.24113   0.24260   0.24311   0.24585
 Alpha virt. eigenvalues --    0.24709   0.24872   0.24992   0.25232   0.25335
 Alpha virt. eigenvalues --    0.25427   0.25735   0.26014   0.26140   0.26241
 Alpha virt. eigenvalues --    0.26459   0.26537   0.26915   0.27198   0.27281
 Alpha virt. eigenvalues --    0.27785   0.27811   0.28147   0.28389   0.28448
 Alpha virt. eigenvalues --    0.28684   0.28879   0.29058   0.29264   0.29593
 Alpha virt. eigenvalues --    0.29802   0.29892   0.30012   0.30115   0.30322
 Alpha virt. eigenvalues --    0.30537   0.30557   0.30699   0.30790   0.31212
 Alpha virt. eigenvalues --    0.31283   0.31324   0.31499   0.31688   0.31967
 Alpha virt. eigenvalues --    0.32021   0.32130   0.32385   0.32491   0.32735
 Alpha virt. eigenvalues --    0.32899   0.33115   0.33391   0.33591   0.33913
 Alpha virt. eigenvalues --    0.33952   0.34035   0.34147   0.34319   0.34378
 Alpha virt. eigenvalues --    0.34540   0.34915   0.35234   0.35392   0.35694
 Alpha virt. eigenvalues --    0.36052   0.36161   0.36395   0.36559   0.36827
 Alpha virt. eigenvalues --    0.36887   0.37035   0.37110   0.37248   0.37445
 Alpha virt. eigenvalues --    0.37533   0.37653   0.37760   0.37838   0.37914
 Alpha virt. eigenvalues --    0.38321   0.38369   0.38486   0.38679   0.39127
 Alpha virt. eigenvalues --    0.39193   0.39344   0.39455   0.39624   0.39925
 Alpha virt. eigenvalues --    0.40105   0.40220   0.40295   0.40415   0.40523
 Alpha virt. eigenvalues --    0.40691   0.40815   0.40946   0.41007   0.41448
 Alpha virt. eigenvalues --    0.41487   0.41697   0.41769   0.42017   0.42390
 Alpha virt. eigenvalues --    0.42450   0.42588   0.42684   0.42818   0.43000
 Alpha virt. eigenvalues --    0.43155   0.43339   0.43426   0.43554   0.43763
 Alpha virt. eigenvalues --    0.43960   0.44104   0.44180   0.44341   0.44481
 Alpha virt. eigenvalues --    0.44602   0.44804   0.44922   0.45006   0.45164
 Alpha virt. eigenvalues --    0.45202   0.45335   0.45380   0.45495   0.45637
 Alpha virt. eigenvalues --    0.45695   0.45912   0.46014   0.46058   0.46202
 Alpha virt. eigenvalues --    0.46328   0.46449   0.46568   0.46678   0.46749
 Alpha virt. eigenvalues --    0.46977   0.47030   0.47152   0.47321   0.47353
 Alpha virt. eigenvalues --    0.47474   0.47509   0.47818   0.47832   0.47902
 Alpha virt. eigenvalues --    0.48016   0.48109   0.48254   0.48311   0.48359
 Alpha virt. eigenvalues --    0.48508   0.48753   0.48822   0.48893   0.49063
 Alpha virt. eigenvalues --    0.49172   0.49334   0.49519   0.49620   0.49730
 Alpha virt. eigenvalues --    0.49864   0.49936   0.50044   0.50162   0.50262
 Alpha virt. eigenvalues --    0.50431   0.50730   0.50828   0.51078   0.51100
 Alpha virt. eigenvalues --    0.51192   0.51241   0.51423   0.51652   0.51726
 Alpha virt. eigenvalues --    0.51835   0.51986   0.52107   0.52400   0.52484
 Alpha virt. eigenvalues --    0.52755   0.53023   0.53217   0.53409   0.53436
 Alpha virt. eigenvalues --    0.53553   0.53701   0.53953   0.54137   0.54466
 Alpha virt. eigenvalues --    0.54559   0.54670   0.54749   0.54909   0.55024
 Alpha virt. eigenvalues --    0.55124   0.55304   0.55697   0.55878   0.56050
 Alpha virt. eigenvalues --    0.56375   0.56434   0.56695   0.56783   0.56924
 Alpha virt. eigenvalues --    0.57142   0.57196   0.57362   0.57570   0.57973
 Alpha virt. eigenvalues --    0.58174   0.58386   0.58524   0.58565   0.58805
 Alpha virt. eigenvalues --    0.59146   0.59379   0.59509   0.59669   0.59936
 Alpha virt. eigenvalues --    0.60096   0.60235   0.60368   0.60556   0.60810
 Alpha virt. eigenvalues --    0.60894   0.60957   0.61283   0.61712   0.61770
 Alpha virt. eigenvalues --    0.61853   0.62132   0.62307   0.62445   0.62721
 Alpha virt. eigenvalues --    0.62768   0.62921   0.63252   0.63549   0.63697
 Alpha virt. eigenvalues --    0.63948   0.63977   0.64127   0.64496   0.64650
 Alpha virt. eigenvalues --    0.65000   0.65190   0.65552   0.65773   0.65857
 Alpha virt. eigenvalues --    0.65989   0.66354   0.66380   0.66576   0.66732
 Alpha virt. eigenvalues --    0.66996   0.67263   0.67431   0.67710   0.67844
 Alpha virt. eigenvalues --    0.67965   0.68355   0.68556   0.68834   0.68927
 Alpha virt. eigenvalues --    0.69290   0.69502   0.69824   0.70097   0.70240
 Alpha virt. eigenvalues --    0.70373   0.70720   0.70905   0.71146   0.71483
 Alpha virt. eigenvalues --    0.71683   0.71790   0.71919   0.72168   0.72472
 Alpha virt. eigenvalues --    0.72573   0.72856   0.73143   0.73321   0.73347
 Alpha virt. eigenvalues --    0.73750   0.73945   0.74051   0.74315   0.74808
 Alpha virt. eigenvalues --    0.74963   0.75273   0.75403   0.75879   0.76063
 Alpha virt. eigenvalues --    0.76167   0.76327   0.76717   0.77037   0.77199
 Alpha virt. eigenvalues --    0.77616   0.77650   0.78006   0.78440   0.78681
 Alpha virt. eigenvalues --    0.79164   0.79323   0.79422   0.79695   0.80176
 Alpha virt. eigenvalues --    0.80349   0.80494   0.80638   0.80849   0.80906
 Alpha virt. eigenvalues --    0.80998   0.81168   0.81756   0.81837   0.82135
 Alpha virt. eigenvalues --    0.82479   0.82691   0.82904   0.83260   0.83665
 Alpha virt. eigenvalues --    0.83791   0.84287   0.84543   0.84919   0.85071
 Alpha virt. eigenvalues --    0.85288   0.85469   0.85790   0.85871   0.86151
 Alpha virt. eigenvalues --    0.86294   0.86630   0.86787   0.86989   0.87069
 Alpha virt. eigenvalues --    0.87234   0.87425   0.87844   0.88081   0.88237
 Alpha virt. eigenvalues --    0.88539   0.88764   0.88944   0.89259   0.89416
[...]
 Alpha virt. eigenvalues --    3.48644   3.48738   3.48795   3.49230   3.49520
 Alpha virt. eigenvalues --    3.49638   3.49896   3.50166   3.50473   3.50501
 Alpha virt. eigenvalues --    3.50788   3.50892   3.51257   3.51507   3.51763
 Alpha virt. eigenvalues --    3.51978   3.52503   3.52659   3.53077   3.53169
 Alpha virt. eigenvalues --    3.53574   3.53775   3.54148   3.54305   3.54602
 Alpha virt. eigenvalues --    3.55264   3.55364   3.55546   3.55611   3.56258
 Alpha virt. eigenvalues --    3.56470   3.56652   3.56951   3.57159   3.57205
 Alpha virt. eigenvalues --    3.57448   3.57732   3.57813   3.58271   3.58448
 Alpha virt. eigenvalues --    3.58693   3.59112   3.59305   3.59463   3.59687
 Alpha virt. eigenvalues --    3.59838   3.60259   3.60326   3.60448   3.60987
 Alpha virt. eigenvalues --    3.61089   3.61452   3.61614   3.61832   3.61925
 Alpha virt. eigenvalues --    3.62173   3.62688   3.62925   3.63043   3.63152
 Alpha virt. eigenvalues --    3.63349   3.63444   3.63730   3.64022   3.64210
 Alpha virt. eigenvalues --    3.64371   3.64592   3.64655   3.64850   3.65277
 Alpha virt. eigenvalues --    3.65482   3.65719   3.65757   3.66113   3.66212
 Alpha virt. eigenvalues --    3.66345   3.66586   3.66652   3.67053   3.67268
 Alpha virt. eigenvalues --    3.67569   3.67978   3.68082   3.68551   3.68723
 Alpha virt. eigenvalues --    3.69102   3.69275   3.69694   3.70047   3.70213
 Alpha virt. eigenvalues --    3.70376   3.70703   3.70795   3.70989   3.72044
 Alpha virt. eigenvalues --    3.72304   3.72576   3.72795   3.72953   3.73220
 Alpha virt. eigenvalues --    3.73497   3.73945   3.74296   3.74687   3.74794
 Alpha virt. eigenvalues --    3.75130   3.75477   3.75661   3.75827   3.76139
 Alpha virt. eigenvalues --    3.76454   3.76707   3.77023   3.77241   3.77884
 Alpha virt. eigenvalues --    3.78000   3.78366   3.78497   3.78767   3.79000
 Alpha virt. eigenvalues --    3.79393   3.79687   3.80023   3.80813   3.80924
 Alpha virt. eigenvalues --    3.81181   3.81510   3.81834   3.82579   3.82781
 Alpha virt. eigenvalues --    3.82845   3.83265   3.83686   3.84098   3.84314
 Alpha virt. eigenvalues --    3.84979   3.85371   3.85620   3.85785   3.86414
 Alpha virt. eigenvalues --    3.86834   3.87082   3.87548   3.88414   3.89033
 Alpha virt. eigenvalues --    3.89148   3.89499   3.90190   3.90651   3.90960
 Alpha virt. eigenvalues --    3.91336   3.91952   3.92401   3.92832   3.93238
 Alpha virt. eigenvalues --    3.93823   3.94042   3.94883   3.95213   3.96354
 Alpha virt. eigenvalues --    3.96566   3.96855   3.98068   3.98709   3.98826
 Alpha virt. eigenvalues --    3.99304   3.99584   4.00874   4.01314   4.01560
 Alpha virt. eigenvalues --    4.01711   4.02117   4.02517   4.02712   4.02994
 Alpha virt. eigenvalues --    4.03298   4.04154   4.04533   4.04826   4.05154
 Alpha virt. eigenvalues --    4.05660   4.05882   4.06233   4.06552   4.07085
 Alpha virt. eigenvalues --    4.07317   4.07453   4.07928   4.08099   4.08682
 Alpha virt. eigenvalues --    4.09092   4.09312   4.09565   4.09893   4.10677
 Alpha virt. eigenvalues --    4.10891   4.11194   4.11359   4.11598   4.11882
 Alpha virt. eigenvalues --    4.12138   4.12675   4.12916   4.13146   4.13733
 Alpha virt. eigenvalues --    4.14269   4.14479   4.14618   4.14640   4.15027
 Alpha virt. eigenvalues --    4.15477   4.15889   4.16029   4.16248   4.16417
 Alpha virt. eigenvalues --    4.16761   4.17169   4.17288   4.17431   4.17650
 Alpha virt. eigenvalues --    4.17982   4.18179   4.18625   4.18855   4.19034
 Alpha virt. eigenvalues --    4.19239   4.19438   4.19825   4.20151   4.20757
 Alpha virt. eigenvalues --    4.21005   4.21285   4.21724   4.22047   4.22235
 Alpha virt. eigenvalues --    4.22615   4.22876   4.22974   4.23141   4.23827
 Alpha virt. eigenvalues --    4.24337   4.24751   4.24977   4.25836   4.26186
 Alpha virt. eigenvalues --    4.26358   4.26804   4.27506   4.27656   4.27976
 Alpha virt. eigenvalues --    4.28182   4.28953   4.29035   4.29440   4.30356
 Alpha virt. eigenvalues --    4.30792   4.31174   4.31854   4.32313   4.32602
 Alpha virt. eigenvalues --    4.33016   4.33154   4.33579   4.34325   4.34581
 Alpha virt. eigenvalues --    4.34891   4.35008   4.35528   4.36423   4.36747
 Alpha virt. eigenvalues --    4.37074   4.37980   4.38118   4.38776   4.38970
 Alpha virt. eigenvalues --    4.39449   4.39863   4.39894   4.40683   4.41212
 Alpha virt. eigenvalues --    4.41382   4.41675   4.42195   4.42635   4.43071
 Alpha virt. eigenvalues --    4.43443   4.43667   4.43893   4.44295   4.44636
 Alpha virt. eigenvalues --    4.44794   4.45164   4.45267   4.45516   4.45663
 Alpha virt. eigenvalues --    4.46059   4.46217   4.46274   4.46457   4.47305
 Alpha virt. eigenvalues --    4.47547   4.47746   4.48064   4.48109   4.48557
 Alpha virt. eigenvalues --    4.48815   4.48911   4.49409   4.49693   4.49730
 Alpha virt. eigenvalues --    4.49938   4.50963   4.51811   4.52012   4.52598
 Alpha virt. eigenvalues --    4.52962   4.53386   4.55069   4.55226   4.56121
 Alpha virt. eigenvalues --    4.56712   4.56917   4.57515   4.58182   4.58599
 Alpha virt. eigenvalues --    4.59942   4.60210   4.60594   4.61013   4.61526
 Alpha virt. eigenvalues --    4.61618   4.61917   4.62129   4.62759   4.63707
 Alpha virt. eigenvalues --    4.63764   4.63908   4.64811   4.65383   4.66330
 Alpha virt. eigenvalues --    4.66487   4.67354   4.67564   4.67775   4.68400
 Alpha virt. eigenvalues --    4.68529   4.69267   4.69474   4.70175   4.70871
 Alpha virt. eigenvalues --    4.71145   4.71571   4.72173   4.73591   4.74310
 Alpha virt. eigenvalues --    4.75689   4.76046   4.76990   4.77421   4.77762
 Alpha virt. eigenvalues --    4.78539   4.78938   4.79462   4.80236   4.80831
 Alpha virt. eigenvalues --    4.81119   4.81536   4.81932   4.83118   4.83451
 Alpha virt. eigenvalues --    4.84769   4.85299   4.85445   4.85958   4.86552
 Alpha virt. eigenvalues --    4.87774   4.88294   4.88959   4.90084   4.90242
 Alpha virt. eigenvalues --    4.90772   4.91059   4.91463   4.91506   4.91683
 Alpha virt. eigenvalues --    4.92030   4.92781   4.92855   4.93407   4.93996
 Alpha virt. eigenvalues --    4.94664   4.95147   4.95349   4.95543   4.96221
 Alpha virt. eigenvalues --    4.96791   4.97068   4.97553   4.97752   4.98130
 Alpha virt. eigenvalues --    4.99377   4.99574   4.99676   5.00366   5.00756
 Alpha virt. eigenvalues --    5.01333   5.02484   5.02920   5.03242   5.03756
 Alpha virt. eigenvalues --    5.03982   5.04241   5.04450   5.04928   5.07357
 Alpha virt. eigenvalues --    5.07798   5.08318   5.10791   5.12246   5.13108
 Alpha virt. eigenvalues --    5.13403   5.13964   5.14305   5.15228   5.16540
 Alpha virt. eigenvalues --    5.17684   5.17836   5.18715   5.19538   5.19874
 Alpha virt. eigenvalues --    5.20409   5.21391   5.23361   5.24114   5.24544
 Alpha virt. eigenvalues --    5.25976   5.27215   5.28112   5.28583   5.28720
 Alpha virt. eigenvalues --    5.29391   5.30077   5.30178   5.31923   5.33240
 Alpha virt. eigenvalues --    5.34855   5.36277   5.37590   5.39342   5.39408
 Alpha virt. eigenvalues --    5.40425   5.41458   5.41650   5.42568   5.43060
 Alpha virt. eigenvalues --    5.43220   5.43528   5.44338   5.44614   5.45427
 Alpha virt. eigenvalues --    5.46550   5.47130   5.47887   5.48306   5.48602
 Alpha virt. eigenvalues --    5.49358   5.49637   5.50903   5.51944   5.52438
 Alpha virt. eigenvalues --    5.53143   5.54169   5.55672   5.56490   5.56777
 Alpha virt. eigenvalues --    5.60317   5.61481   5.64794   5.66152   5.66620
 Alpha virt. eigenvalues --    5.69705   5.71366   5.71729   5.75253   5.75807
 Alpha virt. eigenvalues --    5.76527   5.78324   5.80188   5.81195   5.82146
 Alpha virt. eigenvalues --    5.82671   5.85310   5.86379   5.91910   5.94235
 Alpha virt. eigenvalues --    5.98211   5.99749   6.00822   6.02247   6.05224
 Alpha virt. eigenvalues --    6.06081   6.08589   6.09296   6.10887   6.10961
 Alpha virt. eigenvalues --    6.14040   6.14782  22.47477  22.48009  22.49480
 Alpha virt. eigenvalues --   22.49768  22.49877  22.50548  22.51140  22.51256
 Alpha virt. eigenvalues --   22.51476  22.51604  22.51917  22.52348  22.52505
 Alpha virt. eigenvalues --   22.52956  22.54359  22.56248  22.57319  22.59410
 Alpha virt. eigenvalues --   22.72387  22.73134  22.73634  22.74725  22.76524
 Alpha virt. eigenvalues --   22.76915  22.77586  22.77886  22.82601  22.83720
 Alpha virt. eigenvalues --   22.87440  22.89267  22.91431  22.91777  22.93331
 Alpha virt. eigenvalues --   22.94166  22.95166  22.95499  22.96117  22.97839
 Alpha virt. eigenvalues --   23.06664  23.09961  23.15168  23.15899  23.16426
 Alpha virt. eigenvalues --   23.17120  23.18614  23.19422  23.22950  23.26521
 Alpha virt. eigenvalues --   23.53104  23.54568  32.18651  32.30695  32.78021
 Alpha virt. eigenvalues --   32.82662  32.89874  32.91145  32.94704  32.96644
          Condensed to atoms (all electrons):
 Mulliken charges:
               1
     1  C    0.331112
     2  C   -0.159975
     3  C   -0.375497
     4  C    0.374692
     5  H    0.139033
     6  C   -0.383808
     7  C    0.345231
     8  H    0.142119
     9  C   -0.277989
    10  C   -0.150833
    11  H    0.142291
    12  C   -0.196975
    13  H    0.089327
    14  H    0.086805
    15  H    0.084786
    16  C    0.395944
    17  C   -0.171522
    18  C   -0.306092
    19  C    0.310454
    20  H    0.143612
    21  C   -0.386659
    22  C    0.426163
    23  H    0.127632
    24  C   -0.390635
    25  C   -0.235440
    26  H    0.157045
    27  C   -0.156488
    28  H    0.088307
    29  H    0.081213
    30  C    0.106971
    31  C    0.100538
    32  N   -0.259376
    33  H    0.074376
    34  C    0.000702
    35  N   -0.264886
    36  H    0.078022
    37  C   -0.014701
    38  H    0.077537
    39  C   -0.419701
    40  C   -0.399526
    41  H    0.078957
    42  C   -0.412196
    43  C   -0.394603
    44  H    0.126733
    45  H    0.127116
    46  H    0.118682
    47  H    0.120991
    48  H    0.121163
    49  H    0.138058
    50  H    0.125800
    51  H    0.120513
    52  H    0.128034
    53  H    0.123258
    54  H    0.121174
    55  H    0.132364
    56  C    0.122952
    57  C   -0.020455
    58  N   -0.238336
    59  H    0.054120
    60  C   -0.008724
    61  N   -0.506180
    62  H    0.084898
    63  C   -0.062088
    64  H    0.075572
    65  C   -0.372296
    66  C   -0.457949
    67  H    0.074023
    68  C   -0.358741
    69  C   -0.382581
    70  H    0.132322
    71  H    0.131852
    72  H    0.145326
    73  H    0.123840
    74  H    0.118489
    75  H    0.131346
    76  H    0.119277
    77  H    0.129517
    78  H    0.116866
    79  H    0.104454
    80  H    0.116001
    81  H    0.144458
    82  C    0.094229
    83  C    0.106365
    84  N   -0.267569
    85  H    0.084630
    86  C    0.003180
    87  N   -0.262582
    88  H    0.083931
    89  C   -0.021032
    90  H    0.082646
    91  C   -0.423818
    92  C   -0.401190
    93  H    0.083816
    94  C   -0.417267
    95  C   -0.394362
    96  H    0.119231
    97  H    0.127273
    98  H    0.126964
    99  H    0.133107
   100  H    0.123125
   101  H    0.124047
   102  H    0.118949
   103  H    0.128847
   104  H    0.126200
   105  H    0.124035
   106  H    0.124160
   107  H    0.132809
   108  C    0.075212
   109  C    0.089873
   110  N   -0.575961
   111  H    0.113494
   112  C   -0.054938
   113  N   -0.252932
   114  H    0.082118
   115  C    0.021989
   116  H    0.088757
   117  C   -0.396589
   118  C   -0.423206
   119  H    0.090561
   120  C   -0.421857
   121  C   -0.470624
   122  H    0.127723
   123  H    0.130489
   124  H    0.123452
   125  H    0.123574
   126  H    0.122154
   127  H    0.125282
   128  H    0.145152
   129  H    0.131097
   130  H    0.121802
   131  H    0.136932
   132  H    0.122603
   133  H    0.124372
   134  H    0.089779
   135  H    0.232097
   136  H    0.217671
   137  H    0.225971
   138  H    0.226410
 Sum of Mulliken charges =  -0.00000
 Mulliken charges with hydrogens summed into heavy atoms:
               1
     1  C    0.331112
     2  C   -0.073171
     3  C   -0.236464
     4  C    0.374692
     6  C   -0.241689
     7  C    0.345231
     9  C   -0.135698
    10  C   -0.061505
    12  C   -0.112189
    16  C    0.395944
    17  C   -0.081742
    18  C   -0.162479
    19  C    0.310454
    21  C   -0.259027
    22  C    0.426163
    24  C   -0.233590
    25  C   -0.147132
    27  C   -0.075274
    30  C    0.181347
    31  C    0.178560
    32  N   -0.259376
    34  C    0.078240
    35  N   -0.264886
    37  C    0.064256
    39  C   -0.039489
    40  C   -0.026995
    42  C   -0.035400
    43  C   -0.020255
    56  C    0.177071
    57  C    0.064443
    58  N   -0.238336
    60  C    0.066848
    61  N   -0.056412
    63  C    0.011936
    65  C    0.001379
    66  C   -0.048449
    68  C    0.006173
    69  C   -0.016920
    82  C    0.178860
    83  C    0.190295
    84  N   -0.267569
    86  C    0.085825
    87  N   -0.262582
    89  C    0.062785
    91  C   -0.043539
    92  C   -0.027722
    94  C   -0.036264
    95  C   -0.020365
   108  C    0.188706
   109  C    0.171991
   110  N   -0.123580
   112  C    0.033819
   113  N   -0.252932
   115  C    0.112550
   117  C   -0.025579
   118  C   -0.041542
   120  C   -0.037951
   121  C   -0.072573
 Electronic spatial extent (au):  <R**2>=          51366.6068
 Charge=             -0.0000 electrons
 Dipole moment (field-independent basis, Debye):
    X=             -2.4589    Y=              0.6301    Z=              0.3289  Tot=              2.5596
 Quadrupole moment (field-independent basis, Debye-Ang):
   XX=           -361.1637   YY=           -351.4087   ZZ=           -356.8756
   XY=             -5.5505   XZ=             11.6334   YZ=             -5.1707
 Traceless Quadrupole moment (field-independent basis, Debye-Ang):
   XX=             -4.6810   YY=              5.0740   ZZ=             -0.3929
   XY=             -5.5505   XZ=             11.6334   YZ=             -5.1707
 Octapole moment (field-independent basis, Debye-Ang**2):
  XXX=            -83.3340  YYY=             19.1239  ZZZ=             46.8765  XYY=              2.5964
  XXY=            -53.3094  XXZ=            -27.1458  XZZ=            -26.6666  YZZ=            -10.4412
  YYZ=             51.2261  XYZ=             21.1156
 Hexadecapole moment (field-independent basis, Debye-Ang**3):
 XXXX=         -30382.3546 YYYY=         -24168.1588 ZZZZ=         -15861.1049 XXXY=           -283.1614
 XXXZ=            356.6872 YYYX=           -151.1379 YYYZ=            114.5743 ZZZX=            377.2067
 ZZZY=           -130.8316 XXYY=          -9376.0757 XXZZ=          -7909.3539 YYZZ=          -6442.2583
 XXYZ=             49.0569 YYXZ=            -49.4907 ZZXY=            -35.6989
 N-N= 8.758403695380D+03 E-N=-2.306566030950D+04  KE= 2.378139064642D+03
 Leave Link  601 at Mon Oct 18 08:44:10 2021, MaxMem=  7864320000 cpu:              42.1 elap:               1.7
 (Enter /apps/gaussian/g16-c01-avx/g16/l9999.exe)
 Unable to Open any file for archive entry.
 1\1\GINC-CX3-5-11\SP\RPBE1PBE\def2TZVP\C50H80N8\ATARZIA\18-Oct-2021\0\
 \#P PBE1PBE/Def2TZVP SP SCF=(YQC,MaxCycle=900) int=(Grid=Superfinegrid
 ) EmpiricalDispersion=GD3 SCRF=(PCM,Solvent=Chloroform)\\_2_alde1_4_am
 i1_2_opt_cfm\\0,1\C,0,-0.6967,-2.5386,-2.8682\C,0,0.5874,-2.7339,-2.20
 84\C,0,-1.8782,-2.5477,-2.1369\C,0,-3.1009,-2.2879,-2.7579\H,0,-1.8734
 ,-2.762,-1.0789\C,0,-3.1254,-1.9701,-4.1115\C,0,-1.9479,-1.953,-4.8572
 \H,0,-4.0527,-1.728,-4.6083\C,0,-0.745,-2.2647,-4.2342\C,0,-1.936,-1.5
 266,-6.2474\H,0,0.1804,-2.2717,-4.7884\C,0,-4.3453,-2.3498,-2.0042\H,0
 ,-0.9586,-1.5952,-6.7483\H,0,0.57,-2.6834,-1.1087\H,0,-5.2594,-2.1108,
 -2.5721\C,0,1.062,0.692,-3.5727\C,0,2.1794,-0.2379,-3.6304\C,0,0.2545,
 0.8677,-4.6921\C,0,-0.9242,1.6058,-4.6101\H,0,0.502,0.4048,-5.6348\C,0
 ,-1.2646,2.2115,-3.4038\C,0,-0.4439,2.0802,-2.286\H,0,-2.1817,2.7806,-
 3.3308\C,0,0.7095,1.3069,-2.3749\C,0,-0.8212,2.6971,-1.021\H,0,1.3246,
 1.1673,-1.5012\C,0,-1.8505,1.6442,-5.7314\H,0,-1.7535,3.2846,-1.0273\H
 ,0,-2.8521,2.0431,-5.5021\C,0,3.7167,-1.6925,-2.6756\C,0,2.9136,-2.935
 3,-2.1823\N,0,2.8111,-0.5863,-2.5962\H,0,4.0085,-1.8871,-3.7216\C,0,4.
 9774,-1.3953,-1.8465\N,0,1.6529,-2.8997,-2.8601\H,0,2.7747,-2.8349,-1.
 0926\C,0,3.6224,-4.2732,-2.4709\H,0,5.6037,-2.2935,-1.8335\C,0,4.6415,
 -0.9942,-0.4125\C,0,5.7584,-0.2734,-2.5313\H,0,4.6411,-4.2098,-2.0753\
 C,0,3.6829,-4.5857,-3.9636\C,0,2.8907,-5.395,-1.7338\H,0,6.6749,-0.059
 9,-1.9863\H,0,5.1537,0.6302,-2.5644\H,0,6.0218,-0.5507,-3.5502\H,0,5.5
 371,-0.6414,0.0941\H,0,4.2449,-1.8342,0.1514\H,0,3.9026,-0.1983,-0.421
 \H,0,1.8701,-5.4815,-2.101\H,0,2.8581,-5.1988,-0.6639\H,0,3.3966,-6.34
 46,-1.8924\H,0,4.0932,-5.5813,-4.1178\H,0,4.3143,-3.8757,-4.491\H,0,2.
 6833,-4.5461,-4.3876\C,0,-5.6226,-2.7865,-0.0951\C,0,-5.5486,-1.9269,1
 .2057\N,0,-4.3745,-2.6788,-0.7881\H,0,-6.4473,-2.4194,-0.7303\C,0,-5.8
 971,-4.2908,0.1505\N,0,-4.1898,-1.7439,1.6884\H,0,-6.1016,-2.4353,2.00
 24\C,0,-6.1941,-0.5408,0.9996\H,0,-5.8086,-4.7731,-0.8322\C,0,-7.3173,
 -4.5205,0.6598\C,0,-4.8739,-4.9379,1.079\H,0,-5.7227,-0.0751,0.1254\C,
 0,-5.9394,0.3411,2.2215\C,0,-7.702,-0.6327,0.77\H,0,-5.0317,-6.0143,1.
 1087\H,0,-4.9693,-4.5553,2.0925\H,0,-3.8672,-4.7482,0.7149\H,0,-8.0474
 ,-4.0809,-0.0161\H,0,-7.4572,-4.0844,1.6456\H,0,-7.5147,-5.5879,0.7304
 \H,0,-7.952,-1.1744,-0.1384\H,0,-8.1231,0.367,0.6878\H,0,-8.1787,-1.13
 59,1.6086\H,0,-6.4429,-0.0754,3.0906\H,0,-6.3216,1.3446,2.0477\H,0,-4.
 8781,0.3951,2.4359\C,0,-2.7725,-0.4488,-8.1185\C,0,-2.5731,1.0781,-7.8
 725\N,0,-2.9481,-1.0423,-6.8246\H,0,-1.8491,-0.8208,-8.593\C,0,-3.9728
 ,-0.7904,-9.0163\N,0,-1.5574,1.1896,-6.8698\H,0,-3.5305,1.4875,-7.506\
 C,0,-2.1534,1.856,-9.1343\H,0,-3.8413,-0.2828,-9.9774\C,0,-5.2981,-0.3
 585,-8.3948\C,0,-3.9802,-2.2987,-9.2669\H,0,-2.8997,1.6682,-9.9127\C,0
 ,-0.7775,1.435,-9.6429\C,0,-2.1575,3.3522,-8.8193\H,0,-3.0457,-2.6194,
 -9.7229\H,0,-4.7974,-2.5701,-9.9313\H,0,-4.1042,-2.8292,-8.3255\H,0,-5
 .3583,-0.7285,-7.3754\H,0,-6.1285,-0.7647,-8.9681\H,0,-5.3949,0.724,-8
 .3826\H,0,-3.1355,3.6705,-8.4631\H,0,-1.9141,3.9269,-9.71\H,0,-1.4203,
 3.5754,-8.051\H,0,-0.4593,2.0983,-10.4442\H,0,-0.7933,0.4204,-10.0319\
 H,0,-0.0555,1.4895,-8.8328\C,0,0.6092,4.07,1.7061\C,0,-0.5257,3.1182,1
 .2635\N,0,0.6192,5.1796,0.7563\H,0,1.5477,3.4896,1.6667\C,0,0.4465,4.6
 204,3.1357\N,0,-0.1211,2.547,0.0155\H,0,-1.4431,3.7221,1.1476\C,0,-0.8
 213,1.9563,2.2376\H,0,0.3992,3.768,3.8198\C,0,-0.8245,5.453,3.2787\C,0
 ,1.6654,5.4553,3.5346\H,0,-1.119,2.388,3.1976\C,0,0.3941,1.0563,2.4407
 \C,0,-1.9973,1.1348,1.7088\H,0,2.5884,4.9117,3.3406\H,0,1.6246,5.6879,
 4.5965\H,0,1.6883,6.3942,2.9871\H,0,-0.8546,6.2054,2.4956\H,0,-0.8426,
 5.9473,4.2474\H,0,-1.7113,4.8305,3.1967\H,0,-2.273,0.3636,2.424\H,0,-1
 .7311,0.6547,0.769\H,0,-2.8642,1.7699,1.5371\H,0,0.7563,0.7059,1.4782\
 H,0,0.12,0.1965,3.0484\H,0,1.1981,1.587,2.9434\H,0,2.3825,-0.6788,-4.6
 184\H,0,-3.6398,-1.2957,0.9615\H,0,-3.7646,-2.6473,1.8592\H,0,0.6758,4
 .8148,-0.1888\H,0,1.438,5.7578,0.9075\\Version=ES64L-G16RevC.01\State=
 1-A\HF=-2389.5628608\RMSD=1.939e-09\Dipole=-0.3154307,-0.406832,-0.865
 4803\Quadrupole=7.0090892,-5.2789605,-1.7301286,-1.6155441,5.7190485,-
 6.672196\PG=C01 [X(C50H80N8)]\\@
 The archive entry for this job was punched.


 THE 2ND LAW OF THERMODYNAMICS HAS THE SAME
 DEGREE OF TRUTH AS THE STATEMENT THAT IF YOU THROW
 A TUMBLERFULL OF WATER INTO THE SEA, YOU CANNOT GET
 THE SAME TUMBLERFULL OF WATER OUT AGAIN.
          - J.C. MAXWELL, LETTER TO LORD RAYLEIGH, DECEMBER 6,1870
 Job cpu time:       1 days 23 hours 23 minutes 57.3 seconds.
 Elapsed time:       0 days  1 hours 29 minutes 41.8 seconds.
 File lengths (MBytes):  RWF=   4048 Int=      0 D2E=      0 Chk=    312 Scr=     16
 Normal termination of Gaussian 16 at Mon Oct 18 08:44:11 2021.
