 Entering Gaussian System, Link 0=g16
 Initial command:
 /apps/gaussian/g16-c01-avx/g16/l1.exe "/rds/general/ephemeral/user/atarzia/ephemeral/xtb_spe_DFT/Gau-4179779.inp" -scrdir="/rds/general/ephemeral/user/atarzia/ephemeral/xtb_spe_DFT/"
 Entering Link 1 = /apps/gaussian/g16-c01-avx/g16/l1.exe PID=   4179780.
  
 Copyright (c) 1988-2019, Gaussian, Inc.  All Rights Reserved.
  
 This is part of the Gaussian(R) 16 program.  It is based on
 the Gaussian(R) 09 system (copyright 2009, Gaussian, Inc.),
 the Gaussian(R) 03 system (copyright 2003, Gaussian, Inc.),
 the Gaussian(R) 98 system (copyright 1998, Gaussian, Inc.),
 the Gaussian(R) 94 system (copyright 1995, Gaussian, Inc.),
 the Gaussian 92(TM) system (copyright 1992, Gaussian, Inc.),
 the Gaussian 90(TM) system (copyright 1990, Gaussian, Inc.),
 the Gaussian 88(TM) system (copyright 1988, Gaussian, Inc.),
 the Gaussian 86(TM) system (copyright 1986, Carnegie Mellon
 University), and the Gaussian 82(TM) system (copyright 1983,
 Carnegie Mellon University). Gaussian is a federally registered
 trademark of Gaussian, Inc.
  
 This software contains proprietary and confidential information,
 including trade secrets, belonging to Gaussian, Inc.
  
 This software is provided under written license and may be
 used, copied, transmitted, or stored only in accord with that
 written license.
  
 The following legend is applicable only to US Government
 contracts under FAR:
  
                    RESTRICTED RIGHTS LEGEND
  
 Use, reproduction and disclosure by the US Government is
 subject to restrictions as set forth in subparagraphs (a)
 and (c) of the Commercial Computer Software - Restricted
 Rights clause in FAR 52.227-19.
  
 Gaussian, Inc.
 340 Quinnipiac St., Bldg. 40, Wallingford CT 06492
  
  
 ---------------------------------------------------------------
 Warning -- This program may not be used in any manner that
 competes with the business of Gaussian, Inc. or will provide
 assistance to any competitor of Gaussian, Inc.  The licensee
 of this program is prohibited from giving any competitor of
 Gaussian, Inc. access to this program.  By using this program,
 the user acknowledges that Gaussian, Inc. is engaged in the
 business of creating and licensing software in the field of
 computational chemistry and represents and warrants to the
 licensee that it is not a competitor of Gaussian, Inc. and that
 it will not use this program in any manner prohibited above.
 ---------------------------------------------------------------
  

 Cite this work as:
 Gaussian 16, Revision C.01,
 M. J. Frisch, G. W. Trucks, H. B. Schlegel, G. E. Scuseria, 
 M. A. Robb, J. R. Cheeseman, G. Scalmani, V. Barone, 
 G. A. Petersson, H. Nakatsuji, X. Li, M. Caricato, A. V. Marenich, 
 J. Bloino, B. G. Janesko, R. Gomperts, B. Mennucci, H. P. Hratchian, 
 J. V. Ortiz, A. F. Izmaylov, J. L. Sonnenberg, D. Williams-Young, 
 F. Ding, F. Lipparini, F. Egidi, J. Goings, B. Peng, A. Petrone, 
 T. Henderson, D. Ranasinghe, V. G. Zakrzewski, J. Gao, N. Rega, 
 G. Zheng, W. Liang, M. Hada, M. Ehara, K. Toyota, R. Fukuda, 
 J. Hasegawa, M. Ishida, T. Nakajima, Y. Honda, O. Kitao, H. Nakai, 
 T. Vreven, K. Throssell, J. A. Montgomery, Jr., J. E. Peralta, 
 F. Ogliaro, M. J. Bearpark, J. J. Heyd, E. N. Brothers, K. N. Kudin, 
 V. N. Staroverov, T. A. Keith, R. Kobayashi, J. Normand, 
 K. Raghavachari, A. P. Rendell, J. C. Burant, S. S. Iyengar, 
 J. Tomasi, M. Cossi, J. M. Millam, M. Klene, C. Adamo, R. Cammi, 
 J. W. Ochterski, R. L. Martin, K. Morokuma, O. Farkas, 
 J. B. Foresman, and D. J. Fox, Gaussian, Inc., Wallingford CT, 2019.
 
 ******************************************
 Gaussian 16:  ES64L-G16RevC.01  3-Jul-2019
                 1-Nov-2021 
 ******************************************
 %chk=_2_alde1_4_ami1_2_opt_dcm_mp2.chk
 %mem=60000mb
 %nprocshared=32
 Will use up to   32 processors via shared memory.
 ----------------------------------------------------------------------
 #P MP2/aug-cc-pVDZ SP SCF=(YQC,MaxCycle=900) int=(Grid=Superfinegrid) 
 SCRF=(PCM,Solvent=Dichloromethane)
 ----------------------------------------------------------------------
 1/38=1,172=1/1;
 2/12=2,17=6,18=5,40=1/2;
 3/5=16,7=10,11=9,25=1,30=1,70=2201,72=9,75=-7/1,2,3;
 4//1;
 5/5=2,7=900,8=4,13=1,38=1,53=9/8,2,8;
 8/10=1/1;
 9/16=-3/6;
 6/7=2,8=2,9=2,10=2/1;
 99/5=1,9=1/99;
 Leave Link    1 at Mon Nov  1 18:13:27 2021, MaxMem=  7864320000 cpu:               7.8 elap:               0.3
 (Enter /apps/gaussian/g16-c01-avx/g16/l101.exe)
 -----------------------------
 _2_alde1_4_ami1_2_opt_dcm_mp2
 -----------------------------
 Symbolic Z-matrix:
 Charge =  0 Multiplicity = 1
 C                    -0.6967   -2.5386   -2.8682 
 C                     0.5874   -2.7339   -2.2084 
 C                    -1.8782   -2.5477   -2.1369 
 C                    -3.1009   -2.2879   -2.7579 
 H                    -1.8734   -2.762    -1.0789 
 C                    -3.1254   -1.9701   -4.1115 
 C                    -1.9479   -1.953    -4.8572 
 H                    -4.0527   -1.728    -4.6083 
 C                    -0.745    -2.2647   -4.2342 
 C                    -1.936    -1.5266   -6.2474 
 H                     0.1804   -2.2717   -4.7884 
 C                    -4.3453   -2.3498   -2.0042 
 H                    -0.9586   -1.5952   -6.7483 
 H                     0.57     -2.6834   -1.1087 
 H                    -5.2594   -2.1108   -2.5721 
 C                     1.062     0.692    -3.5727 
 C                     2.1794   -0.2379   -3.6304 
 C                     0.2545    0.8677   -4.6921 
 C                    -0.9242    1.6058   -4.6101 
 H                     0.502     0.4048   -5.6348 
 C                    -1.2646    2.2115   -3.4038 
 C                    -0.4439    2.0802   -2.286 
 H                    -2.1817    2.7806   -3.3308 
 C                     0.7095    1.3069   -2.3749 
 C                    -0.8212    2.6971   -1.021 
 H                     1.3246    1.1673   -1.5012 
 C                    -1.8505    1.6442   -5.7314 
 H                    -1.7535    3.2846   -1.0273 
 H                    -2.8521    2.0431   -5.5021 
 C                     3.7167   -1.6925   -2.6756 
 C                     2.9136   -2.9353   -2.1823 
 N                     2.8111   -0.5863   -2.5962 
 H                     4.0085   -1.8871   -3.7216 
 C                     4.9774   -1.3953   -1.8465 
 N                     1.6529   -2.8997   -2.8601 
 H                     2.7747   -2.8349   -1.0926 
 C                     3.6224   -4.2732   -2.4709 
 H                     5.6037   -2.2935   -1.8335 
 C                     4.6415   -0.9942   -0.4125 
 C                     5.7584   -0.2734   -2.5313 
 H                     4.6411   -4.2098   -2.0753 
 C                     3.6829   -4.5857   -3.9636 
 C                     2.8907   -5.395    -1.7338 
 H                     6.6749   -0.0599   -1.9863 
 H                     5.1537    0.6302   -2.5644 
 H                     6.0218   -0.5507   -3.5502 
 H                     5.5371   -0.6414    0.0941 
 H                     4.2449   -1.8342    0.1514 
 H                     3.9026   -0.1983   -0.421 
 H                     1.8701   -5.4815   -2.101 
 H                     2.8581   -5.1988   -0.6639 
 H                     3.3966   -6.3446   -1.8924 
 H                     4.0932   -5.5813   -4.1178 
 H                     4.3143   -3.8757   -4.491 
 H                     2.6833   -4.5461   -4.3876 
 C                    -5.6226   -2.7865   -0.0951 
 C                    -5.5486   -1.9269    1.2057 
 N                    -4.3745   -2.6788   -0.7881 
 H                    -6.4473   -2.4194   -0.7303 
 C                    -5.8971   -4.2908    0.1505 
 N                    -4.1898   -1.7439    1.6884 
 H                    -6.1016   -2.4353    2.0024 
 C                    -6.1941   -0.5408    0.9996 
 H                    -5.8086   -4.7731   -0.8322 
 C                    -7.3173   -4.5205    0.6598 
 C                    -4.8739   -4.9379    1.079 
 H                    -5.7227   -0.0751    0.1254 
 C                    -5.9394    0.3411    2.2215 
 C                    -7.702    -0.6327    0.77 
 H                    -5.0317   -6.0143    1.1087 
 H                    -4.9693   -4.5553    2.0925 
 H                    -3.8672   -4.7482    0.7149 
 H                    -8.0474   -4.0809   -0.0161 
 H                    -7.4572   -4.0844    1.6456 
 H                    -7.5147   -5.5879    0.7304 
 H                    -7.952    -1.1744   -0.1384 
 H                    -8.1231    0.367     0.6878 
 H                    -8.1787   -1.1359    1.6086 
 H                    -6.4429   -0.0754    3.0906 
 H                    -6.3216    1.3446    2.0477 
 H                    -4.8781    0.3951    2.4359 
 C                    -2.7725   -0.4488   -8.1185 
 C                    -2.5731    1.0781   -7.8725 
 N                    -2.9481   -1.0423   -6.8246 
 H                    -1.8491   -0.8208   -8.593 
 C                    -3.9728   -0.7904   -9.0163 
 N                    -1.5574    1.1896   -6.8698 
 H                    -3.5305    1.4875   -7.506 
 C                    -2.1534    1.856    -9.1343 
 H                    -3.8413   -0.2828   -9.9774 
 C                    -5.2981   -0.3585   -8.3948 
 C                    -3.9802   -2.2987   -9.2669 
 H                    -2.8997    1.6682   -9.9127 
 C                    -0.7775    1.435    -9.6429 
 C                    -2.1575    3.3522   -8.8193 
 H                    -3.0457   -2.6194   -9.7229 
 H                    -4.7974   -2.5701   -9.9313 
 H                    -4.1042   -2.8292   -8.3255 
 H                    -5.3583   -0.7285   -7.3754 
 H                    -6.1285   -0.7647   -8.9681 
 H                    -5.3949    0.724    -8.3826 
 H                    -3.1355    3.6705   -8.4631 
 H                    -1.9141    3.9269   -9.71 
 H                    -1.4203    3.5754   -8.051 
 H                    -0.4593    2.0983   -10.4442 
 H                    -0.7933    0.4204   -10.0319 
 H                    -0.0555    1.4895   -8.8328 
 C                     0.6092    4.07      1.7061 
 C                    -0.5257    3.1182    1.2635 
 N                     0.6192    5.1796    0.7563 
 H                     1.5477    3.4896    1.6667 
 C                     0.4465    4.6204    3.1357 
 N                    -0.1211    2.547     0.0155 
 H                    -1.4431    3.7221    1.1476 
 C                    -0.8213    1.9563    2.2376 
 H                     0.3992    3.768     3.8198 
 C                    -0.8245    5.453     3.2787 
 C                     1.6654    5.4553    3.5346 
 H                    -1.119     2.388     3.1976 
 C                     0.3941    1.0563    2.4407 
 C                    -1.9973    1.1348    1.7088 
 H                     2.5884    4.9117    3.3406 
 H                     1.6246    5.6879    4.5965 
 H                     1.6883    6.3942    2.9871 
 H                    -0.8546    6.2054    2.4956 
 H                    -0.8426    5.9473    4.2474 
 H                    -1.7113    4.8305    3.1967 
 H                    -2.273     0.3636    2.424 
 H                    -1.7311    0.6547    0.769 
 H                    -2.8642    1.7699    1.5371 
 H                     0.7563    0.7059    1.4782 
 H                     0.12      0.1965    3.0484 
 H                     1.1981    1.587     2.9434 
 H                     2.3825   -0.6788   -4.6184 
 H                    -3.6398   -1.2957    0.9615 
 H                    -3.7646   -2.6473    1.8592 
 H                     0.6758    4.8148   -0.1888 
 H                     1.438     5.7578    0.9075 
 
 ITRead=  0  0  0  0  0  0  0  0  0  0  0  0  0  0  0  0  0  0  0  0
 ITRead=  0  0  0  0  0  0  0  0  0  0  0  0  0  0  0  0  0  0  0  0
 ITRead=  0  0  0  0  0  0  0  0  0  0  0  0  0  0  0  0  0  0  0  0
 ITRead=  0  0  0  0  0  0  0  0  0  0  0  0  0  0  0  0  0  0  0  0
 ITRead=  0  0  0  0  0  0  0  0  0  0  0  0  0  0  0  0  0  0  0  0
 ITRead=  0  0  0  0  0  0  0  0  0  0  0  0  0  0  0  0  0  0  0  0
 ITRead=  0  0  0  0  0  0  0  0  0  0  0  0  0  0  0  0  0  0
 MicOpt= -1 -1 -1 -1 -1 -1 -1 -1 -1 -1 -1 -1 -1 -1 -1 -1 -1 -1 -1 -1
 MicOpt= -1 -1 -1 -1 -1 -1 -1 -1 -1 -1 -1 -1 -1 -1 -1 -1 -1 -1 -1 -1
 MicOpt= -1 -1 -1 -1 -1 -1 -1 -1 -1 -1 -1 -1 -1 -1 -1 -1 -1 -1 -1 -1
 MicOpt= -1 -1 -1 -1 -1 -1 -1 -1 -1 -1 -1 -1 -1 -1 -1 -1 -1 -1 -1 -1
 MicOpt= -1 -1 -1 -1 -1 -1 -1 -1 -1 -1 -1 -1 -1 -1 -1 -1 -1 -1 -1 -1
 MicOpt= -1 -1 -1 -1 -1 -1 -1 -1 -1 -1 -1 -1 -1 -1 -1 -1 -1 -1 -1 -1
 MicOpt= -1 -1 -1 -1 -1 -1 -1 -1 -1 -1 -1 -1 -1 -1 -1 -1 -1 -1
 NAtoms=    138 NQM=      138 NQMF=       0 NMMI=      0 NMMIF=      0
                NMic=       0 NMicF=      0.
                    Isotopes and Nuclear Properties:
 (Nuclear quadrupole moments (NQMom) in fm**2, nuclear magnetic moments (NMagM)
  in nuclear magnetons)

  Atom         1           2           3           4           5           6           7           8           9          10
 IAtWgt=          12          12          12          12           1          12          12           1          12          12
 AtmWgt=  12.0000000  12.0000000  12.0000000  12.0000000   1.0078250  12.0000000  12.0000000   1.0078250  12.0000000  12.0000000
 NucSpn=           0           0           0           0           1           0           0           1           0           0
 AtZEff=  -0.0000000  -0.0000000  -0.0000000  -0.0000000  -0.0000000  -0.0000000  -0.0000000  -0.0000000  -0.0000000  -0.0000000
 NQMom=    0.0000000   0.0000000   0.0000000   0.0000000   0.0000000   0.0000000   0.0000000   0.0000000   0.0000000   0.0000000
 NMagM=    0.0000000   0.0000000   0.0000000   0.0000000   2.7928460   0.0000000   0.0000000   2.7928460   0.0000000   0.0000000
 AtZNuc=   6.0000000   6.0000000   6.0000000   6.0000000   1.0000000   6.0000000   6.0000000   1.0000000   6.0000000   6.0000000

  Atom        11          12          13          14          15          16          17          18          19          20
 IAtWgt=           1          12           1           1           1          12          12          12          12           1
 AtmWgt=   1.0078250  12.0000000   1.0078250   1.0078250   1.0078250  12.0000000  12.0000000  12.0000000  12.0000000   1.0078250
 NucSpn=           1           0           1           1           1           0           0           0           0           1
 AtZEff=  -0.0000000  -0.0000000  -0.0000000  -0.0000000  -0.0000000  -0.0000000  -0.0000000  -0.0000000  -0.0000000  -0.0000000
 NQMom=    0.0000000   0.0000000   0.0000000   0.0000000   0.0000000   0.0000000   0.0000000   0.0000000   0.0000000   0.0000000
 NMagM=    2.7928460   0.0000000   2.7928460   2.7928460   2.7928460   0.0000000   0.0000000   0.0000000   0.0000000   2.7928460
 AtZNuc=   1.0000000   6.0000000   1.0000000   1.0000000   1.0000000   6.0000000   6.0000000   6.0000000   6.0000000   1.0000000

  Atom        21          22          23          24          25          26          27          28          29          30
 IAtWgt=          12          12           1          12          12           1          12           1           1          12
 AtmWgt=  12.0000000  12.0000000   1.0078250  12.0000000  12.0000000   1.0078250  12.0000000   1.0078250   1.0078250  12.0000000
 NucSpn=           0           0           1           0           0           1           0           1           1           0
 AtZEff=  -0.0000000  -0.0000000  -0.0000000  -0.0000000  -0.0000000  -0.0000000  -0.0000000  -0.0000000  -0.0000000  -0.0000000
 NQMom=    0.0000000   0.0000000   0.0000000   0.0000000   0.0000000   0.0000000   0.0000000   0.0000000   0.0000000   0.0000000
 NMagM=    0.0000000   0.0000000   2.7928460   0.0000000   0.0000000   2.7928460   0.0000000   2.7928460   2.7928460   0.0000000
 AtZNuc=   6.0000000   6.0000000   1.0000000   6.0000000   6.0000000   1.0000000   6.0000000   1.0000000   1.0000000   6.0000000

  Atom        31          32          33          34          35          36          37          38          39          40
 IAtWgt=          12          14           1          12          14           1          12           1          12          12
 AtmWgt=  12.0000000  14.0030740   1.0078250  12.0000000  14.0030740   1.0078250  12.0000000   1.0078250  12.0000000  12.0000000
 NucSpn=           0           2           1           0           2           1           0           1           0           0
 AtZEff=  -0.0000000  -0.0000000  -0.0000000  -0.0000000  -0.0000000  -0.0000000  -0.0000000  -0.0000000  -0.0000000  -0.0000000
 NQMom=    0.0000000   2.0440000   0.0000000   0.0000000   2.0440000   0.0000000   0.0000000   0.0000000   0.0000000   0.0000000
 NMagM=    0.0000000   0.4037610   2.7928460   0.0000000   0.4037610   2.7928460   0.0000000   2.7928460   0.0000000   0.0000000
 AtZNuc=   6.0000000   7.0000000   1.0000000   6.0000000   7.0000000   1.0000000   6.0000000   1.0000000   6.0000000   6.0000000

  Atom        41          42          43          44          45          46          47          48          49          50
 IAtWgt=           1          12          12           1           1           1           1           1           1           1
 AtmWgt=   1.0078250  12.0000000  12.0000000   1.0078250   1.0078250   1.0078250   1.0078250   1.0078250   1.0078250   1.0078250
 NucSpn=           1           0           0           1           1           1           1           1           1           1
 AtZEff=  -0.0000000  -0.0000000  -0.0000000  -0.0000000  -0.0000000  -0.0000000  -0.0000000  -0.0000000  -0.0000000  -0.0000000
 NQMom=    0.0000000   0.0000000   0.0000000   0.0000000   0.0000000   0.0000000   0.0000000   0.0000000   0.0000000   0.0000000
 NMagM=    2.7928460   0.0000000   0.0000000   2.7928460   2.7928460   2.7928460   2.7928460   2.7928460   2.7928460   2.7928460
 AtZNuc=   1.0000000   6.0000000   6.0000000   1.0000000   1.0000000   1.0000000   1.0000000   1.0000000   1.0000000   1.0000000

  Atom        51          52          53          54          55          56          57          58          59          60
 IAtWgt=           1           1           1           1           1          12          12          14           1          12
 AtmWgt=   1.0078250   1.0078250   1.0078250   1.0078250   1.0078250  12.0000000  12.0000000  14.0030740   1.0078250  12.0000000
 NucSpn=           1           1           1           1           1           0           0           2           1           0
 AtZEff=  -0.0000000  -0.0000000  -0.0000000  -0.0000000  -0.0000000  -0.0000000  -0.0000000  -0.0000000  -0.0000000  -0.0000000
 NQMom=    0.0000000   0.0000000   0.0000000   0.0000000   0.0000000   0.0000000   0.0000000   2.0440000   0.0000000   0.0000000
 NMagM=    2.7928460   2.7928460   2.7928460   2.7928460   2.7928460   0.0000000   0.0000000   0.4037610   2.7928460   0.0000000
 AtZNuc=   1.0000000   1.0000000   1.0000000   1.0000000   1.0000000   6.0000000   6.0000000   7.0000000   1.0000000   6.0000000

  Atom        61          62          63          64          65          66          67          68          69          70
 IAtWgt=          14           1          12           1          12          12           1          12          12           1
 AtmWgt=  14.0030740   1.0078250  12.0000000   1.0078250  12.0000000  12.0000000   1.0078250  12.0000000  12.0000000   1.0078250
 NucSpn=           2           1           0           1           0           0           1           0           0           1
 AtZEff=  -0.0000000  -0.0000000  -0.0000000  -0.0000000  -0.0000000  -0.0000000  -0.0000000  -0.0000000  -0.0000000  -0.0000000
 NQMom=    2.0440000   0.0000000   0.0000000   0.0000000   0.0000000   0.0000000   0.0000000   0.0000000   0.0000000   0.0000000
 NMagM=    0.4037610   2.7928460   0.0000000   2.7928460   0.0000000   0.0000000   2.7928460   0.0000000   0.0000000   2.7928460
 AtZNuc=   7.0000000   1.0000000   6.0000000   1.0000000   6.0000000   6.0000000   1.0000000   6.0000000   6.0000000   1.0000000

  Atom        71          72          73          74          75          76          77          78          79          80
 IAtWgt=           1           1           1           1           1           1           1           1           1           1
 AtmWgt=   1.0078250   1.0078250   1.0078250   1.0078250   1.0078250   1.0078250   1.0078250   1.0078250   1.0078250   1.0078250
 NucSpn=           1           1           1           1           1           1           1           1           1           1
 AtZEff=  -0.0000000  -0.0000000  -0.0000000  -0.0000000  -0.0000000  -0.0000000  -0.0000000  -0.0000000  -0.0000000  -0.0000000
 NQMom=    0.0000000   0.0000000   0.0000000   0.0000000   0.0000000   0.0000000   0.0000000   0.0000000   0.0000000   0.0000000
 NMagM=    2.7928460   2.7928460   2.7928460   2.7928460   2.7928460   2.7928460   2.7928460   2.7928460   2.7928460   2.7928460
 AtZNuc=   1.0000000   1.0000000   1.0000000   1.0000000   1.0000000   1.0000000   1.0000000   1.0000000   1.0000000   1.0000000

  Atom        81          82          83          84          85          86          87          88          89          90
 IAtWgt=           1          12          12          14           1          12          14           1          12           1
 AtmWgt=   1.0078250  12.0000000  12.0000000  14.0030740   1.0078250  12.0000000  14.0030740   1.0078250  12.0000000   1.0078250
 NucSpn=           1           0           0           2           1           0           2           1           0           1
 AtZEff=  -0.0000000  -0.0000000  -0.0000000  -0.0000000  -0.0000000  -0.0000000  -0.0000000  -0.0000000  -0.0000000  -0.0000000
 NQMom=    0.0000000   0.0000000   0.0000000   2.0440000   0.0000000   0.0000000   2.0440000   0.0000000   0.0000000   0.0000000
 NMagM=    2.7928460   0.0000000   0.0000000   0.4037610   2.7928460   0.0000000   0.4037610   2.7928460   0.0000000   2.7928460
 AtZNuc=   1.0000000   6.0000000   6.0000000   7.0000000   1.0000000   6.0000000   7.0000000   1.0000000   6.0000000   1.0000000

  Atom        91          92          93          94          95          96          97          98          99         100
 IAtWgt=          12          12           1          12          12           1           1           1           1           1
 AtmWgt=  12.0000000  12.0000000   1.0078250  12.0000000  12.0000000   1.0078250   1.0078250   1.0078250   1.0078250   1.0078250
 NucSpn=           0           0           1           0           0           1           1           1           1           1
 AtZEff=  -0.0000000  -0.0000000  -0.0000000  -0.0000000  -0.0000000  -0.0000000  -0.0000000  -0.0000000  -0.0000000  -0.0000000
 NQMom=    0.0000000   0.0000000   0.0000000   0.0000000   0.0000000   0.0000000   0.0000000   0.0000000   0.0000000   0.0000000
 NMagM=    0.0000000   0.0000000   2.7928460   0.0000000   0.0000000   2.7928460   2.7928460   2.7928460   2.7928460   2.7928460
 AtZNuc=   6.0000000   6.0000000   1.0000000   6.0000000   6.0000000   1.0000000   1.0000000   1.0000000   1.0000000   1.0000000

  Atom       101         102         103         104         105         106         107         108         109         110
 IAtWgt=           1           1           1           1           1           1           1          12          12          14
 AtmWgt=   1.0078250   1.0078250   1.0078250   1.0078250   1.0078250   1.0078250   1.0078250  12.0000000  12.0000000  14.0030740
 NucSpn=           1           1           1           1           1           1           1           0           0           2
 AtZEff=  -0.0000000  -0.0000000  -0.0000000  -0.0000000  -0.0000000  -0.0000000  -0.0000000  -0.0000000  -0.0000000  -0.0000000
 NQMom=    0.0000000   0.0000000   0.0000000   0.0000000   0.0000000   0.0000000   0.0000000   0.0000000   0.0000000   2.0440000
 NMagM=    2.7928460   2.7928460   2.7928460   2.7928460   2.7928460   2.7928460   2.7928460   0.0000000   0.0000000   0.4037610
 AtZNuc=   1.0000000   1.0000000   1.0000000   1.0000000   1.0000000   1.0000000   1.0000000   6.0000000   6.0000000   7.0000000

  Atom       111         112         113         114         115         116         117         118         119         120
 IAtWgt=           1          12          14           1          12           1          12          12           1          12
 AtmWgt=   1.0078250  12.0000000  14.0030740   1.0078250  12.0000000   1.0078250  12.0000000  12.0000000   1.0078250  12.0000000
 NucSpn=           1           0           2           1           0           1           0           0           1           0
 AtZEff=  -0.0000000  -0.0000000  -0.0000000  -0.0000000  -0.0000000  -0.0000000  -0.0000000  -0.0000000  -0.0000000  -0.0000000
 NQMom=    0.0000000   0.0000000   2.0440000   0.0000000   0.0000000   0.0000000   0.0000000   0.0000000   0.0000000   0.0000000
 NMagM=    2.7928460   0.0000000   0.4037610   2.7928460   0.0000000   2.7928460   0.0000000   0.0000000   2.7928460   0.0000000
 AtZNuc=   1.0000000   6.0000000   7.0000000   1.0000000   6.0000000   1.0000000   6.0000000   6.0000000   1.0000000   6.0000000

  Atom       121         122         123         124         125         126         127         128         129         130
 IAtWgt=          12           1           1           1           1           1           1           1           1           1
 AtmWgt=  12.0000000   1.0078250   1.0078250   1.0078250   1.0078250   1.0078250   1.0078250   1.0078250   1.0078250   1.0078250
 NucSpn=           0           1           1           1           1           1           1           1           1           1
 AtZEff=  -0.0000000  -0.0000000  -0.0000000  -0.0000000  -0.0000000  -0.0000000  -0.0000000  -0.0000000  -0.0000000  -0.0000000
 NQMom=    0.0000000   0.0000000   0.0000000   0.0000000   0.0000000   0.0000000   0.0000000   0.0000000   0.0000000   0.0000000
 NMagM=    0.0000000   2.7928460   2.7928460   2.7928460   2.7928460   2.7928460   2.7928460   2.7928460   2.7928460   2.7928460
 AtZNuc=   6.0000000   1.0000000   1.0000000   1.0000000   1.0000000   1.0000000   1.0000000   1.0000000   1.0000000   1.0000000

  Atom       131         132         133         134         135         136         137         138
 IAtWgt=           1           1           1           1           1           1           1           1
 AtmWgt=   1.0078250   1.0078250   1.0078250   1.0078250   1.0078250   1.0078250   1.0078250   1.0078250
 NucSpn=           1           1           1           1           1           1           1           1
 AtZEff=  -0.0000000  -0.0000000  -0.0000000  -0.0000000  -0.0000000  -0.0000000  -0.0000000  -0.0000000
 NQMom=    0.0000000   0.0000000   0.0000000   0.0000000   0.0000000   0.0000000   0.0000000   0.0000000
 NMagM=    2.7928460   2.7928460   2.7928460   2.7928460   2.7928460   2.7928460   2.7928460   2.7928460
 AtZNuc=   1.0000000   1.0000000   1.0000000   1.0000000   1.0000000   1.0000000   1.0000000   1.0000000
 Leave Link  101 at Mon Nov  1 18:13:28 2021, MaxMem=  7864320000 cpu:               3.7 elap:               0.1
 (Enter /apps/gaussian/g16-c01-avx/g16/l202.exe)
 Stoichiometry    C50H80N8
 Framework group  C1[X(C50H80N8)]
 Deg. of freedom   408
 Full point group                 C1      NOp   1
 Largest Abelian subgroup         C1      NOp   1
 Largest concise Abelian subgroup C1      NOp   1
                         Standard orientation:                         
 ---------------------------------------------------------------------
 Center     Atomic      Atomic             Coordinates (Angstroms)
 Number     Number       Type             X           Y           Z
 ---------------------------------------------------------------------
      1          6           0       -0.947134    0.013390    2.163696
      2          6           0       -0.198206   -1.035491    2.842922
      3          6           0       -0.386781    1.269235    1.964489
      4          6           0       -1.075999    2.250207    1.249783
      5          1           0        0.586609    1.511334    2.363502
      6          6           0       -2.313602    1.946624    0.693002
      7          6           0       -2.886519    0.689906    0.880864
      8          1           0       -2.850944    2.674288    0.103870
      9          6           0       -2.209656   -0.258513    1.638896
     10          6           0       -4.130190    0.317117    0.225939
     11          1           0       -2.633831   -1.235134    1.811635
     12          6           0       -0.513752    3.583430    1.086003
     13          1           0       -4.510649   -0.683308    0.481514
     14          1           0        0.873346   -0.833162    2.994684
     15          1           0       -1.118866    4.286511    0.490415
     16          6           0       -0.674180   -2.617257   -0.487966
     17          6           0       -0.806620   -3.447989    0.699035
     18          6           0       -1.813449   -2.098722   -1.095560
     19          6           0       -1.708892   -1.155894   -2.115851
     20          1           0       -2.799712   -2.384535   -0.764181
     21          6           0       -0.446675   -0.771126   -2.559322
     22          6           0        0.702815   -1.313943   -1.989860
     23          1           0       -0.357625   -0.034546   -3.346594
     24          6           0        0.580459   -2.224919   -0.945169
     25          6           0        2.019795   -0.886435   -2.443673
     26          1           0        1.467256   -2.614617   -0.473032
     27          6           0       -2.895879   -0.489505   -2.629473
     28          1           0        2.034615   -0.154521   -3.267361
     29          1           0       -2.705105    0.399480   -3.252541
     30          6           0       -0.030093   -4.358629    2.688642
     31          6           0        0.064180   -3.186351    3.713212
     32          7           0        0.189437   -3.770499    1.401783
     33          1           0       -1.049339   -4.774445    2.761894
     34          6           0        0.992192   -5.481866    2.930245
     35          7           0       -0.735825   -2.121693    3.187342
     36          1           0        1.122697   -2.883411    3.780951
     37          6           0       -0.434381   -3.565713    5.121468
     38          1           0        0.875488   -5.841940    3.957820
     39          6           0        2.428058   -5.007361    2.722404
     40          6           0        0.682609   -6.636579    1.977162
     41          1           0        0.086253   -4.477305    5.431643
     42          6           0       -1.940204   -3.812355    5.155168
     43          6           0       -0.068260   -2.448354    6.098505
     44          1           0        1.369438   -7.462927    2.144481
     45          1           0        0.783765   -6.302033    0.947067
     46          1           0       -0.332845   -6.999188    2.124810
     47          1           0        3.107129   -5.856789    2.745768
     48          1           0        2.732185   -4.312103    3.500220
     49          1           0        2.511989   -4.513198    1.758941
     50          1           0       -0.566982   -1.523858    5.814733
     51          1           0        1.005999   -2.274613    6.103560
     52          1           0       -0.377121   -2.711925    7.107447
     53          1           0       -2.266982   -3.972525    6.180304
     54          1           0       -2.210233   -4.690270    4.574422
     55          1           0       -2.462373   -2.950621    4.748598
     56          6           0        1.074639    5.253587    1.479006
     57          6           0        2.536685    5.196609    0.935273
     58          7           0        0.581949    3.916003    1.612147
     59          1           0        0.444723    5.826578    0.776682
     60          6           0        0.934209    5.946954    2.856726
     61          7           0        3.210222    3.947125    1.248261
     62          1           0        3.122486    5.996761    1.399606
     63          6           0        2.576190    5.413997   -0.591685
     64          1           0       -0.114488    5.809810    3.152651
     65          6           0        1.200605    7.446148    2.753936
     66          6           0        1.807503    5.310925    3.934043
     67          1           0        1.895830    4.688297   -1.054060
     68          6           0        3.989138    5.165507   -1.118457
     69          6           0        2.149791    6.827222   -0.986532
     70          1           0        1.570674    5.744006    4.903978
     71          1           0        2.862294    5.485932    3.735409
     72          1           0        1.621840    4.240732    3.981104
     73          1           0        0.559489    7.903281    2.003514
     74          1           0        2.235466    7.644562    2.487004
     75          1           0        1.000515    7.921881    3.711504
     76          1           0        1.118044    7.040092   -0.719485
     77          1           0        2.247872    6.953836   -2.062558
     78          1           0        2.786542    7.561198   -0.497112
     79          1           0        4.671921    5.908043   -0.712542
     80          1           0        4.004356    5.237659   -2.203749
     81          1           0        4.337802    4.183149   -0.820722
     82          6           0       -5.792583    0.494298   -1.376390
     83          6           0       -5.181328   -0.044739   -2.705866
     84          7           0       -4.700090    1.048176   -0.630110
     85          1           0       -6.223543   -0.371760   -0.846844
     86          6           0       -6.884024    1.559257   -1.571514
     87          7           0       -4.063701   -0.856124   -2.328968
     88          1           0       -4.850258    0.824398   -3.300457
     89          6           0       -6.170899   -0.872083   -3.548283
     90          1           0       -7.680116    1.129592   -2.188190
     91          6           0       -6.346320    2.817836   -2.246847
     92          6           0       -7.472086    1.910449   -0.204521
     93          1           0       -7.056545   -0.256099   -3.733576
     94          6           0       -6.590905   -2.161081   -2.847501
     95          6           0       -5.524807   -1.197591   -4.895304
     96          1           0       -7.872089    1.023955    0.283538
     97          1           0       -8.275390    2.635920   -0.310794
     98          1           0       -6.699347    2.335348    0.432171
     99          1           0       -5.453753    3.154847   -1.727763
    100          1           0       -7.094090    3.607117   -2.213517
    101          1           0       -6.098630    2.632375   -3.288758
    102          1           0       -5.227040   -0.287243   -5.412292
    103          1           0       -6.223926   -1.738048   -5.529347
    104          1           0       -4.641924   -1.815907   -4.747758
    105          1           0       -7.174298   -2.779236   -3.526351
    106          1           0       -7.200693   -1.954431   -1.972036
    107          1           0       -5.708103   -2.713850   -2.538272
    108          6           0        5.142016   -2.105282   -2.809902
    109          6           0        4.358557   -0.862505   -2.328745
    110          7           0        4.479790   -2.573053   -4.024843
    111          1           0        5.085438   -2.853177   -1.999562
    112          6           0        6.628886   -1.834495   -3.108330
    113          7           0        3.071777   -1.324648   -1.906731
    114          1           0        4.273089   -0.168785   -3.183847
    115          6           0        4.997507   -0.105798   -1.143250
    116          1           0        7.088801   -1.445789   -2.194984
    117          6           0        6.802742   -0.817445   -4.232828
    118          6           0        7.353618   -3.134705   -3.463454
    119          1           0        5.987226    0.238841   -1.456729
    120          6           0        5.135729   -0.990093    0.092615
    121          6           0        4.155604    1.126750   -0.812351
    122          1           0        7.154257   -3.905349   -2.720872
    123          1           0        8.427481   -2.964027   -3.496434
    124          1           0        7.042455   -3.497891   -4.439716
    125          1           0        6.214903   -1.124777   -5.093206
    126          1           0        7.849235   -0.752742   -4.522146
    127          1           0        6.473120    0.170055   -3.921643
    128          1           0        4.636324    1.716865   -0.035858
    129          1           0        3.170483    0.828156   -0.458853
    130          1           0        4.029531    1.754398   -1.692415
    131          1           0        4.170051   -1.417389    0.348077
    132          1           0        5.492545   -0.398056    0.932770
    133          1           0        5.840585   -1.799236   -0.078357
    134          1           0       -1.837007   -3.705538    0.988442
    135          1           0        2.677695    3.177988    0.852522
    136          1           0        3.220248    3.807774    2.251546
    137          1           0        3.490410   -2.703466   -3.841496
    138          1           0        4.857831   -3.472068   -4.301370
 ---------------------------------------------------------------------
 Rotational constants (GHZ):           0.0362165           0.0310111           0.0260591
 Leave Link  202 at Mon Nov  1 18:13:28 2021, MaxMem=  7864320000 cpu:               0.7 elap:               0.1
 (Enter /apps/gaussian/g16-c01-avx/g16/l301.exe)
 Standard basis: Aug-CC-pVDZ (5D, 7F)
 Ernie: Thresh=  0.10000D-02 Tol=  0.10000D-05 Strict=F.
 Ernie:  116 primitive shells out of 2010 were deleted.
 There are  2170 symmetry adapted cartesian basis functions of A   symmetry.
 There are  2054 symmetry adapted basis functions of A   symmetry.
  2054 basis functions,  3374 primitive gaussians,  2170 cartesian basis functions
   218 alpha electrons      218 beta electrons
       nuclear repulsion energy      8758.5231894044 Hartrees.
 IExCor=    0 DFT=F Ex=HF Corr=None ExCW=0 ScaHFX=  1.000000
 ScaDFX=  1.000000  1.000000  1.000000  1.000000 ScalE2=  1.000000  1.000000
 IRadAn=      7 IRanWt=     -1 IRanGd=            0 ICorTp=0 IEmpDi=  4
 NAtoms=  138 NActive=  138 NUniq=  138 SFac= 1.00D+00 NAtFMM=   60 NAOKFM=T Big=T
 Integral buffers will be    131072 words long.
 Raffenetti 1 integral format.
 Two-electron integral symmetry is turned on.
 ------------------------------------------------------------------------------
 Polarizable Continuum Model (PCM)
 =================================
 Model                : PCM.
 Atomic radii         : UFF (Universal Force Field).
 Polarization charges : Total charges.
 Charge compensation  : None.
 Solution method      : On-the-fly selection.
 Cavity type          : Scaled VdW (van der Waals Surface) (Alpha=1.100).
 Cavity algorithm     : GePol (No added spheres)
                        Default sphere list used, NSphG=  138.
                        Lebedev-Laikov grids with approx.  5.0 points / Ang**2.
                        Smoothing algorithm: York/Karplus (Gamma=1.0000).
                        Polarization charges: spherical gaussians, with
                                              point-specific exponents (IZeta= 3).
                        Self-potential: point-specific (ISelfS= 7).
                        Self-field    : sphere-specific E.n sum rule (ISelfD= 2).
 Solvent              : Dichloromethane, Eps=   8.930000 Eps(inf)=   2.028346
 ------------------------------------------------------------------------------
 GePol: Number of generator spheres                  =     138
 GePol: Total number of spheres                      =     138
 GePol: Number of exposed spheres                    =     138 (100.00%)
 GePol: Number of points                             =    7790
 GePol: Average weight of points                     =       0.13
 GePol: Minimum weight of points                     =   0.84D-10
 GePol: Maximum weight of points                     =    0.20577
 GePol: Number of points with low weight             =     590
 GePol: Fraction of low-weight points (<1% of avg)   =       7.57%
 GePol: Cavity surface area                          =   1008.496 Ang**2
 GePol: Cavity volume                                =   1226.859 Ang**3
 Leave Link  301 at Mon Nov  1 18:13:29 2021, MaxMem=  7864320000 cpu:               3.3 elap:               0.1
 (Enter /apps/gaussian/g16-c01-avx/g16/l302.exe)
 NPDir=0 NMtPBC=     1 NCelOv=     1 NCel=       1 NClECP=     1 NCelD=      1
         NCelK=      1 NCelE2=     1 NClLst=     1 CellRange=     0.0.
 One-electron integrals computed using PRISM.
 One-electron integral symmetry used in STVInt
 NBasis=  2054 RedAO= T EigKep=  1.09D-06  NBF=  2054
 NBsUse=  2032 1.00D-06 EigRej=  9.74D-07 NBFU=  2032
 Leave Link  302 at Mon Nov  1 18:13:49 2021, MaxMem=  7864320000 cpu:             617.1 elap:              19.4
 (Enter /apps/gaussian/g16-c01-avx/g16/l303.exe)
 DipDrv:  MaxL=1.
 Leave Link  303 at Mon Nov  1 18:13:51 2021, MaxMem=  7864320000 cpu:              39.9 elap:               1.6
 (Enter /apps/gaussian/g16-c01-avx/g16/l401.exe)
 ExpMin= 2.97D-02 ExpMax= 9.05D+03 ExpMxC= 3.09D+02 IAcc=3 IRadAn=         7 AccDes= 0.00D+00
 Harris functional with IExCor=  205 and IRadAn=       7 diagonalized for initial guess.
 HarFok:  IExCor=  205 AccDes= 0.00D+00 IRadAn=         7 IDoV= 1 UseB2=F ITyADJ=14
 ICtDFT=  3500011 ScaDFX=  1.000000  1.000000  1.000000  1.000000
 FoFCou: FMM=F IPFlag=           0 FMFlag=      100000 FMFlg1=        2001
         NFxFlg=           0 DoJE=T BraDBF=F KetDBF=T FulRan=T
         wScrn=  0.000000 ICntrl=       500 IOpCl=  0 I1Cent=   200000004 NGrid=           0
         NMat0=    1 NMatS0=      1 NMatT0=    0 NMatD0=    1 NMtDS0=    0 NMtDT0=    0
 Petite list used in FoFCou.
 Harris En= -2380.13817948486    
 JPrj=0 DoOrth=F DoCkMO=F.
 Leave Link  401 at Mon Nov  1 18:14:56 2021, MaxMem=  7864320000 cpu:            2042.6 elap:              64.4
 (Enter /apps/gaussian/g16-c01-avx/g16/l508.exe)
 Integral symmetry usage will be decided dynamically.
 Tight linear equation convergence will be used.
 RHF wavefunction.
 Linear searches until partial convergence.
 Full line searches.
 Fock matrices will be formed incrementally for  20 cycles.
 Inv3:  Mode=1 IEnd=   182052300.
 Iteration    1 A*A^-1 deviation from unit magnitude is 1.03D-14 for   7784.
 Iteration    1 A*A^-1 deviation from orthogonality  is 4.38D-15 for   7775   5988.
 Iteration    1 A^-1*A deviation from unit magnitude is 1.01D-14 for   7784.
 Iteration    1 A^-1*A deviation from orthogonality  is 1.84D-14 for   6851   6822.
 FoFJK:  IHMeth= 1 ICntrl=       0 DoSepK=F KAlg= 0 I1Cent=           0 FoldK=F
 IRaf= 930000000 NMat=       1 IRICut=       1 DoRegI=T DoRafI=F ISym2E= 1 IDoP0=0 IntGTp=1.
 Iteration   1 EE= -2373.09241079913                                    Grad=2.537D+00 Max rot=    1.7935 deg.
 Gradient too large for Newton-Raphson -- use scaled steepest descent instead.
 Alpha Gap=     0.420 HL deriv= 3.26D-03
     ILin= 1 X=0.000D+00 Y=-2.373092410799D+03 DE= 0.00D+00 F= -8.64D+00
 RMSU=  6.70D-03    CP:  7.84D-01
     ILin= 2 X=3.000D-01 Y=-2.375016761007D+03 DE=-1.92D+00 F= -4.17D+00 OKLS=F
 RMSU=  1.42D-03    CP:  6.73D-01  1.58D+00
     ILin= 3 X=5.000D-01 Y=-2.375551532981D+03 DE=-2.46D+00 F= -1.17D+00
 RMSU=  3.37D-03    CP:  5.27D-01  2.52D+00  3.00D+00
     ILin= 4 X=9.000D-01 Y=-2.374829651587D+03 DE=-1.74D+00 F=  4.76D+00
     An  expanding polynomial of degree  4 produced  0.5790
 RMSU=  3.18D-06    CP:  6.35D-01  1.79D+00  1.61D+00  1.42D-05
 Iteration   2 EE= -2375.59752912104     Delta-E=       -2.505118321913 Grad=8.273D-01 Max rot=    0.9306 deg.
 Gradient too large for Newton-Raphson -- use scaled steepest descent instead.
 Alpha Gap=     0.434 HL deriv= 3.91D-03
     ILin= 1 X=0.000D+00 Y=-2.375597529121D+03 DE= 0.00D+00 F= -3.69D-01
 RMSU=  1.60D-03    CP:  5.73D-01  2.05D+00  2.86D+00  2.24D-03  3.00D+00
     ILin= 2 X=4.000D-01 Y=-2.375711021801D+03 DE=-1.13D-01 F= -1.99D-01 OKLS=F
 RMSU=  3.03D-04    CP:  5.23D-01  2.28D+00  3.00D+00  5.97D-01  3.00D+00
                    CP:  1.91D+00
     ILin= 3 X=8.000D-01 Y=-2.375756580254D+03 DE=-1.59D-01 F= -2.91D-02
 RMSU=  1.54D-03    CP:  4.59D-01  2.68D+00  3.00D+00  2.53D+00  3.00D+00
                    CP:  3.00D+00  3.00D+00
     ILin= 4 X=1.700D+00 Y=-2.375611856047D+03 DE=-1.43D-02 F=  3.50D-01
     An  expanding polynomial of degree  4 produced  0.8689
     Minimum is close to point  3 DX=  6.89D-02 DF= -1.01D-03 DXR=  7.93D-02 DFR=  6.32D-03 which will be used.
 Iteration   3 EE= -2375.75658025362     Delta-E=       -0.159051132578 Grad=2.274D-01 Max rot=    0.3150 deg.
 Gradient too large for Newton-Raphson -- use scaled steepest descent instead.
 Alpha Gap=     0.432 HL deriv= 1.18D-03
     ILin= 1 X=0.000D+00 Y=-2.375756580254D+03 DE= 0.00D+00 F= -4.56D-02
 RMSU=  7.84D-04    CP:  4.98D-01  2.29D+00  3.00D+00  8.64D-01  3.00D+00
                    CP:  2.09D+00  1.95D+00 -4.11D-03
     ILin= 2 X=7.000D-01 Y=-2.375774150624D+03 DE=-1.76D-02 F= -4.60D-03 OKLS=T
     Reject lnstep IMin12=  1  2 Big=T Turn=F Min= 1.334D+00 FVal=-2.375777267024D+03 Lims=  0.00D+00  7.00D-01
 RMSU=  8.20D-05    CP:  4.77D-01  2.31D+00  3.00D+00  1.15D+00  3.00D+00
                    CP:  2.26D+00  3.00D+00 -7.46D-03  1.96D+00
     ILin= 3 X=1.400D+00 Y=-2.375763016402D+03 DE=-6.44D-03 F=  3.64D-02
     An  expanding polynomial of degree  3 produced  0.7785
 RMSU=  3.56D-09    CP:  4.96D-01  2.30D+00  3.00D+00  8.95D-01  3.00D+00
                    CP:  2.11D+00  2.06D+00 -4.52D-03  1.11D+00  6.23D-02
 Iteration   4 EE= -2375.77433124563     Delta-E=       -0.017750992009 Grad=8.368D-02 Max rot=    0.2121 deg.
 Gradient too large for Newton-Raphson -- use scaled steepest descent instead.
 Alpha Gap=     0.438 HL deriv= 1.72D-03
     ILin= 1 X=0.000D+00 Y=-2.375774331246D+03 DE= 0.00D+00 F= -8.32D-03
 RMSU=  3.02D-04    CP:  4.85D-01  2.27D+00  3.00D+00  9.32D-01  3.00D+00
                    CP:  2.26D+00  2.42D+00 -3.43D-03  1.38D+00  1.40D+00
                    CP:  3.00D+00
     ILin= 2 X=8.000D-01 Y=-2.375777359196D+03 DE=-3.03D-03 F=  7.45D-04 OKLS=T
     Accept linear search using points  1 and  2.
     An  expanding polynomial of degree  2 produced  0.6893
 RMSU=  9.16D-07    CP:  4.86D-01  2.27D+00  3.00D+00  9.27D-01  3.00D+00
                    CP:  2.24D+00  2.37D+00 -3.59D-03  1.34D+00  1.21D+00
                    CP:  3.00D+00  8.62D-01
 Iteration   5 EE= -2375.77737231440     Delta-E=       -0.003041068772 Grad=3.296D-02 Max rot=    0.0954 deg.
 Gradient too large for Newton-Raphson -- use scaled steepest descent instead.
 Alpha Gap=     0.436 HL deriv= 5.11D-05
     ILin= 1 X=0.000D+00 Y=-2.375777372314D+03 DE= 0.00D+00 F= -1.53D-03
 RMSU=  6.15D-05    CP:  4.82D-01  2.26D+00  3.00D+00  9.44D-01  3.00D+00
                    CP:  2.26D+00  2.55D+00 -3.67D-03  1.57D+00  1.59D+00
                    CP:  3.00D+00  1.06D+00  3.00D+00
     ILin= 2 X=7.000D-01 Y=-2.375778016773D+03 DE=-6.44D-04 F= -3.15D-04 OKLS=T
     Reject lnstep IMin12=  1  2 Big=T Turn=F Min= 1.249D+00 FVal=-2.375778208831D+03 Lims=  0.00D+00  7.00D-01
 RMSU=  1.96D-06    CP:  4.78D-01  2.24D+00  3.00D+00  9.65D-01  3.00D+00
                    CP:  2.28D+00  2.74D+00 -3.74D-03  1.82D+00  2.06D+00
                    CP:  3.00D+00  1.29D+00  3.00D+00  2.13D+00
     ILin= 3 X=1.500D+00 Y=-2.375777714853D+03 DE=-3.43D-04 F=  1.07D-03
     An  expanding polynomial of degree  3 produced  0.8819
 RMSU=  1.95D-07    CP:  4.81D-01  2.26D+00  3.00D+00  9.49D-01  3.00D+00
                    CP:  2.26D+00  2.59D+00 -3.69D-03  1.63D+00  1.69D+00
                    CP:  3.00D+00  1.11D+00  3.00D+00  1.26D+00  1.42D-01
 Iteration   6 EE= -2375.77804544425     Delta-E=       -0.000673129845 Grad=1.645D-02 Max rot=    0.0750 deg.
 Gradient too large for Newton-Raphson -- use scaled steepest descent instead.
 Alpha Gap=     0.439 HL deriv= 9.38D-04
     ILin= 1 X=0.000D+00 Y=-2.375778045444D+03 DE= 0.00D+00 F= -5.01D-04
 RMSU=  2.93D-05    CP:  4.79D-01  2.24D+00  3.00D+00  9.40D-01  3.00D+00
                    CP:  2.28D+00  2.64D+00 -3.44D-03  1.69D+00  2.00D+00
                    CP:  3.00D+00  1.39D+00  3.00D+00  1.47D+00  1.08D+00
                    CP:  7.27D-01
     ILin= 2 X=8.000D-01 Y=-2.375778196514D+03 DE=-1.51D-04 F=  1.24D-04 OKLS=T
     Accept linear search using points  1 and  2.
     An  expanding polynomial of degree  2 produced  0.5865
 RMSU=  3.98D-08    CP:  4.80D-01  2.25D+00  3.00D+00  9.43D-01  3.00D+00
                    CP:  2.27D+00  2.62D+00 -3.51D-03  1.67D+00  1.91D+00
                    CP:  3.00D+00  1.32D+00  3.00D+00  1.42D+00  8.24D-01
                    CP:  1.18D+00  7.34D-01
 Iteration   7 EE= -2375.77820511702     Delta-E=       -0.000159672772 Grad=6.707D-03 Max rot=    0.0297 deg.
 SCF Done:  E(RHF) =  -2375.77820512     a.u. after    7 cycles
            Convg  =    0.6707D-02                    18 Fock formations.
              S**2 =  0.0000                  -V/T =  2.0002
 Leave Link  508 at Mon Nov  1 22:38:22 2021, MaxMem=  7864320000 cpu:          500778.1 elap:           15805.7
 (Enter /apps/gaussian/g16-c01-avx/g16/l502.exe)
 Integral symmetry usage will be decided dynamically.
 Closed shell SCF:
 Using DIIS extrapolation, IDIIS=  1040.
 NGot=  7864320000 LenX=  7854809146 LenY=  7850098076
 Requested convergence on RMS density matrix=1.00D-08 within 128 cycles.
 Requested convergence on MAX density matrix=1.00D-06.
 Requested convergence on             energy=1.00D-06.
 No special actions if energy rises.
 Fock matrices will be formed incrementally for  20 cycles.

 Cycle   1  Pass 1  IDiag  1:
 FoFJK:  IHMeth= 1 ICntrl=       0 DoSepK=F KAlg= 0 I1Cent=           0 FoldK=F
 IRaf= 930000000 NMat=       1 IRICut=       1 DoRegI=T DoRafI=F ISym2E= 0 IDoP0=0 IntGTp=1.
 FoFCou: FMM=T IPFlag=           0 FMFlag=      100000 FMFlg1=        2001
         NFxFlg=           0 DoJE=F BraDBF=F KetDBF=F FulRan=T
         wScrn=  0.000000 ICntrl=         0 IOpCl=  0 I1Cent=           0 NGrid=           0
         NMat0=    1 NMatS0=      1 NMatT0=    0 NMatD0=    1 NMtDS0=    0 NMtDT0=    0
 Symmetry not used in FoFCou.
 FMM levels:  10  Number of levels for PrismC:   9
 E= -2375.77820509182    
 DIIS: error= 5.30D-05 at cycle   1 NSaved=   1.
 NSaved= 1 IEnMin= 1 EnMin= -2375.77820509182     IErMin= 1 ErrMin= 5.30D-05
 ErrMax= 5.30D-05  0.00D+00 EMaxC= 1.00D-01 BMatC= 2.25D-05 BMatP= 2.25D-05
 IDIUse=1 WtCom= 1.00D+00 WtEn= 0.00D+00
 Coeff-Com:  0.100D+01
 Coeff:      0.100D+01
 Gap=     0.438 Goal=   None    Shift=    0.000
 RMSDP=1.15D-04 MaxDP=1.93D-02              OVMax= 1.98D-03

 Cycle   2  Pass 1  IDiag  1:
 RMSU=  9.00D-05    CP:  9.98D-01
 E= -2375.77825993998     Delta-E=       -0.000054848160 Rises=F Damp=F
 DIIS: error= 2.80D-05 at cycle   2 NSaved=   2.
 NSaved= 2 IEnMin= 2 EnMin= -2375.77825993998     IErMin= 2 ErrMin= 2.80D-05
 ErrMax= 2.80D-05  0.00D+00 EMaxC= 1.00D-01 BMatC= 5.11D-06 BMatP= 2.25D-05
 IDIUse=1 WtCom= 1.00D+00 WtEn= 0.00D+00
 Coeff-Com:  0.127D+00 0.873D+00
 Coeff:      0.127D+00 0.873D+00
 Gap=     0.343 Goal=   None    Shift=    0.000
 RMSDP=3.57D-05 MaxDP=5.76D-03 DE=-5.48D-05 OVMax= 7.50D-04

 Cycle   3  Pass 1  IDiag  1:
 RMSU=  1.72D-05    CP:  9.97D-01  1.21D+00
 E= -2375.77826950293     Delta-E=       -0.000009562944 Rises=F Damp=F
 DIIS: error= 1.26D-05 at cycle   3 NSaved=   3.
 NSaved= 3 IEnMin= 3 EnMin= -2375.77826950293     IErMin= 3 ErrMin= 1.26D-05
 ErrMax= 1.26D-05  0.00D+00 EMaxC= 1.00D-01 BMatC= 1.78D-06 BMatP= 5.11D-06
 IDIUse=1 WtCom= 1.00D+00 WtEn= 0.00D+00
 Coeff-Com: -0.225D+00 0.273D+00 0.951D+00
 Coeff:     -0.225D+00 0.273D+00 0.951D+00
 Gap=     0.343 Goal=   None    Shift=    0.000
 RMSDP=1.47D-05 MaxDP=2.02D-03 DE=-9.56D-06 OVMax= 6.56D-04

 Cycle   4  Pass 1  IDiag  1:
 RMSU=  8.06D-06    CP:  9.97D-01  1.32D+00  1.16D+00
 E= -2375.77827349422     Delta-E=       -0.000003991288 Rises=F Damp=F
 DIIS: error= 6.20D-06 at cycle   4 NSaved=   4.
 NSaved= 4 IEnMin= 4 EnMin= -2375.77827349422     IErMin= 4 ErrMin= 6.20D-06
 ErrMax= 6.20D-06  0.00D+00 EMaxC= 1.00D-01 BMatC= 1.04D-07 BMatP= 1.78D-06
 IDIUse=1 WtCom= 1.00D+00 WtEn= 0.00D+00
 Coeff-Com:  0.761D-01-0.148D+00-0.364D+00 0.144D+01
 Coeff:      0.761D-01-0.148D+00-0.364D+00 0.144D+01
 Gap=     0.343 Goal=   None    Shift=    0.000
 RMSDP=4.55D-06 MaxDP=6.71D-04 DE=-3.99D-06 OVMax= 3.82D-04

 Cycle   5  Pass 1  IDiag  1:
 RMSU=  2.93D-06    CP:  9.97D-01  1.32D+00  1.24D+00  1.35D+00
 E= -2375.77827414745     Delta-E=       -0.000000653235 Rises=F Damp=F
 DIIS: error= 2.81D-06 at cycle   5 NSaved=   5.
 NSaved= 5 IEnMin= 5 EnMin= -2375.77827414745     IErMin= 5 ErrMin= 2.81D-06
 ErrMax= 2.81D-06  0.00D+00 EMaxC= 1.00D-01 BMatC= 3.31D-08 BMatP= 1.04D-07
 IDIUse=1 WtCom= 1.00D+00 WtEn= 0.00D+00
 Coeff-Com:  0.524D-01-0.680D-01-0.241D+00 0.266D+00 0.991D+00
 Coeff:      0.524D-01-0.680D-01-0.241D+00 0.266D+00 0.991D+00
 Gap=     0.343 Goal=   None    Shift=    0.000
 RMSDP=2.63D-06 MaxDP=2.79D-04 DE=-6.53D-07 OVMax= 1.74D-04

 Cycle   6  Pass 1  IDiag  1:
 RMSU=  1.43D-06    CP:  9.97D-01  1.31D+00  1.21D+00  1.49D+00  1.40D+00
 E= -2375.77827430579     Delta-E=       -0.000000158336 Rises=F Damp=F
 DIIS: error= 1.73D-06 at cycle   6 NSaved=   6.
 NSaved= 6 IEnMin= 6 EnMin= -2375.77827430579     IErMin= 6 ErrMin= 1.73D-06
 ErrMax= 1.73D-06  0.00D+00 EMaxC= 1.00D-01 BMatC= 7.51D-09 BMatP= 3.31D-08
 IDIUse=1 WtCom= 1.00D+00 WtEn= 0.00D+00
 Coeff-Com: -0.269D-01 0.581D-01 0.121D+00-0.506D+00-0.116D+00 0.147D+01
 Coeff:     -0.269D-01 0.581D-01 0.121D+00-0.506D+00-0.116D+00 0.147D+01
 Gap=     0.343 Goal=   None    Shift=    0.000
 RMSDP=2.13D-06 MaxDP=2.34D-04 DE=-1.58D-07 OVMax= 1.65D-04

 Cycle   7  Pass 1  IDiag  1:
 RMSU=  6.98D-07    CP:  9.97D-01  1.30D+00  1.17D+00  1.57D+00  1.80D+00
                    CP:  1.64D+00
 E= -2375.77827436184     Delta-E=       -0.000000056052 Rises=F Damp=F
 DIIS: error= 3.46D-07 at cycle   7 NSaved=   7.
 NSaved= 7 IEnMin= 7 EnMin= -2375.77827436184     IErMin= 7 ErrMin= 3.46D-07
 ErrMax= 3.46D-07  0.00D+00 EMaxC= 1.00D-01 BMatC= 8.25D-10 BMatP= 7.51D-09
 IDIUse=1 WtCom= 1.00D+00 WtEn= 0.00D+00
 Coeff-Com: -0.101D-01 0.190D-01 0.426D-01-0.116D+00-0.133D+00 0.317D+00
 Coeff-Com:  0.880D+00
 Coeff:     -0.101D-01 0.190D-01 0.426D-01-0.116D+00-0.133D+00 0.317D+00
 Coeff:      0.880D+00
 Gap=     0.343 Goal=   None    Shift=    0.000
 RMSDP=3.22D-07 MaxDP=2.89D-05 DE=-5.61D-08 OVMax= 2.70D-05

 Cycle   8  Pass 1  IDiag  1:
 RMSU=  2.04D-07    CP:  9.97D-01  1.30D+00  1.17D+00  1.58D+00  1.81D+00
                    CP:  1.76D+00  1.16D+00
 E= -2375.77827436441     Delta-E=       -0.000000002567 Rises=F Damp=F
 DIIS: error= 9.84D-08 at cycle   8 NSaved=   8.
 NSaved= 8 IEnMin= 8 EnMin= -2375.77827436441     IErMin= 8 ErrMin= 9.84D-08
 ErrMax= 9.84D-08  0.00D+00 EMaxC= 1.00D-01 BMatC= 1.99D-10 BMatP= 8.25D-10
 IDIUse=1 WtCom= 1.00D+00 WtEn= 0.00D+00
 Coeff-Com:  0.509D-02-0.102D-01-0.264D-01 0.108D+00-0.707D-03-0.301D+00
 Coeff-Com:  0.148D+00 0.108D+01
 Coeff:      0.509D-02-0.102D-01-0.264D-01 0.108D+00-0.707D-03-0.301D+00
 Coeff:      0.148D+00 0.108D+01
 Gap=     0.343 Goal=   None    Shift=    0.000
 RMSDP=2.52D-07 MaxDP=3.54D-05 DE=-2.57D-09 OVMax= 1.36D-05

 Cycle   9  Pass 1  IDiag  1:
 RMSU=  9.69D-08    CP:  9.97D-01  1.30D+00  1.17D+00  1.60D+00  1.81D+00
                    CP:  1.83D+00  1.35D+00  1.23D+00
 E= -2375.77827436494     Delta-E=       -0.000000000537 Rises=F Damp=F
 DIIS: error= 4.41D-08 at cycle   9 NSaved=   9.
 NSaved= 9 IEnMin= 9 EnMin= -2375.77827436494     IErMin= 9 ErrMin= 4.41D-08
 ErrMax= 4.41D-08  0.00D+00 EMaxC= 1.00D-01 BMatC= 2.37D-11 BMatP= 1.99D-10
 IDIUse=1 WtCom= 1.00D+00 WtEn= 0.00D+00
 Coeff-Com:  0.553D-03-0.400D-03-0.335D-02 0.258D-02 0.113D-01-0.386D-02
 Coeff-Com: -0.905D-01-0.149D+00 0.123D+01
 Coeff:      0.553D-03-0.400D-03-0.335D-02 0.258D-02 0.113D-01-0.386D-02
 Coeff:     -0.905D-01-0.149D+00 0.123D+01
 Gap=     0.343 Goal=   None    Shift=    0.000
 RMSDP=8.44D-08 MaxDP=5.67D-06 DE=-5.37D-10 OVMax= 4.36D-06

 Cycle  10  Pass 1  IDiag  1:
 RMSU=  5.29D-08    CP:  9.97D-01  1.30D+00  1.17D+00  1.60D+00  1.81D+00
                    CP:  1.84D+00  1.39D+00  1.34D+00  1.42D+00
 E= -2375.77827436598     Delta-E=       -0.000000001039 Rises=F Damp=F
 DIIS: error= 2.56D-08 at cycle  10 NSaved=  10.
 NSaved=10 IEnMin=10 EnMin= -2375.77827436598     IErMin=10 ErrMin= 2.56D-08
 ErrMax= 2.56D-08  0.00D+00 EMaxC= 1.00D-01 BMatC= 5.35D-12 BMatP= 2.37D-11
 IDIUse=1 WtCom= 1.00D+00 WtEn= 0.00D+00
 Coeff-Com: -0.115D-02 0.261D-02 0.552D-02-0.245D-01 0.142D-02 0.724D-01
 Coeff-Com: -0.354D-01-0.283D+00 0.962D-01 0.117D+01
 Coeff:     -0.115D-02 0.261D-02 0.552D-02-0.245D-01 0.142D-02 0.724D-01
 Coeff:     -0.354D-01-0.283D+00 0.962D-01 0.117D+01
 Gap=     0.343 Goal=   None    Shift=    0.000
 RMSDP=8.83D-08 MaxDP=6.09D-06 DE=-1.04D-09 OVMax= 2.32D-06

 Cycle  11  Pass 1  IDiag  1:
 RMSU=  4.45D-08    CP:  9.97D-01  1.30D+00  1.17D+00  1.60D+00  1.81D+00
                    CP:  1.86D+00  1.42D+00  1.37D+00  1.83D+00  1.93D+00
 E= -2375.77827436483     Delta-E=        0.000000001155 Rises=F Damp=F
 DIIS: error= 1.11D-08 at cycle  11 NSaved=  11.
 NSaved=11 IEnMin=10 EnMin= -2375.77827436598     IErMin=11 ErrMin= 1.11D-08
 ErrMax= 1.11D-08  0.00D+00 EMaxC= 1.00D-01 BMatC= 7.03D-13 BMatP= 5.35D-12
 IDIUse=1 WtCom= 1.00D+00 WtEn= 0.00D+00
 Coeff-Com: -0.159D-03 0.250D-03 0.834D-03-0.196D-02-0.189D-02 0.476D-02
 Coeff-Com:  0.153D-01 0.396D-02-0.194D+00 0.101D+00 0.107D+01
 Coeff:     -0.159D-03 0.250D-03 0.834D-03-0.196D-02-0.189D-02 0.476D-02
 Coeff:      0.153D-01 0.396D-02-0.194D+00 0.101D+00 0.107D+01
 Gap=     0.343 Goal=   None    Shift=    0.000
 RMSDP=1.11D-07 MaxDP=6.80D-06 DE= 1.16D-09 OVMax= 8.69D-07

 Cycle  12  Pass 1  IDiag  1:
 RMSU=  2.74D-08    CP:  9.97D-01  1.30D+00  1.17D+00  1.60D+00  1.80D+00
                    CP:  1.88D+00  1.46D+00  1.36D+00  2.22D+00  3.00D+00
                    CP:  2.40D+00
 E= -2375.77827436413     Delta-E=        0.000000000691 Rises=F Damp=F
 DIIS: error= 1.27D-08 at cycle  12 NSaved=  12.
 NSaved=12 IEnMin=10 EnMin= -2375.77827436598     IErMin=11 ErrMin= 1.11D-08
 ErrMax= 1.27D-08  0.00D+00 EMaxC= 1.00D-01 BMatC= 1.96D-13 BMatP= 7.03D-13
 IDIUse=1 WtCom= 1.00D+00 WtEn= 0.00D+00
 Coeff-Com:  0.155D-03-0.387D-03-0.707D-03 0.360D-02-0.741D-03-0.108D-01
 Coeff-Com:  0.988D-02 0.460D-01-0.621D-01-0.161D+00 0.201D+00 0.975D+00
 Coeff:      0.155D-03-0.387D-03-0.707D-03 0.360D-02-0.741D-03-0.108D-01
 Coeff:      0.988D-02 0.460D-01-0.621D-01-0.161D+00 0.201D+00 0.975D+00
 Gap=     0.343 Goal=   None    Shift=    0.000
 RMSDP=1.63D-07 MaxDP=1.04D-05 DE= 6.91D-10 OVMax= 3.55D-07

 Cycle  13  Pass 1  IDiag  1:
 RMSU=  1.09D-07    CP:  9.97D-01  1.30D+00  1.16D+00  1.60D+00  1.80D+00
                    CP:  1.91D+00  1.52D+00  1.36D+00  2.75D+00  3.00D+00
                    CP:  3.00D+00  3.00D+00
 E= -2375.77827436398     Delta-E=        0.000000000155 Rises=F Damp=F
 DIIS: error= 1.45D-08 at cycle  13 NSaved=  13.
 NSaved=13 IEnMin=10 EnMin= -2375.77827436598     IErMin=11 ErrMin= 1.11D-08
 ErrMax= 1.45D-08  0.00D+00 EMaxC= 1.00D-01 BMatC= 1.11D-13 BMatP= 1.96D-13
 IDIUse=1 WtCom= 1.00D+00 WtEn= 0.00D+00
 Coeff-Com:  0.457D-04-0.117D-03-0.198D-03 0.102D-02-0.192D-03-0.291D-02
 Coeff-Com:  0.239D-02 0.114D-01-0.983D-02-0.392D-01-0.149D-02 0.227D+00
 Coeff-Com:  0.812D+00
 Coeff:      0.457D-04-0.117D-03-0.198D-03 0.102D-02-0.192D-03-0.291D-02
 Coeff:      0.239D-02 0.114D-01-0.983D-02-0.392D-01-0.149D-02 0.227D+00
 Coeff:      0.812D+00
 Gap=     0.343 Goal=   None    Shift=    0.000
 RMSDP=1.51D-07 MaxDP=1.01D-05 DE= 1.55D-10 OVMax= 9.68D-08

 Cycle  14  Pass 1  IDiag  1:
 RMSU=  6.06D-08    CP:  9.97D-01  1.30D+00  1.16D+00  1.60D+00  1.79D+00
                    CP:  1.94D+00  1.57D+00  1.36D+00  3.00D+00  3.00D+00
                    CP:  3.00D+00  3.00D+00  2.10D+00
 E= -2375.77827436372     Delta-E=        0.000000000260 Rises=F Damp=F
 DIIS: error= 1.29D-08 at cycle  14 NSaved=  14.
 NSaved=14 IEnMin=10 EnMin= -2375.77827436598     IErMin=11 ErrMin= 1.11D-08
 ErrMax= 1.29D-08  0.00D+00 EMaxC= 1.00D-01 BMatC= 9.43D-14 BMatP= 1.11D-13
 IDIUse=1 WtCom= 1.00D+00 WtEn= 0.00D+00
 Coeff-Com: -0.199D-04 0.299D-04 0.111D-03-0.274D-03-0.226D-03 0.752D-03
 Coeff-Com:  0.143D-02-0.981D-03-0.187D-01 0.166D-01 0.897D-01-0.701D-01
 Coeff-Com: -0.426D+00 0.141D+01
 Coeff:     -0.199D-04 0.299D-04 0.111D-03-0.274D-03-0.226D-03 0.752D-03
 Coeff:      0.143D-02-0.981D-03-0.187D-01 0.166D-01 0.897D-01-0.701D-01
 Coeff:     -0.426D+00 0.141D+01
 Gap=     0.343 Goal=   None    Shift=    0.000
 RMSDP=2.07D-07 MaxDP=1.22D-05 DE= 2.60D-10 OVMax= 6.61D-08

 Cycle  15  Pass 1  IDiag  1:
 RMSU=  8.26D-08    CP:  9.97D-01  1.30D+00  1.16D+00  1.60D+00  1.79D+00
                    CP:  1.98D+00  1.64D+00  1.36D+00  3.00D+00  3.00D+00
                    CP:  3.00D+00  3.00D+00  3.00D+00  2.48D+00
 E= -2375.77827436387     Delta-E=       -0.000000000153 Rises=F Damp=F
 DIIS: error= 1.25D-08 at cycle  15 NSaved=  15.
 NSaved=15 IEnMin=10 EnMin= -2375.77827436598     IErMin=11 ErrMin= 1.11D-08
 ErrMax= 1.25D-08  0.00D+00 EMaxC= 1.00D-01 BMatC= 8.98D-14 BMatP= 9.43D-14
 IDIUse=1 WtCom= 1.00D+00 WtEn= 0.00D+00
 Coeff-Com: -0.421D-06-0.154D-04 0.104D-04 0.195D-03-0.301D-03-0.766D-03
 Coeff-Com:  0.279D-02 0.595D-02-0.292D-01-0.938D-02 0.141D+00 0.899D-01
 Coeff-Com: -0.682D+00 0.100D+00 0.138D+01
 Coeff:     -0.421D-06-0.154D-04 0.104D-04 0.195D-03-0.301D-03-0.766D-03
 Coeff:      0.279D-02 0.595D-02-0.292D-01-0.938D-02 0.141D+00 0.899D-01
 Coeff:     -0.682D+00 0.100D+00 0.138D+01
 Gap=     0.343 Goal=   None    Shift=    0.000
 RMSDP=2.79D-07 MaxDP=1.76D-05 DE=-1.53D-10 OVMax= 5.09D-08

 Cycle  16  Pass 1  IDiag  1:
 RMSU=  1.40D-07    CP:  9.97D-01  1.30D+00  1.16D+00  1.60D+00  1.78D+00
                    CP:  2.02D+00  1.73D+00  1.36D+00  3.00D+00  3.00D+00
                    CP:  3.00D+00  3.00D+00  3.00D+00  3.00D+00  3.00D+00
 E= -2375.77827436313     Delta-E=        0.000000000739 Rises=F Damp=F
 DIIS: error= 1.07D-08 at cycle  16 NSaved=  16.
 NSaved=16 IEnMin=10 EnMin= -2375.77827436598     IErMin=16 ErrMin= 1.07D-08
 ErrMax= 1.07D-08  0.00D+00 EMaxC= 1.00D-01 BMatC= 7.56D-14 BMatP= 8.98D-14
 IDIUse=1 WtCom= 1.00D+00 WtEn= 0.00D+00
 Large coefficients: NSaved= 16 BigCof=    0.00 CofMax=   10.00 Det=-1.49D-15
 Inversion failed.  Reducing to 15 matrices.
 Coeff-Com: -0.879D-05 0.371D-05 0.117D-03-0.154D-03-0.422D-03 0.155D-02
 Coeff-Com:  0.323D-02-0.154D-01-0.451D-02 0.746D-01 0.293D-01-0.232D+00
 Coeff-Com:  0.423D+00-0.919D+00 0.164D+01
 Coeff:     -0.879D-05 0.371D-05 0.117D-03-0.154D-03-0.422D-03 0.155D-02
 Coeff:      0.323D-02-0.154D-01-0.451D-02 0.746D-01 0.293D-01-0.232D+00
 Coeff:      0.423D+00-0.919D+00 0.164D+01
 Gap=     0.343 Goal=   None    Shift=    0.000
 RMSDP=2.73D-07 MaxDP=1.70D-05 DE= 7.39D-10 OVMax= 4.24D-08

 Cycle  17  Pass 1  IDiag  1:
 RMSU=  1.54D-07    CP:  9.97D-01  1.30D+00  1.16D+00  1.59D+00  1.77D+00
                    CP:  2.07D+00  1.83D+00  1.35D+00  3.00D+00  3.00D+00
                    CP:  3.00D+00  3.00D+00  3.00D+00  3.00D+00  3.00D+00
                    CP:  2.40D+00
 E= -2375.77827436305     Delta-E=        0.000000000085 Rises=F Damp=F
 DIIS: error= 7.48D-09 at cycle  17 NSaved=  16.
 NSaved=16 IEnMin= 9 EnMin= -2375.77827436598     IErMin=16 ErrMin= 7.48D-09
 ErrMax= 7.48D-09  0.00D+00 EMaxC= 1.00D-01 BMatC= 3.37D-14 BMatP= 7.56D-14
 IDIUse=1 WtCom= 1.00D+00 WtEn= 0.00D+00
 Large coefficients: NSaved= 16 BigCof=    0.00 CofMax=   10.00 Det=-1.48D-15
 Inversion failed.  Reducing to 15 matrices.
 Coeff-Com:  0.604D-05 0.839D-06-0.585D-04-0.733D-04 0.528D-03 0.105D-02
 Coeff-Com: -0.562D-02-0.444D-02 0.204D-01 0.752D-02-0.144D+00 0.301D+00
 Coeff-Com: -0.383D+00-0.476D+00 0.168D+01
 Coeff:      0.604D-05 0.839D-06-0.585D-04-0.733D-04 0.528D-03 0.105D-02
 Coeff:     -0.562D-02-0.444D-02 0.204D-01 0.752D-02-0.144D+00 0.301D+00
 Coeff:     -0.383D+00-0.476D+00 0.168D+01
 Gap=     0.343 Goal=   None    Shift=    0.000
 RMSDP=2.91D-07 MaxDP=1.84D-05 DE= 8.55D-11 OVMax= 5.75D-08

 Cycle  18  Pass 1  IDiag  1:
 RMSU=  1.07D-07    CP:  9.97D-01  1.30D+00  1.16D+00  1.59D+00  1.75D+00
                    CP:  2.13D+00  1.94D+00  1.31D+00  3.00D+00  3.00D+00
                    CP:  3.00D+00  3.00D+00  3.00D+00  3.00D+00  3.00D+00
                    CP:  3.00D+00  2.19D+00
 E= -2375.77827436251     Delta-E=        0.000000000540 Rises=F Damp=F
 DIIS: error= 4.43D-09 at cycle  18 NSaved=  16.
 NSaved=16 IEnMin= 8 EnMin= -2375.77827436598     IErMin=16 ErrMin= 4.43D-09
 ErrMax= 4.43D-09  0.00D+00 EMaxC= 1.00D-01 BMatC= 1.14D-14 BMatP= 3.37D-14
 IDIUse=1 WtCom= 1.00D+00 WtEn= 0.00D+00
 Large coefficients: NSaved= 16 BigCof=    0.00 CofMax=   10.00 Det=-1.45D-15
 Inversion failed.  Reducing to 15 matrices.
 Coeff-Com: -0.432D-05 0.108D-04 0.211D-04-0.996D-04-0.222D-03 0.185D-02
 Coeff-Com: -0.417D-03-0.968D-02 0.150D-01 0.118D+00-0.234D+00 0.253D+00
 Coeff-Com: -0.480D+00-0.121D+00 0.146D+01
 Coeff:     -0.432D-05 0.108D-04 0.211D-04-0.996D-04-0.222D-03 0.185D-02
 Coeff:     -0.417D-03-0.968D-02 0.150D-01 0.118D+00-0.234D+00 0.253D+00
 Coeff:     -0.480D+00-0.121D+00 0.146D+01
 Gap=     0.343 Goal=   None    Shift=    0.000
 RMSDP=2.16D-07 MaxDP=1.51D-05 DE= 5.40D-10 OVMax= 3.54D-08

 Cycle  19  Pass 1  IDiag  1:
 RMSU=  5.06D-08    CP:  9.97D-01  1.30D+00  1.15D+00  1.59D+00  1.74D+00
                    CP:  2.17D+00  2.02D+00  1.29D+00  3.00D+00  3.00D+00
                    CP:  3.00D+00  3.00D+00  3.00D+00  3.00D+00  3.00D+00
                    CP:  3.00D+00  3.00D+00  2.22D+00
 E= -2375.77827436248     Delta-E=        0.000000000033 Rises=F Damp=F
 DIIS: error= 3.13D-09 at cycle  19 NSaved=  16.
 NSaved=16 IEnMin= 7 EnMin= -2375.77827436598     IErMin=16 ErrMin= 3.13D-09
 ErrMax= 3.13D-09  0.00D+00 EMaxC= 1.00D-01 BMatC= 7.05D-15 BMatP= 1.14D-14
 IDIUse=1 WtCom= 1.00D+00 WtEn= 0.00D+00
 Large coefficients: NSaved= 16 BigCof=    0.00 CofMax=   10.00 Det=-1.30D-15
 Inversion failed.  Reducing to 15 matrices.
 Coeff-Com:  0.893D-05 0.337D-04-0.107D-03-0.399D-03 0.124D-02 0.272D-02
 Coeff-Com: -0.394D-02-0.929D-02 0.652D-01 0.981D-01-0.175D+00-0.168D+00
 Coeff-Com: -0.214D+00 0.534D+00 0.868D+00
 Coeff:      0.893D-05 0.337D-04-0.107D-03-0.399D-03 0.124D-02 0.272D-02
 Coeff:     -0.394D-02-0.929D-02 0.652D-01 0.981D-01-0.175D+00-0.168D+00
 Coeff:     -0.214D+00 0.534D+00 0.868D+00
 Gap=     0.343 Goal=   None    Shift=    0.000
 RMSDP=1.27D-07 MaxDP=8.44D-06 DE= 3.27D-11 OVMax= 2.01D-08

 Cycle  20  Pass 1  IDiag  1:
 RMSU=  7.45D-08    CP:  9.97D-01  1.30D+00  1.15D+00  1.59D+00  1.74D+00
                    CP:  2.20D+00  2.06D+00  1.28D+00  3.00D+00  3.00D+00
                    CP:  3.00D+00  3.00D+00  3.00D+00  3.00D+00  3.00D+00
                    CP:  3.00D+00  3.00D+00  2.89D+00  1.89D+00
 E= -2375.77827436142     Delta-E=        0.000000001057 Rises=F Damp=F
 DIIS: error= 3.85D-09 at cycle  20 NSaved=  16.
 NSaved=16 IEnMin= 6 EnMin= -2375.77827436598     IErMin=15 ErrMin= 3.13D-09
 ErrMax= 3.85D-09  0.00D+00 EMaxC= 1.00D-01 BMatC= 1.04D-14 BMatP= 7.05D-15
 IDIUse=1 WtCom= 1.00D+00 WtEn= 0.00D+00
 Large coefficients: NSaved= 16 BigCof=    0.00 CofMax=   10.00 Det=-1.14D-15
 Inversion failed.  Reducing to 15 matrices.
 Coeff-Com:  0.384D-04-0.693D-04-0.309D-03 0.109D-02 0.219D-02-0.346D-02
 Coeff-Com: -0.620D-02 0.623D-01 0.510D-01-0.143D+00-0.125D+00-0.246D+00
 Coeff-Com:  0.598D+00 0.113D+01-0.318D+00
 Coeff:      0.384D-04-0.693D-04-0.309D-03 0.109D-02 0.219D-02-0.346D-02
 Coeff:     -0.620D-02 0.623D-01 0.510D-01-0.143D+00-0.125D+00-0.246D+00
 Coeff:      0.598D+00 0.113D+01-0.318D+00
 Gap=     0.343 Goal=   None    Shift=    0.000
 RMSDP=4.80D-08 MaxDP=3.24D-06 DE= 1.06D-09 OVMax= 7.58D-09

 Cycle  21  Pass 1  IDiag  1:
 Restarting incremental Fock formation.
 E= -2375.77827436767     Delta-E=       -0.000000006248 Rises=F Damp=F
 DIIS: error= 1.25D-07 at cycle  21 NSaved=  16.
 NSaved=16 IEnMin=16 EnMin= -2375.77827436767     IErMin=14 ErrMin= 3.13D-09
 ErrMax= 1.25D-07  0.00D+00 EMaxC= 1.00D-01 BMatC= 1.08D-11 BMatP= 7.05D-15
 IDIUse=1 WtCom= 1.00D+00 WtEn= 0.00D+00
 Large coefficients: NSaved= 16 BigCof=    0.00 CofMax=   10.00 Det=-9.04D-16
 Inversion failed.  Reducing to 15 matrices.
 Coeff-Com: -0.630D-04-0.122D-03 0.150D-02 0.131D-03-0.142D-01-0.457D-01
 Coeff-Com: -0.654D-01 0.181D+00 0.124D+00 0.186D+00 0.613D-01 0.238D+00
 Coeff-Com:  0.316D+00-0.297D-01 0.471D-01
 Coeff:     -0.630D-04-0.122D-03 0.150D-02 0.131D-03-0.142D-01-0.457D-01
 Coeff:     -0.654D-01 0.181D+00 0.124D+00 0.186D+00 0.613D-01 0.238D+00
 Coeff:      0.316D+00-0.297D-01 0.471D-01
 Gap=     0.343 Goal=   None    Shift=    0.000
 RMSDP=4.77D-07 MaxDP=3.24D-05 DE=-6.25D-09 OVMax= 7.63D-08

 Cycle  22  Pass 1  IDiag  1:
 RMSU=  4.75D-07    CP:  1.00D+00
 E= -2375.77827436846     Delta-E=       -0.000000000791 Rises=F Damp=F
 DIIS: error= 1.08D-07 at cycle  22 NSaved=  16.
 NSaved=16 IEnMin=16 EnMin= -2375.77827436846     IErMin=13 ErrMin= 3.13D-09
 ErrMax= 1.08D-07  0.00D+00 EMaxC= 1.00D-01 BMatC= 8.18D-12 BMatP= 7.05D-15
 IDIUse=1 WtCom= 1.00D+00 WtEn= 0.00D+00
 Large coefficients: NSaved= 16 BigCof=    0.00 CofMax=   10.00 Det=-9.03D-16
 Inversion failed.  Reducing to 15 matrices.
 Coeff-Com: -0.514D-04-0.110D-03 0.109D-02 0.281D-03-0.119D-01-0.522D-01
 Coeff-Com: -0.101D+00 0.224D+00 0.806D-01 0.223D+00 0.143D+00 0.228D+00
 Coeff-Com:  0.236D+00 0.184D+00-0.155D+00
 Coeff:     -0.514D-04-0.110D-03 0.109D-02 0.281D-03-0.119D-01-0.522D-01
 Coeff:     -0.101D+00 0.224D+00 0.806D-01 0.223D+00 0.143D+00 0.228D+00
 Coeff:      0.236D+00 0.184D+00-0.155D+00
 Gap=     0.343 Goal=   None    Shift=    0.000
 RMSDP=5.54D-08 MaxDP=3.56D-06 DE=-7.91D-10 OVMax= 8.67D-09

 Cycle  23  Pass 1  IDiag  1:
 RMSU=  1.10D-08    CP:  1.00D+00  8.87D-01
 E= -2375.77827436810     Delta-E=        0.000000000358 Rises=F Damp=F
 DIIS: error= 1.10D-07 at cycle  23 NSaved=  16.
 NSaved=16 IEnMin=15 EnMin= -2375.77827436846     IErMin=13 ErrMin= 3.13D-09
 ErrMax= 1.10D-07  0.00D+00 EMaxC= 1.00D-01 BMatC= 8.34D-12 BMatP= 7.05D-15
 IDIUse=1 WtCom= 1.00D+00 WtEn= 0.00D+00
 Large coefficients: NSaved= 16 BigCof=    0.00 CofMax=   10.00 Det=-1.32D-15
 Inversion failed.  Reducing to 15 matrices.
 Coeff-Com: -0.410D-04 0.456D-03 0.519D-05-0.849D-02-0.456D-01-0.107D+00
 Coeff-Com:  0.169D+00 0.540D-01 0.236D+00 0.192D+00 0.237D+00 0.249D+00
 Coeff-Com:  0.197D+00-0.446D+00 0.271D+00
 Coeff:     -0.410D-04 0.456D-03 0.519D-05-0.849D-02-0.456D-01-0.107D+00
 Coeff:      0.169D+00 0.540D-01 0.236D+00 0.192D+00 0.237D+00 0.249D+00
 Coeff:      0.197D+00-0.446D+00 0.271D+00
 Gap=     0.343 Goal=   None    Shift=    0.000
 RMSDP=7.63D-08 MaxDP=4.96D-06 DE= 3.58D-10 OVMax= 1.18D-08

 Cycle  24  Pass 1  IDiag  1:
 RMSU=  7.68D-09    CP:  1.00D+00  7.29D-01  1.77D+00
 E= -2375.77827436782     Delta-E=        0.000000000280 Rises=F Damp=F
 DIIS: error= 1.13D-07 at cycle  24 NSaved=  16.
 NSaved=16 IEnMin=14 EnMin= -2375.77827436846     IErMin=12 ErrMin= 3.13D-09
 ErrMax= 1.13D-07  0.00D+00 EMaxC= 1.00D-01 BMatC= 8.58D-12 BMatP= 7.05D-15
 IDIUse=1 WtCom= 1.00D+00 WtEn= 0.00D+00
 Large coefficients: NSaved= 16 BigCof=    0.00 CofMax=   10.00 Det=-3.64D-16
 Inversion failed.  Reducing to 15 matrices.
 Coeff-Com: -0.115D-04 0.400D-03-0.640D-03-0.913D-02-0.454D-01-0.122D+00
 Coeff-Com:  0.118D+00 0.147D+00 0.217D+00 0.269D+00 0.401D+00 0.201D+00
 Coeff-Com: -0.321D+00 0.314D-01 0.113D+00
 Coeff:     -0.115D-04 0.400D-03-0.640D-03-0.913D-02-0.454D-01-0.122D+00
 Coeff:      0.118D+00 0.147D+00 0.217D+00 0.269D+00 0.401D+00 0.201D+00
 Coeff:     -0.321D+00 0.314D-01 0.113D+00
 Gap=     0.343 Goal=   None    Shift=    0.000
 RMSDP=6.68D-08 MaxDP=4.61D-06 DE= 2.80D-10 OVMax= 1.08D-08

 Cycle  25  Pass 1  IDiag  1:
 RMSU=  5.81D-09    CP:  1.00D+00  8.67D-01  2.41D+00  1.70D+00
 E= -2375.77827436755     Delta-E=        0.000000000275 Rises=F Damp=F
 DIIS: error= 1.12D-07 at cycle  25 NSaved=  16.
 NSaved=16 IEnMin=13 EnMin= -2375.77827436846     IErMin=11 ErrMin= 4.43D-09
 ErrMax= 1.12D-07  0.00D+00 EMaxC= 1.00D-01 BMatC= 8.12D-12 BMatP= 1.14D-14
 IDIUse=1 WtCom= 1.00D+00 WtEn= 0.00D+00
 Large coefficients: NSaved= 16 BigCof=    0.00 CofMax=   10.00 Det=-3.65D-16
 Inversion failed.  Reducing to 15 matrices.
 Coeff-Com: -0.126D-04 0.657D-04-0.508D-03-0.938D-02-0.659D-01-0.196D+00
 Coeff-Com:  0.280D+00 0.804D-01 0.377D+00 0.500D+00 0.233D+00-0.365D+00
 Coeff-Com:  0.508D-01 0.182D+00-0.659D-01
 Coeff:     -0.126D-04 0.657D-04-0.508D-03-0.938D-02-0.659D-01-0.196D+00
 Coeff:      0.280D+00 0.804D-01 0.377D+00 0.500D+00 0.233D+00-0.365D+00
 Coeff:      0.508D-01 0.182D+00-0.659D-01
 Gap=     0.343 Goal=   None    Shift=    0.000
 RMSDP=1.37D-07 MaxDP=9.35D-06 DE= 2.75D-10 OVMax= 2.19D-08

 Cycle  26  Pass 1  IDiag  1:
 RMSU=  1.77D-09    CP:  1.00D+00  1.15D+00  2.53D+00  1.52D+00  7.12D-01
 E= -2375.77827436788     Delta-E=       -0.000000000338 Rises=F Damp=F
 DIIS: error= 1.06D-07 at cycle  26 NSaved=  16.
 NSaved=16 IEnMin=12 EnMin= -2375.77827436846     IErMin=10 ErrMin= 7.48D-09
 ErrMax= 1.06D-07  0.00D+00 EMaxC= 1.00D-01 BMatC= 7.45D-12 BMatP= 3.37D-14
 IDIUse=1 WtCom= 1.00D+00 WtEn= 0.00D+00
 Large coefficients: NSaved= 16 BigCof=    0.00 CofMax=   10.00 Det=-3.10D-16
 Inversion failed.  Reducing to 15 matrices.
 Coeff-Com: -0.103D-03 0.118D-02 0.445D-03-0.175D-01-0.812D-01-0.163D+00
 Coeff-Com:  0.329D+00 0.241D+00 0.629D+00 0.168D+00-0.272D+00 0.262D+00
 Coeff-Com:  0.748D-01-0.180D+00 0.914D-02
 Coeff:     -0.103D-03 0.118D-02 0.445D-03-0.175D-01-0.812D-01-0.163D+00
 Coeff:      0.329D+00 0.241D+00 0.629D+00 0.168D+00-0.272D+00 0.262D+00
 Coeff:      0.748D-01-0.180D+00 0.914D-02
 Gap=     0.343 Goal=   None    Shift=    0.000
 RMSDP=2.40D-07 MaxDP=1.53D-05 DE=-3.38D-10 OVMax= 3.72D-08

 Cycle  27  Pass 1  IDiag  1:
 RMSU=  5.12D-09    CP:  1.00D+00  1.65D+00  2.26D-01 -7.78D-01 -7.55D-01
                    CP:  8.91D-01
 E= -2375.77827436793     Delta-E=       -0.000000000047 Rises=F Damp=F
 DIIS: error= 9.57D-08 at cycle  27 NSaved=  16.
 NSaved=16 IEnMin=11 EnMin= -2375.77827436846     IErMin= 9 ErrMin= 1.07D-08
 ErrMax= 9.57D-08  0.00D+00 EMaxC= 1.00D-01 BMatC= 6.73D-12 BMatP= 7.56D-14
 IDIUse=1 WtCom= 1.00D+00 WtEn= 0.00D+00
 Large coefficients: NSaved= 16 BigCof=    0.00 CofMax=   10.00 Det=-2.66D-16
 Inversion failed.  Reducing to 15 matrices.
 Coeff-Com: -0.142D-03 0.550D-03 0.111D-02-0.141D-01-0.783D-01-0.234D+00
 Coeff-Com:  0.272D+00 0.974D+00 0.143D+00-0.132D+00 0.252D+00-0.216D-01
 Coeff-Com: -0.350D+00 0.166D+00 0.224D-01
 Coeff:     -0.142D-03 0.550D-03 0.111D-02-0.141D-01-0.783D-01-0.234D+00
 Coeff:      0.272D+00 0.974D+00 0.143D+00-0.132D+00 0.252D+00-0.216D-01
 Coeff:     -0.350D+00 0.166D+00 0.224D-01
 Gap=     0.343 Goal=   None    Shift=    0.000
 RMSDP=1.82D-07 MaxDP=1.15D-05 DE=-4.73D-11 OVMax= 2.79D-08

 Cycle  28  Pass 1  IDiag  1:
 RMSU=  1.16D-08    CP:  1.00D+00  2.03D+00 -2.20D+00 -2.97D+00 -2.07D+00
                    CP: -9.86D-01  1.49D+00
 E= -2375.77827436855     Delta-E=       -0.000000000617 Rises=F Damp=F
 DIIS: error= 1.03D-07 at cycle  28 NSaved=  16.
 NSaved=16 IEnMin=16 EnMin= -2375.77827436855     IErMin= 4 ErrMin= 1.11D-08
 ErrMax= 1.03D-07  0.00D+00 EMaxC= 1.00D-01 BMatC= 6.38D-12 BMatP= 8.98D-14
 IDIUse=1 WtCom= 1.00D+00 WtEn= 0.00D+00
 Large coefficients: NSaved= 16 BigCof=    0.00 CofMax=   10.00 Det=-2.49D-16
 Inversion failed.  Reducing to 15 matrices.
 Coeff-Com: -0.401D-06 0.697D-03-0.132D-02-0.155D-01-0.497D-01-0.181D+00
 Coeff-Com:  0.117D+01 0.303D-01-0.157D-01 0.444D+00 0.417D-01-0.492D+00
 Coeff-Com:  0.136D+00 0.127D-01-0.764D-01
 Coeff:     -0.401D-06 0.697D-03-0.132D-02-0.155D-01-0.497D-01-0.181D+00
 Coeff:      0.117D+01 0.303D-01-0.157D-01 0.444D+00 0.417D-01-0.492D+00
 Coeff:      0.136D+00 0.127D-01-0.764D-01
 Gap=     0.343 Goal=   None    Shift=    0.000
 RMSDP=2.60D-08 MaxDP=1.67D-06 DE=-6.17D-10 OVMax= 3.94D-09

 Cycle  29  Pass 1  IDiag  1:
 RMSU=  3.94D-09    CP:  1.00D+00  1.97D+00 -1.76D+00 -2.43D+00 -1.77D+00
                    CP: -1.33D+00  1.55D+00  8.49D-01
 E= -2375.77827436848     Delta-E=        0.000000000067 Rises=F Damp=F
 DIIS: error= 1.02D-07 at cycle  29 NSaved=  16.
 NSaved=16 IEnMin=15 EnMin= -2375.77827436855     IErMin= 4 ErrMin= 1.11D-08
 ErrMax= 1.02D-07  0.00D+00 EMaxC= 1.00D-01 BMatC= 6.38D-12 BMatP= 8.98D-14
 IDIUse=1 WtCom= 1.00D+00 WtEn= 0.00D+00
 Large coefficients: NSaved= 16 BigCof=    0.00 CofMax=   10.00 Det=-2.52D-16
 Inversion failed.  Reducing to 15 matrices.
 Coeff-Com: -0.383D-03 0.154D-01-0.780D-02-0.127D+00-0.688D-03 0.994D+00
 Coeff-Com: -0.202D+00 0.827D+00 0.587D+00-0.495D+00-0.111D+01 0.108D+01
 Coeff-Com: -0.721D+00 0.564D-01 0.104D+00
 Coeff:     -0.383D-03 0.154D-01-0.780D-02-0.127D+00-0.688D-03 0.994D+00
 Coeff:     -0.202D+00 0.827D+00 0.587D+00-0.495D+00-0.111D+01 0.108D+01
 Coeff:     -0.721D+00 0.564D-01 0.104D+00
 Gap=     0.343 Goal=   None    Shift=    0.000
 RMSDP=5.16D-07 MaxDP=3.21D-05 DE= 6.73D-11 OVMax= 1.02D-07

 Cycle  30  Pass 1  IDiag  1:
 RMSU=  1.07D-07    CP:  1.00D+00  3.00D+00 -3.00D+00 -3.00D+00 -2.55D+00
                    CP:  2.64D+00  3.00D+00 -1.09D-01 -3.00D+00
 E= -2375.77827436862     Delta-E=       -0.000000000144 Rises=F Damp=F
 DIIS: error= 8.71D-08 at cycle  30 NSaved=  16.
 NSaved=16 IEnMin=16 EnMin= -2375.77827436862     IErMin= 4 ErrMin= 1.11D-08
 ErrMax= 8.71D-08  0.00D+00 EMaxC= 1.00D-01 BMatC= 4.48D-12 BMatP= 1.11D-13
 IDIUse=1 WtCom= 1.00D+00 WtEn= 0.00D+00
 Large coefficients: NSaved= 16 BigCof=    0.00 CofMax=   10.00 Det=-1.98D-16
 Inversion failed.  Reducing to 15 matrices.
 Coeff-Com:  0.340D-02-0.513D-02-0.544D-01 0.437D-01 0.757D+00-0.124D+01
 Coeff-Com:  0.383D+01-0.301D+01 0.540D+00 0.605D-01 0.300D+00-0.108D+00
 Coeff-Com:  0.913D+00-0.974D+00-0.617D-01
 Coeff:      0.340D-02-0.513D-02-0.544D-01 0.437D-01 0.757D+00-0.124D+01
 Coeff:      0.383D+01-0.301D+01 0.540D+00 0.605D-01 0.300D+00-0.108D+00
 Coeff:      0.913D+00-0.974D+00-0.617D-01
 Gap=     0.343 Goal=   None    Shift=    0.000
 RMSDP=4.85D-07 MaxDP=3.22D-05 DE=-1.44D-10 OVMax= 1.52D-07

 Cycle  31  Pass 1  IDiag  1:
 RMSU=  4.75D-07    CP:  1.00D+00  3.00D+00 -3.00D+00 -3.00D+00  3.00D+00
                    CP:  1.33D+00  2.63D+00 -1.01D+00 -3.00D+00  1.78D+00
 E= -2375.77827436888     Delta-E=       -0.000000000253 Rises=F Damp=F
 DIIS: error= 7.79D-08 at cycle  31 NSaved=  16.
 NSaved=16 IEnMin=16 EnMin= -2375.77827436888     IErMin= 4 ErrMin= 1.11D-08
 ErrMax= 7.79D-08  0.00D+00 EMaxC= 1.00D-01 BMatC= 2.87D-12 BMatP= 1.96D-13
 IDIUse=1 WtCom= 1.00D+00 WtEn= 0.00D+00
 Large coefficients: NSaved= 16 BigCof=    0.00 CofMax=   10.00 Det=-1.12D-16
 Inversion failed.  Reducing to 15 matrices.
 Coeff-Com:  0.455D-03-0.362D-01 0.312D-01 0.299D+00-0.384D+01 0.889D+01
 Coeff-Com: -0.532D+01 0.496D+01-0.387D+01 0.250D+01-0.372D+01-0.254D+01
 Coeff-Com:  0.227D+01 0.959D+00 0.422D+00
 Coeff:      0.455D-03-0.362D-01 0.312D-01 0.299D+00-0.384D+01 0.889D+01
 Coeff:     -0.532D+01 0.496D+01-0.387D+01 0.250D+01-0.372D+01-0.254D+01
 Coeff:      0.227D+01 0.959D+00 0.422D+00
 Gap=     0.343 Goal=   None    Shift=    0.000
 RMSDP=1.03D-06 MaxDP=7.06D-05 DE=-2.53D-10 OVMax= 1.78D-07

 Cycle  32  Pass 1  IDiag  1:
[...]
 Alpha virt. eigenvalues --    2.01522   2.01717   2.01956   2.02205   2.02463
 Alpha virt. eigenvalues --    2.02569   2.02895   2.03041   2.03223   2.03389
 Alpha virt. eigenvalues --    2.03691   2.03852   2.04209   2.04320   2.04423
 Alpha virt. eigenvalues --    2.04487   2.04725   2.04946   2.05119   2.05345
 Alpha virt. eigenvalues --    2.05604   2.05904   2.06341   2.06505   2.06559
 Alpha virt. eigenvalues --    2.06714   2.06947   2.07056   2.07241   2.07534
 Alpha virt. eigenvalues --    2.07628   2.07838   2.08161   2.08393   2.08718
 Alpha virt. eigenvalues --    2.08829   2.08917   2.09401   2.09679   2.09849
 Alpha virt. eigenvalues --    2.10129   2.10356   2.10700   2.10833   2.11219
 Alpha virt. eigenvalues --    2.11426   2.11544   2.11876   2.12265   2.12380
 Alpha virt. eigenvalues --    2.12638   2.12733   2.13080   2.13439   2.13662
 Alpha virt. eigenvalues --    2.13842   2.13870   2.14066   2.14219   2.14553
 Alpha virt. eigenvalues --    2.14633   2.14907   2.15054   2.15223   2.15449
 Alpha virt. eigenvalues --    2.16181   2.16304   2.16454   2.16774   2.16876
 Alpha virt. eigenvalues --    2.17119   2.17525   2.17563   2.17761   2.18035
 Alpha virt. eigenvalues --    2.18212   2.18456   2.18769   2.18966   2.19029
 Alpha virt. eigenvalues --    2.19278   2.19585   2.19908   2.20123   2.20280
 Alpha virt. eigenvalues --    2.20299   2.20670   2.20893   2.21100   2.21208
 Alpha virt. eigenvalues --    2.21311   2.21552   2.21773   2.21889   2.22271
 Alpha virt. eigenvalues --    2.22614   2.22696   2.22997   2.23176   2.23283
 Alpha virt. eigenvalues --    2.23628   2.23745   2.24029   2.24389   2.24503
 Alpha virt. eigenvalues --    2.24658   2.24797   2.25195   2.25373   2.25567
 Alpha virt. eigenvalues --    2.25826   2.26052   2.26165   2.26406   2.26585
 Alpha virt. eigenvalues --    2.26713   2.26988   2.27145   2.27380   2.27617
 Alpha virt. eigenvalues --    2.27718   2.27932   2.28245   2.28433   2.28580
 Alpha virt. eigenvalues --    2.28690   2.28964   2.29140   2.29302   2.29482
 Alpha virt. eigenvalues --    2.29818   2.30141   2.30326   2.30681   2.30836
 Alpha virt. eigenvalues --    2.30978   2.31317   2.31396   2.31727   2.31902
 Alpha virt. eigenvalues --    2.32006   2.32246   2.32683   2.32850   2.33253
 Alpha virt. eigenvalues --    2.33382   2.33578   2.33888   2.34151   2.34206
 Alpha virt. eigenvalues --    2.34608   2.34662   2.35178   2.35334   2.35663
 Alpha virt. eigenvalues --    2.35706   2.35952   2.36125   2.36378   2.36778
 Alpha virt. eigenvalues --    2.36948   2.37160   2.37241   2.37566   2.37873
 Alpha virt. eigenvalues --    2.38125   2.38579   2.38738   2.39034   2.39109
 Alpha virt. eigenvalues --    2.39361   2.39590   2.39899   2.40026   2.40511
 Alpha virt. eigenvalues --    2.40769   2.40869   2.41334   2.41564   2.41749
 Alpha virt. eigenvalues --    2.41975   2.42200   2.42415   2.42572   2.43028
 Alpha virt. eigenvalues --    2.43174   2.43320   2.43609   2.43697   2.43820
 Alpha virt. eigenvalues --    2.44002   2.44466   2.44635   2.44861   2.45005
 Alpha virt. eigenvalues --    2.45087   2.45518   2.45703   2.46203   2.46351
 Alpha virt. eigenvalues --    2.46538   2.46634   2.46686   2.46793   2.47017
 Alpha virt. eigenvalues --    2.47228   2.47556   2.47671   2.48044   2.48092
 Alpha virt. eigenvalues --    2.48220   2.48290   2.48379   2.48833   2.49118
 Alpha virt. eigenvalues --    2.49336   2.49495   2.49777   2.49922   2.50282
 Alpha virt. eigenvalues --    2.50648   2.50704   2.51050   2.51372   2.51501
 Alpha virt. eigenvalues --    2.51711   2.51879   2.52031   2.52511   2.52674
 Alpha virt. eigenvalues --    2.52774   2.52935   2.53146   2.53325   2.53435
 Alpha virt. eigenvalues --    2.53509   2.53676   2.53960   2.54185   2.54578
 Alpha virt. eigenvalues --    2.54696   2.54939   2.55367   2.55490   2.55779
 Alpha virt. eigenvalues --    2.56003   2.56190   2.56495   2.56610   2.56879
 Alpha virt. eigenvalues --    2.57071   2.57251   2.57356   2.57852   2.58062
 Alpha virt. eigenvalues --    2.58293   2.58486   2.58813   2.58972   2.59041
 Alpha virt. eigenvalues --    2.59286   2.59496   2.59797   2.59960   2.59989
 Alpha virt. eigenvalues --    2.60283   2.60386   2.60528   2.60891   2.61062
 Alpha virt. eigenvalues --    2.61375   2.61422   2.61645   2.61746   2.61932
 Alpha virt. eigenvalues --    2.62198   2.62437   2.62673   2.62852   2.63062
 Alpha virt. eigenvalues --    2.63157   2.63537   2.63691   2.63758   2.63827
 Alpha virt. eigenvalues --    2.64079   2.64391   2.64478   2.64803   2.65174
 Alpha virt. eigenvalues --    2.65185   2.65555   2.66013   2.66218   2.66317
 Alpha virt. eigenvalues --    2.66623   2.66871   2.67169   2.67181   2.67490
 Alpha virt. eigenvalues --    2.67780   2.67983   2.68207   2.68457   2.68720
 Alpha virt. eigenvalues --    2.68884   2.69031   2.69164   2.69487   2.69721
 Alpha virt. eigenvalues --    2.70065   2.70405   2.70662   2.70814   2.70875
 Alpha virt. eigenvalues --    2.71128   2.71316   2.71501   2.71618   2.71981
 Alpha virt. eigenvalues --    2.72252   2.72625   2.72883   2.73119   2.73815
 Alpha virt. eigenvalues --    2.74179   2.74584   2.75095   2.75480   2.75892
 Alpha virt. eigenvalues --    2.76020   2.76200   2.76788   2.77020   2.77294
 Alpha virt. eigenvalues --    2.77374   2.77735   2.78096   2.78470   2.78737
 Alpha virt. eigenvalues --    2.79095   2.79852   2.80290   2.80410   2.80983
 Alpha virt. eigenvalues --    2.81465   2.81718   2.81768   2.82124   2.82256
 Alpha virt. eigenvalues --    2.82382   2.82929   2.83150   2.83341   2.84232
 Alpha virt. eigenvalues --    2.84384   2.84484   2.84699   2.84884   2.85092
 Alpha virt. eigenvalues --    2.85207   2.85502   2.85691   2.85814   2.86092
 Alpha virt. eigenvalues --    2.86593   2.86685   2.87433   2.87696   2.87925
 Alpha virt. eigenvalues --    2.88505   2.88921   2.89309   2.89624   2.89678
 Alpha virt. eigenvalues --    2.90021   2.90279   2.90452   2.90719   2.91159
 Alpha virt. eigenvalues --    2.91383   2.91574   2.91933   2.91964   2.92514
 Alpha virt. eigenvalues --    2.92650   2.93118   2.93832   2.93992   2.94586
 Alpha virt. eigenvalues --    2.95035   2.95318   2.95417   2.95673   2.96015
 Alpha virt. eigenvalues --    2.96503   2.96558   2.96894   2.96966   2.97366
 Alpha virt. eigenvalues --    2.97705   2.97743   2.98486   2.98687   2.98810
 Alpha virt. eigenvalues --    2.99243   2.99351   2.99718   2.99972   3.00710
 Alpha virt. eigenvalues --    3.01279   3.01454   3.01486   3.02145   3.03065
 Alpha virt. eigenvalues --    3.03294   3.03349   3.03956   3.04107   3.04605
 Alpha virt. eigenvalues --    3.04865   3.04914   3.05695   3.05965   3.06022
 Alpha virt. eigenvalues --    3.06555   3.07455   3.07587   3.08003   3.08425
 Alpha virt. eigenvalues --    3.08588   3.09463   3.10324   3.10763   3.11050
 Alpha virt. eigenvalues --    3.11164   3.11597   3.11959   3.12252   3.12472
 Alpha virt. eigenvalues --    3.12777   3.13348   3.13867   3.14384   3.14648
 Alpha virt. eigenvalues --    3.14793   3.15119   3.15538   3.16111   3.16345
 Alpha virt. eigenvalues --    3.16894   3.17108   3.17524   3.18208   3.18372
 Alpha virt. eigenvalues --    3.18554   3.18945   3.19178   3.19548   3.20279
 Alpha virt. eigenvalues --    3.20635   3.21537   3.21915   3.22480   3.22551
 Alpha virt. eigenvalues --    3.22904   3.23157   3.23625   3.23831   3.24047
 Alpha virt. eigenvalues --    3.24348   3.24831   3.25028   3.25394   3.25895
 Alpha virt. eigenvalues --    3.26114   3.26558   3.27091   3.27270   3.27416
 Alpha virt. eigenvalues --    3.28026   3.28636   3.28747   3.28952   3.29773
 Alpha virt. eigenvalues --    3.30032   3.30778   3.31182   3.31244   3.31695
 Alpha virt. eigenvalues --    3.31911   3.32991   3.33214   3.34037   3.34844
 Alpha virt. eigenvalues --    3.35805   3.37326   3.38328   3.39031   3.39857
 Alpha virt. eigenvalues --    3.40515   3.41208   3.41480   3.41600   3.42573
 Alpha virt. eigenvalues --    3.44166   3.45350   3.46133   3.47905   3.49909
 Alpha virt. eigenvalues --    3.50465   3.50944   3.51268   3.52741   3.52909
 Alpha virt. eigenvalues --    3.53499   3.54560   3.55868   3.56231   3.57557
 Alpha virt. eigenvalues --    3.58559   3.58694   3.59759   3.62121   3.64196
 Alpha virt. eigenvalues --    3.65910   3.66562   3.69848   3.70291   3.71192
 Alpha virt. eigenvalues --    3.74089   3.75484   3.76382   3.80389   3.82417
 Alpha virt. eigenvalues --    3.84847   3.86525   3.89361   3.89807   3.90839
 Alpha virt. eigenvalues --    3.91156   3.93447   3.95971   3.97629   3.98522
 Alpha virt. eigenvalues --    4.00207   4.00443   4.05300   4.06653   4.09596
 Alpha virt. eigenvalues --    4.11911   4.14820   4.15797   4.18388   4.19459
 Alpha virt. eigenvalues --    4.21885   4.25519   4.29211   4.29705   4.36121
 Alpha virt. eigenvalues --    4.41664   4.45397   4.48402   4.51484   4.58640
 Alpha virt. eigenvalues --    4.61733   4.65974   4.72322   4.90275   5.07929
 Alpha virt. eigenvalues --    5.17418   5.19753   5.29093   5.42205
          Condensed to atoms (all electrons):
 Mulliken charges:
               1
     1  C    1.656046
     2  C    0.524960
     3  C    0.112245
     4  C    1.099382
     5  H   -0.740873
     6  C    0.426573
     7  C    1.477401
     8  H   -0.991052
     9  C    0.246323
    10  C    0.522481
    11  H   -1.220707
    12  C    0.001008
    13  H   -0.870962
    14  H   -1.100429
    15  H   -0.809482
    16  C    1.862733
    17  C    0.251178
    18  C    0.293121
    19  C    0.803154
    20  H   -1.074132
    21  C    0.310443
    22  C    1.465648
    23  H   -0.866241
    24  C    0.061647
    25  C    0.478581
    26  H   -1.303671
    27  C    0.857506
    28  H   -0.813658
    29  H   -0.998732
    30  C    0.241956
    31  C   -0.102843
    32  N   -0.330652
    33  H   -0.394220
    34  C   -0.924111
    35  N   -0.157755
    36  H   -0.290102
    37  C   -0.868708
    38  H   -0.337218
    39  C    1.071329
    40  C    1.062167
    41  H   -0.301578
    42  C    1.146457
    43  C    1.150826
    44  H   -0.152118
    45  H   -0.007559
    46  H   -0.087919
    47  H   -0.154227
    48  H   -0.150022
    49  H   -0.047106
    50  H    0.040171
    51  H   -0.088493
    52  H   -0.181241
    53  H   -0.183705
    54  H   -0.136958
    55  H   -0.043956
    56  C   -0.416427
    57  C    0.890179
    58  N    0.341610
    59  H   -0.625754
    60  C   -0.763293
    61  N   -0.515268
    62  H   -0.594176
    63  C   -1.464659
    64  H   -0.218102
    65  C    1.205242
    66  C    1.115578
    67  H   -0.313842
    68  C    1.320335
    69  C    1.433235
    70  H   -0.195304
    71  H    0.002445
    72  H   -0.080963
    73  H    0.008079
    74  H    0.019316
    75  H   -0.113094
    76  H   -0.074764
    77  H   -0.143177
    78  H    0.018346
    79  H    0.031412
    80  H   -0.086660
    81  H   -0.426364
    82  C    0.173736
    83  C   -0.137187
    84  N   -0.697276
    85  H   -0.382282
    86  C   -0.948689
    87  N   -0.181163
    88  H   -0.289249
    89  C   -0.971832
    90  H   -0.288007
    91  C    1.150736
    92  C    1.126997
    93  H   -0.299281
    94  C    1.130846
    95  C    1.168534
    96  H   -0.084597
    97  H   -0.153032
    98  H    0.000992
    99  H   -0.085072
   100  H   -0.158448
   101  H   -0.110127
   102  H   -0.080037
   103  H   -0.176063
   104  H    0.063398
   105  H   -0.177466
   106  H   -0.131650
   107  H   -0.052687
   108  C    0.467655
   109  C   -0.480617
   110  N   -0.220791
   111  H   -0.332288
   112  C   -1.377136
   113  N    0.040199
   114  H   -0.440799
   115  C   -0.254585
   116  H   -0.277496
   117  C    1.277516
   118  C    1.262124
   119  H   -0.418483
   120  C    1.372958
   121  C    0.663389
   122  H   -0.043998
   123  H   -0.088599
   124  H   -0.059770
   125  H    0.070615
   126  H   -0.175408
   127  H   -0.118298
   128  H   -0.301841
   129  H   -0.321826
   130  H   -0.083634
   131  H   -0.124633
   132  H   -0.138462
   133  H   -0.154108
   134  H   -0.924206
   135  H    0.030146
   136  H   -0.026803
   137  H    0.010764
   138  H   -0.029511
 Sum of Mulliken charges =   0.00000
 Mulliken charges with hydrogens summed into heavy atoms:
               1
     1  C    1.656046
     2  C   -0.575469
     3  C   -0.628628
     4  C    1.099382
     6  C   -0.564479
     7  C    1.477401
     9  C   -0.974384
    10  C   -0.348481
    12  C   -0.808474
    16  C    1.862733
    17  C   -0.673029
    18  C   -0.781012
    19  C    0.803154
    21  C   -0.555799
    22  C    1.465648
    24  C   -1.242024
    25  C   -0.335078
    27  C   -0.141226
    30  C   -0.152264
    31  C   -0.392945
    32  N   -0.330652
    34  C   -1.261330
    35  N   -0.157755
    37  C   -1.170286
    39  C    0.719974
    40  C    0.814571
    42  C    0.781839
    43  C    0.921263
    56  C   -1.042181
    57  C    0.296003
    58  N    0.341610
    60  C   -0.981394
    61  N   -0.511926
    63  C   -1.778501
    65  C    1.119543
    66  C    0.841757
    68  C    0.838723
    69  C    1.233640
    82  C   -0.208545
    83  C   -0.426436
    84  N   -0.697276
    86  C   -1.236696
    87  N   -0.181163
    89  C   -1.271113
    91  C    0.797089
    92  C    0.890360
    94  C    0.769042
    95  C    0.975831
   108  C    0.135368
   109  C   -0.921416
   110  N   -0.239539
   112  C   -1.654632
   113  N    0.040199
   115  C   -0.673069
   117  C    1.054425
   118  C    1.069757
   120  C    0.955754
   121  C   -0.043911
 Electronic spatial extent (au):  <R**2>=          51385.7092
 Charge=              0.0000 electrons
 Dipole moment (field-independent basis, Debye):
    X=             -2.8602    Y=              1.0660    Z=             -0.0415  Tot=              3.0527
 Quadrupole moment (field-independent basis, Debye-Ang):
   XX=           -370.6141   YY=           -359.4189   ZZ=           -365.1085
   XY=             -4.7796   XZ=             11.7809   YZ=             -7.8689
 Traceless Quadrupole moment (field-independent basis, Debye-Ang):
   XX=             -5.5669   YY=              5.6282   ZZ=             -0.0613
   XY=             -4.7796   XZ=             11.7809   YZ=             -7.8689
 Octapole moment (field-independent basis, Debye-Ang**2):
  XXX=            -74.5794  YYY=             30.4500  ZZZ=             36.0345  XYY=             -6.9326
  XXY=            -58.6849  XXZ=            -16.4637  XZZ=            -22.3713  YZZ=             -3.0900
  YYZ=             47.8878  XYZ=             21.7395
 Hexadecapole moment (field-independent basis, Debye-Ang**3):
 XXXX=         -30975.8474 YYYY=         -24590.9732 ZZZZ=         -16190.9808 XXXY=           -235.6485
 XXXZ=            354.8030 YYYX=           -148.7780 YYYZ=             73.5590 ZZZX=            399.9951
 ZZZY=           -169.9207 XXYY=          -9541.9339 XXZZ=          -8073.5876 YYZZ=          -6586.7235
 XXYZ=              8.3188 YYXZ=            -57.0694 ZZXY=            -47.7564
 N-N= 8.758523189404D+03 E-N=-2.305425201200D+04  KE= 2.375344544780D+03
 Leave Link  601 at Thu Nov  4 07:24:07 2021, MaxMem=  7864320000 cpu:              86.5 elap:               3.2
 (Enter /apps/gaussian/g16-c01-avx/g16/l9999.exe)
 Unable to Open any file for archive entry.
 1\1\GINC-CX3-12-27\SP\RMP2-FC\Aug-CC-pVDZ\C50H80N8\ATARZIA\04-Nov-2021
 \0\\#P MP2/aug-cc-pVDZ SP SCF=(YQC,MaxCycle=900) int=(Grid=Superfinegr
 id) SCRF=(PCM,Solvent=Dichloromethane)\\_2_alde1_4_ami1_2_opt_dcm_mp2\
 \0,1\C,0,-0.6967,-2.5386,-2.8682\C,0,0.5874,-2.7339,-2.2084\C,0,-1.878
 2,-2.5477,-2.1369\C,0,-3.1009,-2.2879,-2.7579\H,0,-1.8734,-2.762,-1.07
 89\C,0,-3.1254,-1.9701,-4.1115\C,0,-1.9479,-1.953,-4.8572\H,0,-4.0527,
 -1.728,-4.6083\C,0,-0.745,-2.2647,-4.2342\C,0,-1.936,-1.5266,-6.2474\H
 ,0,0.1804,-2.2717,-4.7884\C,0,-4.3453,-2.3498,-2.0042\H,0,-0.9586,-1.5
 952,-6.7483\H,0,0.57,-2.6834,-1.1087\H,0,-5.2594,-2.1108,-2.5721\C,0,1
 .062,0.692,-3.5727\C,0,2.1794,-0.2379,-3.6304\C,0,0.2545,0.8677,-4.692
 1\C,0,-0.9242,1.6058,-4.6101\H,0,0.502,0.4048,-5.6348\C,0,-1.2646,2.21
 15,-3.4038\C,0,-0.4439,2.0802,-2.286\H,0,-2.1817,2.7806,-3.3308\C,0,0.
 7095,1.3069,-2.3749\C,0,-0.8212,2.6971,-1.021\H,0,1.3246,1.1673,-1.501
 2\C,0,-1.8505,1.6442,-5.7314\H,0,-1.7535,3.2846,-1.0273\H,0,-2.8521,2.
 0431,-5.5021\C,0,3.7167,-1.6925,-2.6756\C,0,2.9136,-2.9353,-2.1823\N,0
 ,2.8111,-0.5863,-2.5962\H,0,4.0085,-1.8871,-3.7216\C,0,4.9774,-1.3953,
 -1.8465\N,0,1.6529,-2.8997,-2.8601\H,0,2.7747,-2.8349,-1.0926\C,0,3.62
 24,-4.2732,-2.4709\H,0,5.6037,-2.2935,-1.8335\C,0,4.6415,-0.9942,-0.41
 25\C,0,5.7584,-0.2734,-2.5313\H,0,4.6411,-4.2098,-2.0753\C,0,3.6829,-4
 .5857,-3.9636\C,0,2.8907,-5.395,-1.7338\H,0,6.6749,-0.0599,-1.9863\H,0
 ,5.1537,0.6302,-2.5644\H,0,6.0218,-0.5507,-3.5502\H,0,5.5371,-0.6414,0
 .0941\H,0,4.2449,-1.8342,0.1514\H,0,3.9026,-0.1983,-0.421\H,0,1.8701,-
 5.4815,-2.101\H,0,2.8581,-5.1988,-0.6639\H,0,3.3966,-6.3446,-1.8924\H,
 0,4.0932,-5.5813,-4.1178\H,0,4.3143,-3.8757,-4.491\H,0,2.6833,-4.5461,
 -4.3876\C,0,-5.6226,-2.7865,-0.0951\C,0,-5.5486,-1.9269,1.2057\N,0,-4.
 3745,-2.6788,-0.7881\H,0,-6.4473,-2.4194,-0.7303\C,0,-5.8971,-4.2908,0
 .1505\N,0,-4.1898,-1.7439,1.6884\H,0,-6.1016,-2.4353,2.0024\C,0,-6.194
 1,-0.5408,0.9996\H,0,-5.8086,-4.7731,-0.8322\C,0,-7.3173,-4.5205,0.659
 8\C,0,-4.8739,-4.9379,1.079\H,0,-5.7227,-0.0751,0.1254\C,0,-5.9394,0.3
 411,2.2215\C,0,-7.702,-0.6327,0.77\H,0,-5.0317,-6.0143,1.1087\H,0,-4.9
 693,-4.5553,2.0925\H,0,-3.8672,-4.7482,0.7149\H,0,-8.0474,-4.0809,-0.0
 161\H,0,-7.4572,-4.0844,1.6456\H,0,-7.5147,-5.5879,0.7304\H,0,-7.952,-
 1.1744,-0.1384\H,0,-8.1231,0.367,0.6878\H,0,-8.1787,-1.1359,1.6086\H,0
 ,-6.4429,-0.0754,3.0906\H,0,-6.3216,1.3446,2.0477\H,0,-4.8781,0.3951,2
 .4359\C,0,-2.7725,-0.4488,-8.1185\C,0,-2.5731,1.0781,-7.8725\N,0,-2.94
 81,-1.0423,-6.8246\H,0,-1.8491,-0.8208,-8.593\C,0,-3.9728,-0.7904,-9.0
 163\N,0,-1.5574,1.1896,-6.8698\H,0,-3.5305,1.4875,-7.506\C,0,-2.1534,1
 .856,-9.1343\H,0,-3.8413,-0.2828,-9.9774\C,0,-5.2981,-0.3585,-8.3948\C
 ,0,-3.9802,-2.2987,-9.2669\H,0,-2.8997,1.6682,-9.9127\C,0,-0.7775,1.43
 5,-9.6429\C,0,-2.1575,3.3522,-8.8193\H,0,-3.0457,-2.6194,-9.7229\H,0,-
 4.7974,-2.5701,-9.9313\H,0,-4.1042,-2.8292,-8.3255\H,0,-5.3583,-0.7285
 ,-7.3754\H,0,-6.1285,-0.7647,-8.9681\H,0,-5.3949,0.724,-8.3826\H,0,-3.
 1355,3.6705,-8.4631\H,0,-1.9141,3.9269,-9.71\H,0,-1.4203,3.5754,-8.051
 \H,0,-0.4593,2.0983,-10.4442\H,0,-0.7933,0.4204,-10.0319\H,0,-0.0555,1
 .4895,-8.8328\C,0,0.6092,4.07,1.7061\C,0,-0.5257,3.1182,1.2635\N,0,0.6
 192,5.1796,0.7563\H,0,1.5477,3.4896,1.6667\C,0,0.4465,4.6204,3.1357\N,
 0,-0.1211,2.547,0.0155\H,0,-1.4431,3.7221,1.1476\C,0,-0.8213,1.9563,2.
 2376\H,0,0.3992,3.768,3.8198\C,0,-0.8245,5.453,3.2787\C,0,1.6654,5.455
 3,3.5346\H,0,-1.119,2.388,3.1976\C,0,0.3941,1.0563,2.4407\C,0,-1.9973,
 1.1348,1.7088\H,0,2.5884,4.9117,3.3406\H,0,1.6246,5.6879,4.5965\H,0,1.
 6883,6.3942,2.9871\H,0,-0.8546,6.2054,2.4956\H,0,-0.8426,5.9473,4.2474
 \H,0,-1.7113,4.8305,3.1967\H,0,-2.273,0.3636,2.424\H,0,-1.7311,0.6547,
 0.769\H,0,-2.8642,1.7699,1.5371\H,0,0.7563,0.7059,1.4782\H,0,0.12,0.19
 65,3.0484\H,0,1.1981,1.587,2.9434\H,0,2.3825,-0.6788,-4.6184\H,0,-3.63
 98,-1.2957,0.9615\H,0,-3.7646,-2.6473,1.8592\H,0,0.6758,4.8148,-0.1888
 \H,0,1.438,5.7578,0.9075\\Version=ES64L-G16RevC.01\State=1-A\HF=-2375.
 7782744\MP2=-2384.4540564\RMSD=7.285e-09\PG=C01 [X(C50H80N8)]\\@
 The archive entry for this job was punched.


 "THE TIME HAS COME", THE WALRUS SAID,
 "TO TALK OF MANY THINGS,
 OF SHOES AND SHIPS AND SEALING WAX,
 OF CABBAGES AND KINGS,
 AND WHY THE SEA IS BOILING HOT,
 AND WHETHER PIGS HAVE WINGS."
 Job cpu time:      80 days  3 hours 18 minutes  5.0 seconds.
 Elapsed time:       2 days 13 hours 10 minutes 36.7 seconds.
 File lengths (MBytes):  RWF=******* Int=      0 D2E=      0 Chk=    288 Scr=     16
 Normal termination of Gaussian 16 at Thu Nov  4 07:24:08 2021.
