 Entering Gaussian System, Link 0=g16
 Initial command:
 /apps/gaussian/g16-c01-avx/g16/l1.exe "/rds/general/ephemeral/user/atarzia/ephemeral/Gau-3332053.inp" -scrdir="/rds/general/ephemeral/user/atarzia/ephemeral/"
 Entering Link 1 = /apps/gaussian/g16-c01-avx/g16/l1.exe PID=   3332054.
  
 Copyright (c) 1988-2019, Gaussian, Inc.  All Rights Reserved.
  
 This is part of the Gaussian(R) 16 program.  It is based on
 the Gaussian(R) 09 system (copyright 2009, Gaussian, Inc.),
 the Gaussian(R) 03 system (copyright 2003, Gaussian, Inc.),
 the Gaussian(R) 98 system (copyright 1998, Gaussian, Inc.),
 the Gaussian(R) 94 system (copyright 1995, Gaussian, Inc.),
 the Gaussian 92(TM) system (copyright 1992, Gaussian, Inc.),
 the Gaussian 90(TM) system (copyright 1990, Gaussian, Inc.),
 the Gaussian 88(TM) system (copyright 1988, Gaussian, Inc.),
 the Gaussian 86(TM) system (copyright 1986, Carnegie Mellon
 University), and the Gaussian 82(TM) system (copyright 1983,
 Carnegie Mellon University). Gaussian is a federally registered
 trademark of Gaussian, Inc.
  
 This software contains proprietary and confidential information,
 including trade secrets, belonging to Gaussian, Inc.
  
 This software is provided under written license and may be
 used, copied, transmitted, or stored only in accord with that
 written license.
  
 The following legend is applicable only to US Government
 contracts under FAR:
  
                    RESTRICTED RIGHTS LEGEND
  
 Use, reproduction and disclosure by the US Government is
 subject to restrictions as set forth in subparagraphs (a)
 and (c) of the Commercial Computer Software - Restricted
 Rights clause in FAR 52.227-19.
  
 Gaussian, Inc.
 340 Quinnipiac St., Bldg. 40, Wallingford CT 06492
  
  
 ---------------------------------------------------------------
 Warning -- This program may not be used in any manner that
 competes with the business of Gaussian, Inc. or will provide
 assistance to any competitor of Gaussian, Inc.  The licensee
 of this program is prohibited from giving any competitor of
 Gaussian, Inc. access to this program.  By using this program,
 the user acknowledges that Gaussian, Inc. is engaged in the
 business of creating and licensing software in the field of
 computational chemistry and represents and warrants to the
 licensee that it is not a competitor of Gaussian, Inc. and that
 it will not use this program in any manner prohibited above.
 ---------------------------------------------------------------
  

 Cite this work as:
 Gaussian 16, Revision C.01,
 M. J. Frisch, G. W. Trucks, H. B. Schlegel, G. E. Scuseria, 
 M. A. Robb, J. R. Cheeseman, G. Scalmani, V. Barone, 
 G. A. Petersson, H. Nakatsuji, X. Li, M. Caricato, A. V. Marenich, 
 J. Bloino, B. G. Janesko, R. Gomperts, B. Mennucci, H. P. Hratchian, 
 J. V. Ortiz, A. F. Izmaylov, J. L. Sonnenberg, D. Williams-Young, 
 F. Ding, F. Lipparini, F. Egidi, J. Goings, B. Peng, A. Petrone, 
 T. Henderson, D. Ranasinghe, V. G. Zakrzewski, J. Gao, N. Rega, 
 G. Zheng, W. Liang, M. Hada, M. Ehara, K. Toyota, R. Fukuda, 
 J. Hasegawa, M. Ishida, T. Nakajima, Y. Honda, O. Kitao, H. Nakai, 
 T. Vreven, K. Throssell, J. A. Montgomery, Jr., J. E. Peralta, 
 F. Ogliaro, M. J. Bearpark, J. J. Heyd, E. N. Brothers, K. N. Kudin, 
 V. N. Staroverov, T. A. Keith, R. Kobayashi, J. Normand, 
 K. Raghavachari, A. P. Rendell, J. C. Burant, S. S. Iyengar, 
 J. Tomasi, M. Cossi, J. M. Millam, M. Klene, C. Adamo, R. Cammi, 
 J. W. Ochterski, R. L. Martin, K. Morokuma, O. Farkas, 
 J. B. Foresman, and D. J. Fox, Gaussian, Inc., Wallingford CT, 2019.
 
 ******************************************
 Gaussian 16:  ES64L-G16RevC.01  3-Jul-2019
                18-Oct-2021 
 ******************************************
 %chk=_3_alde1_6_ami1_2_opt_gas.chk
 %mem=60000mb
 %nprocshared=32
 Will use up to   32 processors via shared memory.
 ----------------------------------------------------------------------
 #P PBE1PBE/Def2TZVP SP SCF=(YQC,MaxCycle=900) int=(Grid=Superfinegrid)
  EmpiricalDispersion=GD3
 ----------------------------------------------------------------------
 1/38=1,172=1/1;
 2/12=2,17=6,18=5,40=1/2;
 3/5=44,7=101,11=2,25=1,30=1,74=-13,75=-7,124=31/1,2,3;
 4//1;
 5/5=2,7=900,8=4,13=1,38=1/8,2,8;
 6/7=2,8=2,9=2,10=2,28=1/1;
 99/5=1,9=1/99;
 Leave Link    1 at Mon Oct 18 05:38:56 2021, MaxMem=  7864320000 cpu:               5.3 elap:               0.2
 (Enter /apps/gaussian/g16-c01-avx/g16/l101.exe)
 -------------------------
 _3_alde1_6_ami1_2_opt_gas
 -------------------------
 Symbolic Z-matrix:
 Charge =  0 Multiplicity = 1
 C                    -1.2202   -0.1559   -3.184 
 C                    -0.0295    0.0051   -4.008 
 C                    -1.6376   -1.4241   -2.7909 
 C                    -2.7747   -1.5864   -2.0053 
 H                    -1.0712   -2.2891   -3.0939 
 C                    -3.5133   -0.4679   -1.6346 
 C                    -3.1246    0.8065   -2.0426 
 H                    -4.4084   -0.5635   -1.0391 
 C                    -1.9652    0.9565   -2.7986 
 C                    -3.9233    1.9719   -1.6939 
 H                    -1.6452    1.9459   -3.0952 
 C                    -3.1767   -2.9172   -1.5681 
 H                    -3.4759    2.9477   -1.9372 
 H                     0.2009    1.0334   -4.3259 
 H                    -3.8549   -2.9542   -0.7008 
 C                     2.413    -2.1944    0.907 
 C                     3.6827   -1.57      0.5646 
 C                     1.8661   -2.0177    2.1738 
 C                     0.6403   -2.586     2.506 
 H                     2.3913   -1.4259    2.9051 
 C                    -0.028    -3.3626    1.5659 
 C                     0.52     -3.5735    0.3018 
 H                    -0.9744   -3.8268    1.7977 
 C                     1.7307   -2.9702   -0.0277 
 C                    -0.1547   -4.427    -0.6653 
 H                     2.1494   -3.1142   -1.0143 
 C                     0.0628   -2.3374    3.8204 
 H                     0.2615   -4.418    -1.6845 
 H                     4.0488   -1.7494   -0.4578 
 H                    -1.0163   -2.5337    3.9206 
 C                     0.025     2.9845    0.9824 
 C                     0.8372    3.7038    0.0114 
 C                    -1.362     2.997     0.8724 
 C                    -2.1576    2.3444    1.8085 
 H                    -1.829     3.5193    0.0544 
 C                    -1.5552    1.6797    2.8702 
 C                    -0.168     1.6744    3.0077 
 H                    -2.1453    1.1742    3.6192 
 C                     0.6162    2.3178    2.0538 
 C                     0.4553    1.0264    4.1526 
 H                     1.693     2.3092    2.1513 
 C                    -3.6071    2.3622    1.659 
 H                     1.5539    0.9588    4.1273 
 H                     1.9117    3.7809    0.24 
 H                    -4.1604    1.5713    2.1894 
 C                     1.4076   -1.4047   -6.5761 
 C                     1.8137   -0.8245   -5.1972 
 N                     0.4125   -0.4991   -7.1412 
 H                     0.99     -2.4104   -6.3904 
 C                     2.5805   -1.5503   -7.565 
 N                     0.6779   -0.9838   -4.3411 
 H                     2.0544    0.242    -5.3542 
 C                     3.0156   -1.5211   -4.5293 
 H                     3.3294   -2.2021   -7.1059 
 C                     3.2148   -0.2007   -7.89 
 C                     2.1179   -2.2336   -8.8539 
 H                     3.8738   -1.457    -5.2042 
 C                     2.7176   -2.9872   -4.2263 
 C                     3.3797   -0.7799   -3.2431 
 H                     1.4844   -1.5717   -9.439 
 H                     1.5661   -3.1457   -8.6332 
 H                     2.9797   -2.4967   -9.4633 
 H                     3.9425   -0.3112   -8.6907 
 H                     3.7221    0.2131   -7.0226 
 H                     2.443     0.4955   -8.2057 
 H                     2.5517   -0.8105   -2.5375 
 H                     3.6143    0.2621   -3.45 
 H                     4.2531   -1.2389   -2.7835 
 H                     1.7971   -3.0583   -3.6534 
 H                     3.5323   -3.4261   -3.6528 
 H                     2.6008   -3.5606   -5.142 
 C                     6.6349   -0.6697    2.0945 
 C                     5.546    -0.237     1.0605 
 N                     6.1032   -1.1258    3.3663 
 H                     7.2514    0.2107    2.3175 
 C                     7.592    -1.7535    1.554 
 N                     4.3115   -0.8667    1.399 
 H                     5.8789   -0.5176    0.045 
 C                     5.3375    1.2962    1.0494 
 H                     8.1632   -2.087     2.4271 
 C                     8.5713   -1.1756    0.5343 
 C                     6.8763   -2.9708    0.9708 
 H                     6.3178    1.7513    0.865 
 C                     4.7887    1.8155    2.3757 
 C                     4.4039    1.6873   -0.0954 
 H                     6.134    -3.36      1.6633 
 H                     7.598    -3.7597    0.7699 
 H                     6.379    -2.7261    0.0353 
 H                     8.0493   -0.803    -0.3446 
 H                     9.2718   -1.9426    0.2117 
 H                     9.138    -0.355     0.9683 
 H                     3.4127    1.263     0.0561 
 H                     4.7865    1.3274   -1.0485 
 H                     4.3137    2.7703   -0.1512 
 H                     4.5524    2.8753    2.2933 
 H                     5.5161    1.6968    3.1748 
 H                     3.8843    1.2706    2.6363 
 C                     0.3474    6.3312   -2.2118 
 C                     1.0991    4.9955   -1.9286 
 N                    -0.9624    6.1273   -2.8006 
 H                     0.9563    6.8865   -2.9342 
 C                     0.1944    7.2651   -0.9853 
 N                     0.3175    4.2347   -1.0083 
 H                     2.1057    5.2214   -1.5345 
 C                     1.2896    4.1519   -3.2147 
 H                    -0.0866    8.2369   -1.4076 
 C                     1.5079    7.4445   -0.2268 
 C                    -0.9228    6.8565   -0.0268 
 H                     0.301     3.8239   -3.5551 
 C                     2.1192    2.9085   -2.8975 
 C                     1.9737    4.9358   -4.3334 
 H                    -0.9557    7.5543    0.8076 
 H                    -0.7635    5.8572    0.366 
 H                    -1.8831    6.8869   -0.5328 
 H                     1.4189    8.2714    0.4743 
 H                     2.3261    7.6642   -0.91 
 H                     1.7523    6.5503    0.3417 
 H                     2.9037    5.3734   -3.9757 
 H                     1.3432    5.7313   -4.7218 
 H                     2.2076    4.2652   -5.1581 
 H                     3.1076    3.193    -2.5414 
 H                     2.2419    2.3043   -3.7938 
 H                     1.6393    2.2958   -2.137 
 C                    -3.1221   -5.2507   -1.6641 
 C                    -1.7786   -5.9548   -1.3416 
 N                    -2.7647   -3.9535   -2.1518 
 H                    -3.705    -5.176    -0.7293 
 C                    -3.9766   -5.9807   -2.7199 
 N                    -1.1356   -5.1505   -0.3452 
 H                    -1.1876   -5.9692   -2.2737 
 C                    -1.9209   -7.3943   -0.8144 
 H                    -4.1956   -6.9838   -2.3409 
 C                    -3.2587   -6.0922   -4.0618 
 C                    -5.3035   -5.2413   -2.8938 
 H                    -2.4221   -7.9915   -1.5826 
 C                    -2.7277   -7.4527    0.4792 
 C                    -0.527    -7.9812   -0.5902 
 H                    -5.1308   -4.2439   -3.2922 
 H                    -5.8224   -5.1483   -1.9416 
 H                    -5.948    -5.7823   -3.583 
 H                    -2.4051   -6.7617   -3.9966 
 H                    -2.9121   -5.1108   -4.3738 
 H                    -3.9387   -6.4826   -4.8159 
 H                    -0.005    -7.4186    0.1806 
 H                     0.061    -7.9404   -1.5051 
 H                    -0.5997   -9.0195   -0.2746 
 H                    -2.6878   -8.4556    0.8987 
 H                    -3.7702   -7.1994    0.305 
 H                    -2.3112   -6.7537    1.199 
 C                    -5.773     3.0559   -0.7907 
 C                    -5.5894    3.1994    0.7444 
 N                    -5.0632    1.8685   -1.1656 
 H                    -5.3153    3.9462   -1.2546 
 C                    -7.2366    2.9444   -1.2517 
 N                    -4.1753    3.2368    0.9547 
 H                    -6.0396    2.316     1.23 
 C                    -6.2325    4.4704    1.3343 
 H                    -7.7633    3.8524   -0.9416 
 C                    -7.9347    1.7256   -0.6555 
 C                    -7.2686    2.872    -2.7786 
 H                    -7.3011    4.4486    1.0981 
 C                    -5.6136    5.7445    0.766 
 C                    -6.0825    4.4483    2.8556 
 H                    -6.758     1.9738   -3.1187 
 H                    -6.7744    3.7371   -3.2164 
 H                    -8.2956    2.8458   -3.1357 
 H                    -7.3346    0.8384   -0.837 
 H                    -8.9104    1.5915   -1.1174 
 H                    -8.0803    1.8398    0.4156 
 H                    -6.5882    5.3045    3.2961 
 H                    -5.0307    4.4889    3.1308 
 H                    -6.5155    3.542     3.2748 
 H                    -4.5327    5.7058    0.8708 
 H                    -5.9889    6.6116    1.3051 
 H                    -5.8605    5.8679   -0.285 
 C                     0.172    -1.5785    6.0287 
 C                     0.4317   -0.0596    6.2157 
 N                     0.7677   -1.9087    4.7713 
 H                    -0.9203   -1.7398    6.0064 
 C                     0.7813   -2.4616    7.1355 
 N                    -0.2237    0.596     5.1233 
 H                     1.5239    0.0896    6.1643 
 C                    -0.0945    0.5204    7.5408 
 H                     0.339    -2.1599    8.0901 
 C                     2.2987   -2.32      7.2127 
 C                     0.4023   -3.9203    6.8783 
 H                     0.4082    0.0034    8.3641 
 C                    -1.604     0.3483    7.6807 
 C                     0.2736    2.0026    7.614 
 H                     0.7641   -4.5513    7.6868 
 H                     0.8438   -4.2653    5.9458 
 H                    -0.6782   -4.0338    6.8122 
 H                     2.7059   -3.0553    7.9033 
 H                     2.5847   -1.332     7.5635 
 H                     2.7329   -2.4828    6.2302 
 H                    -0.2202    2.5492    6.8136 
 H                     1.3486    2.1388    7.513 
 H                    -0.0379    2.4235    8.5673 
 H                    -1.8718   -0.6986    7.7971 
 H                    -2.098     0.7417    6.7969 
 H                    -1.9617    0.8892    8.5541 
 H                    -1.4681    5.4573   -2.231 
 H                    -0.8776    5.7392   -3.7331 
 H                     0.0131   -0.9048   -7.9796 
 H                    -0.3465   -0.3676   -6.4804 
 H                     5.5317   -1.952     3.2216 
 H                     5.4893   -0.4211    3.7575 
 
 ITRead=  0  0  0  0  0  0  0  0  0  0  0  0  0  0  0  0  0  0  0  0
 ITRead=  0  0  0  0  0  0  0  0  0  0  0  0  0  0  0  0  0  0  0  0
 ITRead=  0  0  0  0  0  0  0  0  0  0  0  0  0  0  0  0  0  0  0  0
 ITRead=  0  0  0  0  0  0  0  0  0  0  0  0  0  0  0  0  0  0  0  0
 ITRead=  0  0  0  0  0  0  0  0  0  0  0  0  0  0  0  0  0  0  0  0
 ITRead=  0  0  0  0  0  0  0  0  0  0  0  0  0  0  0  0  0  0  0  0
 ITRead=  0  0  0  0  0  0  0  0  0  0  0  0  0  0  0  0  0  0  0  0
 ITRead=  0  0  0  0  0  0  0  0  0  0  0  0  0  0  0  0  0  0  0  0
 ITRead=  0  0  0  0  0  0  0  0  0  0  0  0  0  0  0  0  0  0  0  0
 ITRead=  0  0  0  0  0  0  0  0  0  0  0  0  0  0  0  0  0  0  0  0
 ITRead=  0  0  0  0  0  0  0
 MicOpt= -1 -1 -1 -1 -1 -1 -1 -1 -1 -1 -1 -1 -1 -1 -1 -1 -1 -1 -1 -1
 MicOpt= -1 -1 -1 -1 -1 -1 -1 -1 -1 -1 -1 -1 -1 -1 -1 -1 -1 -1 -1 -1
 MicOpt= -1 -1 -1 -1 -1 -1 -1 -1 -1 -1 -1 -1 -1 -1 -1 -1 -1 -1 -1 -1
 MicOpt= -1 -1 -1 -1 -1 -1 -1 -1 -1 -1 -1 -1 -1 -1 -1 -1 -1 -1 -1 -1
 MicOpt= -1 -1 -1 -1 -1 -1 -1 -1 -1 -1 -1 -1 -1 -1 -1 -1 -1 -1 -1 -1
 MicOpt= -1 -1 -1 -1 -1 -1 -1 -1 -1 -1 -1 -1 -1 -1 -1 -1 -1 -1 -1 -1
 MicOpt= -1 -1 -1 -1 -1 -1 -1 -1 -1 -1 -1 -1 -1 -1 -1 -1 -1 -1 -1 -1
 MicOpt= -1 -1 -1 -1 -1 -1 -1 -1 -1 -1 -1 -1 -1 -1 -1 -1 -1 -1 -1 -1
 MicOpt= -1 -1 -1 -1 -1 -1 -1 -1 -1 -1 -1 -1 -1 -1 -1 -1 -1 -1 -1 -1
 MicOpt= -1 -1 -1 -1 -1 -1 -1 -1 -1 -1 -1 -1 -1 -1 -1 -1 -1 -1 -1 -1
 MicOpt= -1 -1 -1 -1 -1 -1 -1
 NAtoms=    207 NQM=      207 NQMF=       0 NMMI=      0 NMMIF=      0
                NMic=       0 NMicF=      0.
                    Isotopes and Nuclear Properties:
 (Nuclear quadrupole moments (NQMom) in fm**2, nuclear magnetic moments (NMagM)
  in nuclear magnetons)

  Atom         1           2           3           4           5           6           7           8           9          10
 IAtWgt=          12          12          12          12           1          12          12           1          12          12
 AtmWgt=  12.0000000  12.0000000  12.0000000  12.0000000   1.0078250  12.0000000  12.0000000   1.0078250  12.0000000  12.0000000
 NucSpn=           0           0           0           0           1           0           0           1           0           0
 AtZEff=  -0.0000000  -0.0000000  -0.0000000  -0.0000000  -0.0000000  -0.0000000  -0.0000000  -0.0000000  -0.0000000  -0.0000000
 NQMom=    0.0000000   0.0000000   0.0000000   0.0000000   0.0000000   0.0000000   0.0000000   0.0000000   0.0000000   0.0000000
 NMagM=    0.0000000   0.0000000   0.0000000   0.0000000   2.7928460   0.0000000   0.0000000   2.7928460   0.0000000   0.0000000
 AtZNuc=   6.0000000   6.0000000   6.0000000   6.0000000   1.0000000   6.0000000   6.0000000   1.0000000   6.0000000   6.0000000

  Atom        11          12          13          14          15          16          17          18          19          20
 IAtWgt=           1          12           1           1           1          12          12          12          12           1
 AtmWgt=   1.0078250  12.0000000   1.0078250   1.0078250   1.0078250  12.0000000  12.0000000  12.0000000  12.0000000   1.0078250
 NucSpn=           1           0           1           1           1           0           0           0           0           1
 AtZEff=  -0.0000000  -0.0000000  -0.0000000  -0.0000000  -0.0000000  -0.0000000  -0.0000000  -0.0000000  -0.0000000  -0.0000000
 NQMom=    0.0000000   0.0000000   0.0000000   0.0000000   0.0000000   0.0000000   0.0000000   0.0000000   0.0000000   0.0000000
 NMagM=    2.7928460   0.0000000   2.7928460   2.7928460   2.7928460   0.0000000   0.0000000   0.0000000   0.0000000   2.7928460
 AtZNuc=   1.0000000   6.0000000   1.0000000   1.0000000   1.0000000   6.0000000   6.0000000   6.0000000   6.0000000   1.0000000

  Atom        21          22          23          24          25          26          27          28          29          30
 IAtWgt=          12          12           1          12          12           1          12           1           1           1
 AtmWgt=  12.0000000  12.0000000   1.0078250  12.0000000  12.0000000   1.0078250  12.0000000   1.0078250   1.0078250   1.0078250
 NucSpn=           0           0           1           0           0           1           0           1           1           1
 AtZEff=  -0.0000000  -0.0000000  -0.0000000  -0.0000000  -0.0000000  -0.0000000  -0.0000000  -0.0000000  -0.0000000  -0.0000000
 NQMom=    0.0000000   0.0000000   0.0000000   0.0000000   0.0000000   0.0000000   0.0000000   0.0000000   0.0000000   0.0000000
 NMagM=    0.0000000   0.0000000   2.7928460   0.0000000   0.0000000   2.7928460   0.0000000   2.7928460   2.7928460   2.7928460
 AtZNuc=   6.0000000   6.0000000   1.0000000   6.0000000   6.0000000   1.0000000   6.0000000   1.0000000   1.0000000   1.0000000

  Atom        31          32          33          34          35          36          37          38          39          40
 IAtWgt=          12          12          12          12           1          12          12           1          12          12
 AtmWgt=  12.0000000  12.0000000  12.0000000  12.0000000   1.0078250  12.0000000  12.0000000   1.0078250  12.0000000  12.0000000
 NucSpn=           0           0           0           0           1           0           0           1           0           0
 AtZEff=  -0.0000000  -0.0000000  -0.0000000  -0.0000000  -0.0000000  -0.0000000  -0.0000000  -0.0000000  -0.0000000  -0.0000000
 NQMom=    0.0000000   0.0000000   0.0000000   0.0000000   0.0000000   0.0000000   0.0000000   0.0000000   0.0000000   0.0000000
 NMagM=    0.0000000   0.0000000   0.0000000   0.0000000   2.7928460   0.0000000   0.0000000   2.7928460   0.0000000   0.0000000
 AtZNuc=   6.0000000   6.0000000   6.0000000   6.0000000   1.0000000   6.0000000   6.0000000   1.0000000   6.0000000   6.0000000

  Atom        41          42          43          44          45          46          47          48          49          50
 IAtWgt=           1          12           1           1           1          12          12          14           1          12
 AtmWgt=   1.0078250  12.0000000   1.0078250   1.0078250   1.0078250  12.0000000  12.0000000  14.0030740   1.0078250  12.0000000
 NucSpn=           1           0           1           1           1           0           0           2           1           0
 AtZEff=  -0.0000000  -0.0000000  -0.0000000  -0.0000000  -0.0000000  -0.0000000  -0.0000000  -0.0000000  -0.0000000  -0.0000000
 NQMom=    0.0000000   0.0000000   0.0000000   0.0000000   0.0000000   0.0000000   0.0000000   2.0440000   0.0000000   0.0000000
 NMagM=    2.7928460   0.0000000   2.7928460   2.7928460   2.7928460   0.0000000   0.0000000   0.4037610   2.7928460   0.0000000
 AtZNuc=   1.0000000   6.0000000   1.0000000   1.0000000   1.0000000   6.0000000   6.0000000   7.0000000   1.0000000   6.0000000

  Atom        51          52          53          54          55          56          57          58          59          60
 IAtWgt=          14           1          12           1          12          12           1          12          12           1
 AtmWgt=  14.0030740   1.0078250  12.0000000   1.0078250  12.0000000  12.0000000   1.0078250  12.0000000  12.0000000   1.0078250
 NucSpn=           2           1           0           1           0           0           1           0           0           1
 AtZEff=  -0.0000000  -0.0000000  -0.0000000  -0.0000000  -0.0000000  -0.0000000  -0.0000000  -0.0000000  -0.0000000  -0.0000000
 NQMom=    2.0440000   0.0000000   0.0000000   0.0000000   0.0000000   0.0000000   0.0000000   0.0000000   0.0000000   0.0000000
 NMagM=    0.4037610   2.7928460   0.0000000   2.7928460   0.0000000   0.0000000   2.7928460   0.0000000   0.0000000   2.7928460
 AtZNuc=   7.0000000   1.0000000   6.0000000   1.0000000   6.0000000   6.0000000   1.0000000   6.0000000   6.0000000   1.0000000

  Atom        61          62          63          64          65          66          67          68          69          70
 IAtWgt=           1           1           1           1           1           1           1           1           1           1
 AtmWgt=   1.0078250   1.0078250   1.0078250   1.0078250   1.0078250   1.0078250   1.0078250   1.0078250   1.0078250   1.0078250
 NucSpn=           1           1           1           1           1           1           1           1           1           1
 AtZEff=  -0.0000000  -0.0000000  -0.0000000  -0.0000000  -0.0000000  -0.0000000  -0.0000000  -0.0000000  -0.0000000  -0.0000000
 NQMom=    0.0000000   0.0000000   0.0000000   0.0000000   0.0000000   0.0000000   0.0000000   0.0000000   0.0000000   0.0000000
 NMagM=    2.7928460   2.7928460   2.7928460   2.7928460   2.7928460   2.7928460   2.7928460   2.7928460   2.7928460   2.7928460
 AtZNuc=   1.0000000   1.0000000   1.0000000   1.0000000   1.0000000   1.0000000   1.0000000   1.0000000   1.0000000   1.0000000

  Atom        71          72          73          74          75          76          77          78          79          80
 IAtWgt=           1          12          12          14           1          12          14           1          12           1
 AtmWgt=   1.0078250  12.0000000  12.0000000  14.0030740   1.0078250  12.0000000  14.0030740   1.0078250  12.0000000   1.0078250
 NucSpn=           1           0           0           2           1           0           2           1           0           1
 AtZEff=  -0.0000000  -0.0000000  -0.0000000  -0.0000000  -0.0000000  -0.0000000  -0.0000000  -0.0000000  -0.0000000  -0.0000000
 NQMom=    0.0000000   0.0000000   0.0000000   2.0440000   0.0000000   0.0000000   2.0440000   0.0000000   0.0000000   0.0000000
 NMagM=    2.7928460   0.0000000   0.0000000   0.4037610   2.7928460   0.0000000   0.4037610   2.7928460   0.0000000   2.7928460
 AtZNuc=   1.0000000   6.0000000   6.0000000   7.0000000   1.0000000   6.0000000   7.0000000   1.0000000   6.0000000   1.0000000

  Atom        81          82          83          84          85          86          87          88          89          90
 IAtWgt=          12          12           1          12          12           1           1           1           1           1
 AtmWgt=  12.0000000  12.0000000   1.0078250  12.0000000  12.0000000   1.0078250   1.0078250   1.0078250   1.0078250   1.0078250
 NucSpn=           0           0           1           0           0           1           1           1           1           1
 AtZEff=  -0.0000000  -0.0000000  -0.0000000  -0.0000000  -0.0000000  -0.0000000  -0.0000000  -0.0000000  -0.0000000  -0.0000000
 NQMom=    0.0000000   0.0000000   0.0000000   0.0000000   0.0000000   0.0000000   0.0000000   0.0000000   0.0000000   0.0000000
 NMagM=    0.0000000   0.0000000   2.7928460   0.0000000   0.0000000   2.7928460   2.7928460   2.7928460   2.7928460   2.7928460
 AtZNuc=   6.0000000   6.0000000   1.0000000   6.0000000   6.0000000   1.0000000   1.0000000   1.0000000   1.0000000   1.0000000

  Atom        91          92          93          94          95          96          97          98          99         100
 IAtWgt=           1           1           1           1           1           1           1          12          12          14
 AtmWgt=   1.0078250   1.0078250   1.0078250   1.0078250   1.0078250   1.0078250   1.0078250  12.0000000  12.0000000  14.0030740
 NucSpn=           1           1           1           1           1           1           1           0           0           2
 AtZEff=  -0.0000000  -0.0000000  -0.0000000  -0.0000000  -0.0000000  -0.0000000  -0.0000000  -0.0000000  -0.0000000  -0.0000000
 NQMom=    0.0000000   0.0000000   0.0000000   0.0000000   0.0000000   0.0000000   0.0000000   0.0000000   0.0000000   2.0440000
 NMagM=    2.7928460   2.7928460   2.7928460   2.7928460   2.7928460   2.7928460   2.7928460   0.0000000   0.0000000   0.4037610
 AtZNuc=   1.0000000   1.0000000   1.0000000   1.0000000   1.0000000   1.0000000   1.0000000   6.0000000   6.0000000   7.0000000

  Atom       101         102         103         104         105         106         107         108         109         110
 IAtWgt=           1          12          14           1          12           1          12          12           1          12
 AtmWgt=   1.0078250  12.0000000  14.0030740   1.0078250  12.0000000   1.0078250  12.0000000  12.0000000   1.0078250  12.0000000
 NucSpn=           1           0           2           1           0           1           0           0           1           0
 AtZEff=  -0.0000000  -0.0000000  -0.0000000  -0.0000000  -0.0000000  -0.0000000  -0.0000000  -0.0000000  -0.0000000  -0.0000000
 NQMom=    0.0000000   0.0000000   2.0440000   0.0000000   0.0000000   0.0000000   0.0000000   0.0000000   0.0000000   0.0000000
 NMagM=    2.7928460   0.0000000   0.4037610   2.7928460   0.0000000   2.7928460   0.0000000   0.0000000   2.7928460   0.0000000
 AtZNuc=   1.0000000   6.0000000   7.0000000   1.0000000   6.0000000   1.0000000   6.0000000   6.0000000   1.0000000   6.0000000

  Atom       111         112         113         114         115         116         117         118         119         120
 IAtWgt=          12           1           1           1           1           1           1           1           1           1
 AtmWgt=  12.0000000   1.0078250   1.0078250   1.0078250   1.0078250   1.0078250   1.0078250   1.0078250   1.0078250   1.0078250
 NucSpn=           0           1           1           1           1           1           1           1           1           1
 AtZEff=  -0.0000000  -0.0000000  -0.0000000  -0.0000000  -0.0000000  -0.0000000  -0.0000000  -0.0000000  -0.0000000  -0.0000000
 NQMom=    0.0000000   0.0000000   0.0000000   0.0000000   0.0000000   0.0000000   0.0000000   0.0000000   0.0000000   0.0000000
 NMagM=    0.0000000   2.7928460   2.7928460   2.7928460   2.7928460   2.7928460   2.7928460   2.7928460   2.7928460   2.7928460
 AtZNuc=   6.0000000   1.0000000   1.0000000   1.0000000   1.0000000   1.0000000   1.0000000   1.0000000   1.0000000   1.0000000

  Atom       121         122         123         124         125         126         127         128         129         130
 IAtWgt=           1           1           1          12          12          14           1          12          14           1
 AtmWgt=   1.0078250   1.0078250   1.0078250  12.0000000  12.0000000  14.0030740   1.0078250  12.0000000  14.0030740   1.0078250
 NucSpn=           1           1           1           0           0           2           1           0           2           1
 AtZEff=  -0.0000000  -0.0000000  -0.0000000  -0.0000000  -0.0000000  -0.0000000  -0.0000000  -0.0000000  -0.0000000  -0.0000000
 NQMom=    0.0000000   0.0000000   0.0000000   0.0000000   0.0000000   2.0440000   0.0000000   0.0000000   2.0440000   0.0000000
 NMagM=    2.7928460   2.7928460   2.7928460   0.0000000   0.0000000   0.4037610   2.7928460   0.0000000   0.4037610   2.7928460
 AtZNuc=   1.0000000   1.0000000   1.0000000   6.0000000   6.0000000   7.0000000   1.0000000   6.0000000   7.0000000   1.0000000

  Atom       131         132         133         134         135         136         137         138         139         140
 IAtWgt=          12           1          12          12           1          12          12           1           1           1
 AtmWgt=  12.0000000   1.0078250  12.0000000  12.0000000   1.0078250  12.0000000  12.0000000   1.0078250   1.0078250   1.0078250
 NucSpn=           0           1           0           0           1           0           0           1           1           1
 AtZEff=  -0.0000000  -0.0000000  -0.0000000  -0.0000000  -0.0000000  -0.0000000  -0.0000000  -0.0000000  -0.0000000  -0.0000000
 NQMom=    0.0000000   0.0000000   0.0000000   0.0000000   0.0000000   0.0000000   0.0000000   0.0000000   0.0000000   0.0000000
 NMagM=    0.0000000   2.7928460   0.0000000   0.0000000   2.7928460   0.0000000   0.0000000   2.7928460   2.7928460   2.7928460
 AtZNuc=   6.0000000   1.0000000   6.0000000   6.0000000   1.0000000   6.0000000   6.0000000   1.0000000   1.0000000   1.0000000

  Atom       141         142         143         144         145         146         147         148         149         150
 IAtWgt=           1           1           1           1           1           1           1           1           1          12
 AtmWgt=   1.0078250   1.0078250   1.0078250   1.0078250   1.0078250   1.0078250   1.0078250   1.0078250   1.0078250  12.0000000
 NucSpn=           1           1           1           1           1           1           1           1           1           0
 AtZEff=  -0.0000000  -0.0000000  -0.0000000  -0.0000000  -0.0000000  -0.0000000  -0.0000000  -0.0000000  -0.0000000  -0.0000000
 NQMom=    0.0000000   0.0000000   0.0000000   0.0000000   0.0000000   0.0000000   0.0000000   0.0000000   0.0000000   0.0000000
 NMagM=    2.7928460   2.7928460   2.7928460   2.7928460   2.7928460   2.7928460   2.7928460   2.7928460   2.7928460   0.0000000
 AtZNuc=   1.0000000   1.0000000   1.0000000   1.0000000   1.0000000   1.0000000   1.0000000   1.0000000   1.0000000   6.0000000

  Atom       151         152         153         154         155         156         157         158         159         160
 IAtWgt=          12          14           1          12          14           1          12           1          12          12
 AtmWgt=  12.0000000  14.0030740   1.0078250  12.0000000  14.0030740   1.0078250  12.0000000   1.0078250  12.0000000  12.0000000
 NucSpn=           0           2           1           0           2           1           0           1           0           0
 AtZEff=  -0.0000000  -0.0000000  -0.0000000  -0.0000000  -0.0000000  -0.0000000  -0.0000000  -0.0000000  -0.0000000  -0.0000000
 NQMom=    0.0000000   2.0440000   0.0000000   0.0000000   2.0440000   0.0000000   0.0000000   0.0000000   0.0000000   0.0000000
 NMagM=    0.0000000   0.4037610   2.7928460   0.0000000   0.4037610   2.7928460   0.0000000   2.7928460   0.0000000   0.0000000
 AtZNuc=   6.0000000   7.0000000   1.0000000   6.0000000   7.0000000   1.0000000   6.0000000   1.0000000   6.0000000   6.0000000

  Atom       161         162         163         164         165         166         167         168         169         170
 IAtWgt=           1          12          12           1           1           1           1           1           1           1
 AtmWgt=   1.0078250  12.0000000  12.0000000   1.0078250   1.0078250   1.0078250   1.0078250   1.0078250   1.0078250   1.0078250
 NucSpn=           1           0           0           1           1           1           1           1           1           1
 AtZEff=  -0.0000000  -0.0000000  -0.0000000  -0.0000000  -0.0000000  -0.0000000  -0.0000000  -0.0000000  -0.0000000  -0.0000000
 NQMom=    0.0000000   0.0000000   0.0000000   0.0000000   0.0000000   0.0000000   0.0000000   0.0000000   0.0000000   0.0000000
 NMagM=    2.7928460   0.0000000   0.0000000   2.7928460   2.7928460   2.7928460   2.7928460   2.7928460   2.7928460   2.7928460
 AtZNuc=   1.0000000   6.0000000   6.0000000   1.0000000   1.0000000   1.0000000   1.0000000   1.0000000   1.0000000   1.0000000

  Atom       171         172         173         174         175         176         177         178         179         180
 IAtWgt=           1           1           1           1           1          12          12          14           1          12
 AtmWgt=   1.0078250   1.0078250   1.0078250   1.0078250   1.0078250  12.0000000  12.0000000  14.0030740   1.0078250  12.0000000
 NucSpn=           1           1           1           1           1           0           0           2           1           0
 AtZEff=  -0.0000000  -0.0000000  -0.0000000  -0.0000000  -0.0000000  -0.0000000  -0.0000000  -0.0000000  -0.0000000  -0.0000000
 NQMom=    0.0000000   0.0000000   0.0000000   0.0000000   0.0000000   0.0000000   0.0000000   2.0440000   0.0000000   0.0000000
 NMagM=    2.7928460   2.7928460   2.7928460   2.7928460   2.7928460   0.0000000   0.0000000   0.4037610   2.7928460   0.0000000
 AtZNuc=   1.0000000   1.0000000   1.0000000   1.0000000   1.0000000   6.0000000   6.0000000   7.0000000   1.0000000   6.0000000

  Atom       181         182         183         184         185         186         187         188         189         190
 IAtWgt=          14           1          12           1          12          12           1          12          12           1
 AtmWgt=  14.0030740   1.0078250  12.0000000   1.0078250  12.0000000  12.0000000   1.0078250  12.0000000  12.0000000   1.0078250
 NucSpn=           2           1           0           1           0           0           1           0           0           1
 AtZEff=  -0.0000000  -0.0000000  -0.0000000  -0.0000000  -0.0000000  -0.0000000  -0.0000000  -0.0000000  -0.0000000  -0.0000000
 NQMom=    2.0440000   0.0000000   0.0000000   0.0000000   0.0000000   0.0000000   0.0000000   0.0000000   0.0000000   0.0000000
 NMagM=    0.4037610   2.7928460   0.0000000   2.7928460   0.0000000   0.0000000   2.7928460   0.0000000   0.0000000   2.7928460
 AtZNuc=   7.0000000   1.0000000   6.0000000   1.0000000   6.0000000   6.0000000   1.0000000   6.0000000   6.0000000   1.0000000

  Atom       191         192         193         194         195         196         197         198         199         200
 IAtWgt=           1           1           1           1           1           1           1           1           1           1
 AtmWgt=   1.0078250   1.0078250   1.0078250   1.0078250   1.0078250   1.0078250   1.0078250   1.0078250   1.0078250   1.0078250
 NucSpn=           1           1           1           1           1           1           1           1           1           1
 AtZEff=  -0.0000000  -0.0000000  -0.0000000  -0.0000000  -0.0000000  -0.0000000  -0.0000000  -0.0000000  -0.0000000  -0.0000000
 NQMom=    0.0000000   0.0000000   0.0000000   0.0000000   0.0000000   0.0000000   0.0000000   0.0000000   0.0000000   0.0000000
 NMagM=    2.7928460   2.7928460   2.7928460   2.7928460   2.7928460   2.7928460   2.7928460   2.7928460   2.7928460   2.7928460
 AtZNuc=   1.0000000   1.0000000   1.0000000   1.0000000   1.0000000   1.0000000   1.0000000   1.0000000   1.0000000   1.0000000

  Atom       201         202         203         204         205         206         207
 IAtWgt=           1           1           1           1           1           1           1
 AtmWgt=   1.0078250   1.0078250   1.0078250   1.0078250   1.0078250   1.0078250   1.0078250
 NucSpn=           1           1           1           1           1           1           1
 AtZEff=  -0.0000000  -0.0000000  -0.0000000  -0.0000000  -0.0000000  -0.0000000  -0.0000000
 NQMom=    0.0000000   0.0000000   0.0000000   0.0000000   0.0000000   0.0000000   0.0000000
 NMagM=    2.7928460   2.7928460   2.7928460   2.7928460   2.7928460   2.7928460   2.7928460
 AtZNuc=   1.0000000   1.0000000   1.0000000   1.0000000   1.0000000   1.0000000   1.0000000
 Leave Link  101 at Mon Oct 18 05:38:56 2021, MaxMem=  7864320000 cpu:               3.2 elap:               0.1
 (Enter /apps/gaussian/g16-c01-avx/g16/l202.exe)
 Stoichiometry    C75H120N12
 Framework group  C1[X(C75H120N12)]
 Deg. of freedom   615
 Full point group                 C1      NOp   1
 Largest Abelian subgroup         C1      NOp   1
 Largest concise Abelian subgroup C1      NOp   1
                         Standard orientation:                         
 ---------------------------------------------------------------------
 Center     Atomic      Atomic             Coordinates (Angstroms)
 Number     Number       Type             X           Y           Z
 ---------------------------------------------------------------------
      1          6           0        1.624795    2.820995    0.065714
      2          6           0        1.137824    3.543453   -1.102009
      3          6           0        0.985143    2.956776    1.294328
      4          6           0        1.445092    2.271455    2.414724
      5          1           0        0.121419    3.595443    1.377566
      6          6           0        2.572668    1.464782    2.305918
      7          6           0        3.241007    1.339404    1.089673
      8          1           0        2.962302    0.933440    3.160801
      9          6           0        2.748531    2.003121   -0.030679
     10          6           0        4.447688    0.532522    0.987042
     11          1           0        3.248497    1.887803   -0.982530
     12          6           0        0.741070    2.392277    3.684973
     13          1           0        4.833130    0.377223   -0.032205
     14          1           0        1.732318    3.429694   -2.021346
     15          1           0        0.933751    1.594297    4.419572
     16          6           0       -3.476620   -0.014611   -0.098053
     17          6           0       -3.866383    0.083432   -1.497240
     18          6           0       -3.359358   -1.260539    0.509415
     19          6           0       -2.961379   -1.370493    1.838110
     20          1           0       -3.569078   -2.153112   -0.056441
     21          6           0       -2.706784   -0.216560    2.571009
     22          6           0       -2.847619    1.040600    1.985819
     23          1           0       -2.408435   -0.268669    3.606942
     24          6           0       -3.213276    1.133680    0.645682
     25          6           0       -2.629819    2.249848    2.766361
     26          1           0       -3.303611    2.106383    0.181880
     27          6           0       -2.790681   -2.689602    2.432895
     28          1           0       -2.610220    3.191172    2.195750
     29          1           0       -3.931645    1.101681   -1.910066
     30          1           0       -2.187020   -2.731823    3.353135
     31          6           0        1.511761   -2.218565   -1.767748
     32          6           0        1.694540   -1.594818   -3.070604
     33          6           0        2.529811   -2.159948   -0.821089
     34          6           0        2.388727   -2.777947    0.417185
     35          1           0        3.440834   -1.631878   -1.047340
     36          6           0        1.217406   -3.468720    0.704860
     37          6           0        0.195561   -3.555406   -0.239374
     38          1           0        1.082495   -3.968616    1.651777
     39          6           0        0.344121   -2.917725   -1.468257
     40          6           0       -1.004802   -4.328523    0.044562
     41          1           0       -0.449179   -2.974761   -2.200720
     42          6           0        3.466100   -2.686935    1.394274
     43          1           0       -1.814399   -4.248875   -0.697287
     44          1           0        0.918469   -1.806295   -3.822763
     45          1           0        3.187640   -2.871445    2.443752
     46          6           0       -0.007192    6.498539   -1.879399
     47          6           0       -0.335520    5.014095   -2.181957
     48          7           0        1.446014    6.627486   -1.914586
     49          1           0       -0.415496    6.719364   -0.876987
     50          6           0       -0.629057    7.494198   -2.877779
     51          7           0        0.104209    4.263019   -1.045802
     52          1           0        0.227819    4.737923   -3.091015
     53          6           0       -1.830986    4.712933   -2.402839
     54          1           0       -1.713785    7.354282   -2.861791
     55          6           0       -0.110354    7.269288   -4.295434
     56          6           0       -0.354316    8.935899   -2.443984
     57          1           0       -2.190967    5.328627   -3.231960
     58          6           0       -2.654815    5.013595   -1.153451
     59          6           0       -1.998318    3.247914   -2.805303
     60          1           0        0.693573    9.190307   -2.581750
     61          1           0       -0.618473    9.083634   -1.398272
     62          1           0       -0.946895    9.622517   -3.044564
     63          1           0       -0.452774    8.066558   -4.951168
     64          1           0       -0.462880    6.322720   -4.696310
     65          1           0        0.975857    7.259456   -4.286270
     66          1           0       -1.647319    2.591508   -2.011376
     67          1           0       -1.431404    3.027093   -3.707221
     68          1           0       -3.046945    3.033781   -3.003466
     69          1           0       -2.224736    4.492482   -0.302532
     70          1           0       -3.683481    4.685499   -1.292989
     71          1           0       -2.665375    6.078697   -0.938085
     72          6           0       -5.827674   -1.599131   -3.775164
     73          6           0       -4.471183   -0.854002   -3.558823
     74          7           0       -6.129411   -2.596195   -2.763716
     75          1           0       -5.763092   -2.138966   -4.728743
     76          6           0       -7.035700   -0.644911   -3.888925
     77          7           0       -4.108444   -0.945409   -2.182176
     78          1           0       -4.580195    0.197503   -3.880155
     79          6           0       -3.335395   -1.462500   -4.415568
     80          1           0       -7.915339   -1.296166   -3.845375
     81          6           0       -7.046842    0.084473   -5.230812
     82          6           0       -7.138504    0.356990   -2.740103
     83          1           0       -3.677746   -1.449270   -5.457071
     84          6           0       -3.014479   -2.899987   -4.014858
     85          6           0       -2.081657   -0.595062   -4.311512
     86          1           0       -7.074440   -0.141725   -1.776142
     87          1           0       -8.093438    0.875846   -2.789755
     88          1           0       -6.349205    1.102903   -2.794558
     89          1           0       -6.174973    0.726725   -5.336343
     90          1           0       -7.936113    0.705503   -5.311913
     91          1           0       -7.049173   -0.626097   -6.054203
     92          1           0       -1.701921   -0.590757   -3.291099
     93          1           0       -2.295442    0.432314   -4.599790
     94          1           0       -1.305131   -0.979415   -4.969858
     95          1           0       -2.141956   -3.254608   -4.561438
     96          1           0       -3.843765   -3.565151   -4.242019
     97          1           0       -2.806261   -2.945088   -2.948378
     98          6           0        4.398055   -0.621709   -5.027597
     99          6           0        2.924694   -0.326923   -4.613279
    100          7           0        5.366820   -0.035825   -4.120917
    101          1           0        4.543727   -0.165593   -6.013354
    102          6           0        4.736778   -2.122943   -5.204926
    103          7           0        2.708954   -0.886805   -3.318421
    104          1           0        2.242257   -0.751349   -5.370729
    105          6           0        2.635557    1.193811   -4.537308
    106          1           0        5.686582   -2.132163   -5.752176
    107          6           0        3.698549   -2.854407   -6.053354
    108          6           0        4.972309   -2.867649   -3.892010
    109          1           0        3.223510    1.610347   -3.711720
    110          6           0        1.156424    1.422626   -4.229564
    111          6           0        2.994568    1.923614   -5.830552
    112          1           0        5.192758   -3.912021   -4.103955
    113          1           0        4.099427   -2.823666   -3.248262
    114          1           0        5.820596   -2.441950   -3.364445
    115          1           0        4.081646   -3.829778   -6.345096
    116          1           0        3.469266   -2.294400   -6.957956
    117          1           0        2.780378   -3.011142   -5.492184
    118          1           0        2.513132    1.445832   -6.681602
    119          1           0        4.066989    1.944467   -6.005724
    120          1           0        2.647116    2.953608   -5.776398
    121          1           0        0.535920    1.009096   -5.022438
    122          1           0        0.951539    2.488688   -4.158842
    123          1           0        0.871522    0.958013   -3.287741
    124          6           0       -0.768530    3.414790    5.145450
    125          6           0       -2.264526    3.436870    4.737692
    126          7           0       -0.039487    3.352476    3.915439
    127          1           0       -0.591496    2.512856    5.757313
    128          6           0       -0.317991    4.651102    5.949397
    129          7           0       -2.500450    2.219602    4.019529
    130          1           0       -2.409316    4.312435    4.081400
    131          6           0       -3.248439    3.525660    5.918531
    132          1           0       -0.922717    4.699111    6.860338
    133          6           0       -0.491160    5.944346    5.158169
    134          6           0        1.144251    4.479207    6.361607
    135          1           0       -3.047981    4.454842    6.461134
    136          6           0       -3.107328    2.342224    6.871056
    137          6           0       -4.674986    3.592286    5.372457
    138          1           0        1.783765    4.450011    5.482104
    139          1           0        1.282734    3.555729    6.920714
    140          1           0        1.457973    5.309699    6.990033
    141          1           0       -1.542378    6.175196    5.007298
    142          1           0       -0.010432    5.847048    4.188604
    143          1           0       -0.036078    6.773126    5.696224
    144          1           0       -4.913119    2.675114    4.838393
    145          1           0       -4.787359    4.429939    4.686775
    146          1           0       -5.386287    3.716376    6.185850
    147          1           0       -3.906469    2.359985    7.608917
    148          1           0       -2.157785    2.372601    7.399032
    149          1           0       -3.168113    1.414408    6.309230
    150          6           0        6.175281   -0.777994    1.829768
    151          6           0        5.675894   -2.236884    2.011666
    152          7           0        5.024962    0.059307    2.002909
    153          1           0        6.564944   -0.696718    0.800747
    154          6           0        7.273279   -0.350267    2.818973
    155          7           0        4.640628   -2.406621    1.039700
    156          1           0        5.278850   -2.340599    3.036596
    157          6           0        6.768226   -3.302805    1.793436
    158          1           0        8.134545   -1.011569    2.681356
    159          6           0        6.801918   -0.427837    4.268136
    160          6           0        7.709128    1.076742    2.485248
    161          1           0        7.577979   -3.106319    2.503270
    162          6           0        7.322515   -3.275031    0.371703
    163          6           0        6.190207   -4.683734    2.103715
    164          1           0        6.874536    1.761180    2.619951
    165          1           0        8.049023    1.145160    1.453700
    166          1           0        8.523164    1.386868    3.136479
    167          1           0        5.863596    0.109294    4.374098
    168          1           0        7.542024    0.022825    4.925762
    169          1           0        6.655299   -1.458724    4.580019
    170          1           0        6.964111   -5.443230    2.019524
    171          1           0        5.392626   -4.923918    1.403828
    172          1           0        5.786324   -4.716996    3.113849
    173          1           0        6.504780   -3.326609   -0.342072
    174          1           0        7.981889   -4.125728    0.213958
    175          1           0        7.892263   -2.368086    0.188331
    176          6           0       -3.044811   -5.013338    2.443501
    177          6           0       -2.307637   -5.785067    1.316346
    178          7           0       -3.297949   -3.713334    1.904189
    179          1           0       -2.372461   -4.957676    3.317847
    180          6           0       -4.374971   -5.657914    2.880897
    181          7           0       -1.095591   -5.063949    1.064097
    182          1           0       -2.965500   -5.768371    0.430490
    183          6           0       -1.963257   -7.245122    1.661049
    184          1           0       -4.157002   -6.664992    3.249947
    185          6           0       -5.375924   -5.744606    1.732381
    186          6           0       -4.968279   -4.849137    4.034788
    187          1           0       -2.897614   -7.779210    1.859914
    188          6           0       -1.052858   -7.344925    2.881292
    189          6           0       -1.291750   -7.895011    0.450886
    190          1           0       -5.872224   -5.327856    4.404173
    191          1           0       -5.220175   -3.845014    3.700439
    192          1           0       -4.260321   -4.772144    4.857952
    193          1           0       -6.343384   -6.072385    2.106531
    194          1           0       -5.047886   -6.453410    0.976743
    195          1           0       -5.490495   -4.767726    1.270950
    196          1           0       -0.351531   -7.393500    0.232423
    197          1           0       -1.930918   -7.828134   -0.427390
    198          1           0       -1.088889   -8.945057    0.648925
    199          1           0       -1.572283   -7.040120    3.786034
    200          1           0       -0.185863   -6.705751    2.741013
    201          1           0       -0.716253   -8.370991    3.012577
    202          1           0        5.120748   -0.303318   -3.173830
    203          1           0        5.338448    0.975975   -4.174070
    204          1           0        1.719018    7.547137   -1.587877
    205          1           0        1.866112    5.949154   -1.287359
    206          1           0       -6.214426   -2.148564   -1.856768
    207          1           0       -5.361841   -3.252842   -2.685206
 ---------------------------------------------------------------------
 Rotational constants (GHZ):           0.0174716           0.0170440           0.0154175
 Leave Link  202 at Mon Oct 18 05:38:56 2021, MaxMem=  7864320000 cpu:               0.2 elap:               0.0
 (Enter /apps/gaussian/g16-c01-avx/g16/l301.exe)
 Standard basis: def2TZVP (5D, 7F)
 Ernie: Thresh=  0.10000D-02 Tol=  0.10000D-05 Strict=F.
 There are  3852 symmetry adapted cartesian basis functions of A   symmetry.
 There are  3417 symmetry adapted basis functions of A   symmetry.
  3417 basis functions,  5397 primitive gaussians,  3852 cartesian basis functions
   327 alpha electrons      327 beta electrons
       nuclear repulsion energy     17246.3393847554 Hartrees.
 IExCor= 1009 DFT=T Ex+Corr=PBE1PBE ExCW=0 ScaHFX=  0.250000
 ScaDFX=  0.750000  0.750000  1.000000  1.000000 ScalE2=  1.000000  1.000000
 IRadAn=      7 IRanWt=     -1 IRanGd=            0 ICorTp=0 IEmpDi=131
 NAtoms=  207 NActive=  207 NUniq=  207 SFac= 1.00D+00 NAtFMM=   60 NAOKFM=T Big=T
 Integral buffers will be    131072 words long.
 Raffenetti 2 integral format.
 Two-electron integral symmetry is turned on.
 R6Disp:  Grimme-D3 Dispersion energy=       -0.1938678801 Hartrees.
 Nuclear repulsion after empirical dispersion term =    17246.1455168754 Hartrees.
 Leave Link  301 at Mon Oct 18 05:38:56 2021, MaxMem=  7864320000 cpu:               1.4 elap:               0.1
 (Enter /apps/gaussian/g16-c01-avx/g16/l302.exe)
 NPDir=0 NMtPBC=     1 NCelOv=     1 NCel=       1 NClECP=     1 NCelD=      1
         NCelK=      1 NCelE2=     1 NClLst=     1 CellRange=     0.0.
 One-electron integrals computed using PRISM.
 One-electron integral symmetry used in STVInt
   1 Symmetry operations used in ECPInt.
 ECPInt:  NShTT= 1033203 NPrTT= 3029304 LenC2=  600120 LenP2D= 1095391.
 LDataN:  DoStor=T MaxTD1= 6 Len=  172
 Number of processors reduced to  21 by ecpmxn.
 NBasis=  3417 RedAO= T EigKep=  3.49D-06  NBF=  3417
 NBsUse=  3417 1.00D-06 EigRej= -1.00D+00 NBFU=  3417
 Precomputing XC quadrature grid using
 IXCGrd= 4 IRadAn=           7 IRanWt=          -1 IRanGd=           0 AccXCQ= 0.00D+00.
 Generated NRdTot=       0 NPtTot=           0 NUsed=           0 NTot=          32
 NSgBfM=  2935  2830  2870  2915  2935 MxSgAt=   207 MxSgA2=   207.
 Leave Link  302 at Mon Oct 18 05:39:35 2021, MaxMem=  7864320000 cpu:            1240.2 elap:              39.0
 (Enter /apps/gaussian/g16-c01-avx/g16/l303.exe)
 DipDrv:  MaxL=1.
 Leave Link  303 at Mon Oct 18 05:39:37 2021, MaxMem=  7864320000 cpu:              55.9 elap:               2.1
 (Enter /apps/gaussian/g16-c01-avx/g16/l401.exe)
 ExpMin= 9.52D-02 ExpMax= 1.97D+04 ExpMxC= 6.73D+02 IAcc=3 IRadAn=         7 AccDes= 0.00D+00
 Harris functional with IExCor= 1009 and IRadAn=       7 diagonalized for initial guess.
 HarFok:  IExCor= 1009 AccDes= 0.00D+00 IRadAn=         7 IDoV= 1 UseB2=F ITyADJ=14
 ICtDFT=  3500011 ScaDFX=  1.000000  1.000000  1.000000  1.000000
 FoFCou: FMM=F IPFlag=           0 FMFlag=      100000 FMFlg1=        2001
         NFxFlg=           0 DoJE=T BraDBF=F KetDBF=T FulRan=T
         wScrn=  0.000000 ICntrl=       500 IOpCl=  0 I1Cent=   200000004 NGrid=           0
         NMat0=    1 NMatS0=      1 NMatT0=    0 NMatD0=    1 NMtDS0=    0 NMtDT0=    0
 Petite list used in FoFCou.
 Harris En= -3585.82232629359    
 JPrj=0 DoOrth=F DoCkMO=F.
 Leave Link  401 at Mon Oct 18 05:41:13 2021, MaxMem=  7864320000 cpu:            3047.3 elap:              95.9
 (Enter /apps/gaussian/g16-c01-avx/g16/l508.exe)
 Integral symmetry usage will be decided dynamically.
 Tight linear equation convergence will be used.
 RPBE1PBE wavefunction.
 Linear searches until partial convergence.
 Full line searches.
 Fock matrices will be formed incrementally for  20 cycles.
 FoFJK:  IHMeth= 1 ICntrl=       0 DoSepK=F KAlg= 0 I1Cent=           0 FoldK=F
 IRaf= 520000000 NMat=       1 IRICut=       1 DoRegI=T DoRafI=F ISym2E= 1 IDoP0=0 IntGTp=1.
 FoFCou: FMM=T IPFlag=           0 FMFlag=      100000 FMFlg1=        2001
         NFxFlg=           0 DoJE=F BraDBF=F KetDBF=F FulRan=T
         wScrn=  0.000000 ICntrl=         0 IOpCl=  0 I1Cent=           0 NGrid=           0
         NMat0=    1 NMatS0=      1 NMatT0=    0 NMatD0=    1 NMtDS0=    0 NMtDT0=    0
 Petite list used in FoFCou.
 FMM levels:  10  Number of levels for PrismC:   9
 Iteration   1 EE= -3581.79578024994                                    Grad=2.334D+00 Max rot=    1.8621 deg.
 Gradient too large for Newton-Raphson -- use scaled steepest descent instead.
 Alpha Gap=     0.159 HL deriv= 6.50D-03
     ILin= 1 X=0.000D+00 Y=-3.581795780250D+03 DE= 0.00D+00 F= -1.14D+01
 RMSU=  3.64D-04    CP:  9.89D-01
     ILin= 2 X=3.000D-01 Y=-3.584013710662D+03 DE=-2.22D+00 F= -3.36D+00 OKLS=F
 RMSU=  5.99D-05    CP:  9.83D-01  1.71D+00
     ILin= 3 X=5.000D-01 Y=-3.584145326972D+03 DE=-2.35D+00 F=  2.05D+00
     Accept linear search using points  2 and  3.
     An  expanding polynomial of degree  3 produced  0.3951
 RMSU=  4.47D-08    CP:  9.86D-01  1.33D+00  3.76D-01
 Iteration   2 EE= -3584.21136002097     Delta-E=       -2.415579771034 Grad=6.618D-01 Max rot=    1.7223 deg.
 Gradient too large for Newton-Raphson -- use scaled steepest descent instead.
 Alpha Gap=     0.192 HL deriv= 7.05D-03
     ILin= 1 X=0.000D+00 Y=-3.584211360021D+03 DE= 0.00D+00 F= -4.02D-01
 RMSU=  7.36D-05    CP:  9.83D-01  1.49D+00  6.16D-01 -3.00D+00
     ILin= 2 X=3.000D-01 Y=-3.584302168938D+03 DE=-9.08D-02 F= -2.04D-01 OKLS=F
 RMSU=  5.97D-06    CP:  9.80D-01  1.65D+00  9.58D-01 -3.00D+00  2.00D+00
     ILin= 3 X=6.000D-01 Y=-3.584333707156D+03 DE=-1.22D-01 F= -6.60D-03
 RMSU=  5.06D-05    CP:  9.75D-01  1.93D+00  1.76D+00 -3.00D+00  3.00D+00
                    CP:  3.00D+00
     ILin= 4 X=1.100D+00 Y=-3.584255257708D+03 DE=-4.39D-02 F=  3.20D-01
     An  expanding polynomial of degree  4 produced  0.6101
     Minimum is close to point  3 DX=  1.01D-02 DF= -3.35D-05 DXR=  1.66D-02 DFR=  2.74D-04 which will be used.
 Iteration   3 EE= -3584.33370715582     Delta-E=       -0.122347134846 Grad=2.626D-01 Max rot=    0.7793 deg.
 Gradient too large for Newton-Raphson -- use scaled steepest descent instead.
 Alpha Gap=     0.176 HL deriv= 9.69D-03
     ILin= 1 X=0.000D+00 Y=-3.584333707156D+03 DE= 0.00D+00 F= -9.14D-02
 RMSU=  6.75D-05    CP:  9.79D-01  1.82D+00  1.42D+00 -3.00D+00  2.48D+00
                    CP:  1.61D+00 -3.41D-04
     ILin= 2 X=5.000D-01 Y=-3.584347742901D+03 DE=-1.40D-02 F=  3.54D-02 OKLS=T
     Accept linear search using points  1 and  2.
     An  expanding polynomial of degree  2 produced  0.2801
 RMSU=  5.42D-07    CP:  9.79D-01  1.74D+00  1.21D+00 -3.00D+00  2.27D+00
                    CP:  1.28D+00 -1.87D-04  5.60D-01
 Iteration   4 EE= -3584.34938102594     Delta-E=       -0.015673870123 Grad=1.552D-01 Max rot=    0.4328 deg.
 Gradient too large for Newton-Raphson -- use scaled steepest descent instead.
 Alpha Gap=     0.183 HL deriv= 1.58D-04
     ILin= 1 X=0.000D+00 Y=-3.584349381026D+03 DE= 0.00D+00 F= -1.34D-02
 RMSU=  2.06D-05    CP:  9.78D-01  1.83D+00  1.48D+00 -3.00D+00  2.75D+00
                    CP:  1.89D+00  3.12D-04  9.35D-01  1.60D+00
     ILin= 2 X=6.000D-01 Y=-3.584354718313D+03 DE=-5.34D-03 F= -4.40D-03 OKLS=F
 RMSU=  3.89D-06    CP:  9.76D-01  1.92D+00  1.80D+00 -3.00D+00  3.00D+00
                    CP:  2.78D+00  3.23D-01  1.31D+00  7.39D-01  2.01D+00
     ILin= 3 X=1.200D+00 Y=-3.584354659156D+03 DE=-5.28D-03 F=  4.60D-03
     An  expanding polynomial of degree  3 produced  0.8934
 RMSU=  3.91D-07    CP:  9.77D-01  1.87D+00  1.63D+00 -3.00D+00  2.98D+00
                    CP:  2.29D+00  5.57D-04  1.12D+00  1.36D+00  1.49D+00
                    CP:  3.02D-02
 Iteration   5 EE= -3584.35536356501     Delta-E=       -0.005982539067 Grad=2.488D-02 Max rot=    0.0356 deg.
 Gradient too large for Newton-Raphson -- use scaled steepest descent instead.
 Alpha Gap=     0.185 HL deriv= 4.87D-04
     ILin= 1 X=0.000D+00 Y=-3.584355363565D+03 DE= 0.00D+00 F= -1.10D-03
 RMSU=  1.11D-05    CP:  9.77D-01  1.89D+00  1.72D+00 -3.00D+00  3.00D+00
                    CP:  2.62D+00  7.75D-02  1.16D+00  6.10D-02  1.72D+00
                    CP:  1.98D-01 -1.65D+00
     ILin= 2 X=5.000D-01 Y=-3.584355618954D+03 DE=-2.55D-04 F=  7.44D-05 OKLS=T
     Accept linear search using points  1 and  2.
     An  expanding polynomial of degree  2 produced  0.3383
 RMSU=  1.39D-08    CP:  9.77D-01  1.89D+00  1.69D+00 -3.00D+00  3.00D+00
                    CP:  2.51D+00  4.46D-02  1.15D+00  4.90D-01  1.65D+00
                    CP:  1.20D-01 -7.34D-01  6.76D-01
 Iteration   6 EE= -3584.35560039091     Delta-E=       -0.000236825901 Grad=1.154D-02 Max rot=    0.0154 deg.
 Gradient too large for Newton-Raphson -- use scaled steepest descent instead.
 Alpha Gap=     0.184 HL deriv= 1.11D-05
     ILin= 1 X=0.000D+00 Y=-3.584355600391D+03 DE= 0.00D+00 F= -1.41D-04
 RMSU=  1.76D-06    CP:  9.77D-01  1.90D+00  1.75D+00 -3.00D+00  3.00D+00
                    CP:  2.68D+00  1.06D-01  1.19D+00 -4.57D-02  1.85D+00
                    CP:  2.81D-01 -1.87D+00  1.16D+00 -1.65D+00
     ILin= 2 X=5.000D-01 Y=-3.584355648617D+03 DE=-4.82D-05 F= -5.21D-05 OKLS=F
 RMSU=  1.03D-07    CP:  9.77D-01  1.92D+00  1.83D+00 -3.00D+00  3.00D+00
                    CP:  2.88D+00  1.81D-01  1.24D+00 -7.24D-01  2.10D+00
                    CP:  4.77D-01 -3.00D+00  1.75D+00 -3.00D+00  2.20D+00
     ILin= 3 X=1.100D+00 Y=-3.584355647931D+03 DE=-4.75D-05 F=  5.44D-05
     An  expanding polynomial of degree  3 produced  0.7936
 RMSU=  1.39D-08    CP:  9.77D-01  1.91D+00  1.79D+00 -3.00D+00  3.00D+00
                    CP:  2.78D+00  1.43D-01  1.21D+00 -3.73D-01  1.97D+00
                    CP:  3.77D-01 -2.51D+00  1.45D+00 -3.00D+00  1.59D+00
                    CP:  1.90D-01
 Iteration   7 EE= -3584.35565626340     Delta-E=       -0.000055872497 Grad=4.086D-03 Max rot=    0.0034 deg.
 SCF Done:  E(RPBE1PBE) =  -3584.35565626     a.u. after    7 cycles
            Convg  =    0.4086D-02                    17 Fock formations.
              S**2 =  0.0000                  -V/T =  2.0048
 Leave Link  508 at Mon Oct 18 08:11:29 2021, MaxMem=  7864320000 cpu:          285941.1 elap:            9015.3
 (Enter /apps/gaussian/g16-c01-avx/g16/l502.exe)
 Integral symmetry usage will be decided dynamically.
 Closed shell SCF:
 Using DIIS extrapolation, IDIIS=  1040.
 NGot=  7864320000 LenX=  7834481618 LenY=  7819639862
 Requested convergence on RMS density matrix=1.00D-08 within 128 cycles.
 Requested convergence on MAX density matrix=1.00D-06.
 Requested convergence on             energy=1.00D-06.
 No special actions if energy rises.
 Fock matrices will be formed incrementally for  20 cycles.

 Cycle   1  Pass 1  IDiag  1:
 FoFJK:  IHMeth= 1 ICntrl=       0 DoSepK=F KAlg= 0 I1Cent=           0 FoldK=F
 IRaf= 520000000 NMat=       1 IRICut=       1 DoRegI=T DoRafI=F ISym2E= 0 IDoP0=0 IntGTp=1.
 FoFCou: FMM=T IPFlag=           0 FMFlag=      100000 FMFlg1=        2001
         NFxFlg=           0 DoJE=F BraDBF=F KetDBF=F FulRan=T
         wScrn=  0.000000 ICntrl=         0 IOpCl=  0 I1Cent=           0 NGrid=           0
         NMat0=    1 NMatS0=      1 NMatT0=    0 NMatD0=    1 NMtDS0=    0 NMtDT0=    0
 Symmetry not used in FoFCou.
 FMM levels:  10  Number of levels for PrismC:   9
 E= -3584.35565626331    
 DIIS: error= 1.65D-05 at cycle   1 NSaved=   1.
 NSaved= 1 IEnMin= 1 EnMin= -3584.35565626331     IErMin= 1 ErrMin= 1.65D-05
 ErrMax= 1.65D-05  0.00D+00 EMaxC= 1.00D-01 BMatC= 8.35D-06 BMatP= 8.35D-06
 IDIUse=1 WtCom= 1.00D+00 WtEn= 0.00D+00
 Coeff-Com:  0.100D+01
 Coeff:      0.100D+01
 Gap=     0.184 Goal=   None    Shift=    0.000
 RMSDP=6.76D-06 MaxDP=1.41D-03              OVMax= 4.54D-04

 Cycle   2  Pass 1  IDiag  1:
 RMSU=  6.72D-06    CP:  1.00D+00
 E= -3584.35565942635     Delta-E=       -0.000003163041 Rises=F Damp=F
 DIIS: error= 1.85D-05 at cycle   2 NSaved=   2.
 NSaved= 2 IEnMin= 2 EnMin= -3584.35565942635     IErMin= 1 ErrMin= 1.65D-05
 ErrMax= 1.85D-05  0.00D+00 EMaxC= 1.00D-01 BMatC= 6.72D-06 BMatP= 8.35D-06
 IDIUse=1 WtCom= 1.00D+00 WtEn= 0.00D+00
 Coeff-Com:  0.468D+00 0.532D+00
 Coeff:      0.468D+00 0.532D+00
 Gap=     0.170 Goal=   None    Shift=    0.000
 RMSDP=2.11D-06 MaxDP=6.98D-04 DE=-3.16D-06 OVMax= 3.86D-04

 Cycle   3  Pass 1  IDiag  1:
 RMSU=  2.06D-06    CP:  1.00D+00  1.03D+00
 E= -3584.35566525127     Delta-E=       -0.000005824921 Rises=F Damp=F
 DIIS: error= 6.91D-06 at cycle   3 NSaved=   3.
 NSaved= 3 IEnMin= 3 EnMin= -3584.35566525127     IErMin= 3 ErrMin= 6.91D-06
 ErrMax= 6.91D-06  0.00D+00 EMaxC= 1.00D-01 BMatC= 8.78D-07 BMatP= 6.72D-06
 IDIUse=1 WtCom= 1.00D+00 WtEn= 0.00D+00
 Coeff-Com:  0.937D-01 0.272D+00 0.634D+00
 Coeff:      0.937D-01 0.272D+00 0.634D+00
 Gap=     0.170 Goal=   None    Shift=    0.000
 RMSDP=5.92D-07 MaxDP=2.98D-04 DE=-5.82D-06 OVMax= 2.20D-04

 Cycle   4  Pass 1  IDiag  1:
 RMSU=  4.24D-07    CP:  1.00D+00  1.08D+00  8.54D-01
 E= -3584.35566577757     Delta-E=       -0.000000526306 Rises=F Damp=F
 DIIS: error= 4.90D-06 at cycle   4 NSaved=   4.
 NSaved= 4 IEnMin= 4 EnMin= -3584.35566577757     IErMin= 4 ErrMin= 4.90D-06
 ErrMax= 4.90D-06  0.00D+00 EMaxC= 1.00D-01 BMatC= 3.14D-07 BMatP= 8.78D-07
 IDIUse=1 WtCom= 1.00D+00 WtEn= 0.00D+00
 Coeff-Com: -0.123D-01 0.102D+00 0.435D+00 0.475D+00
 Coeff:     -0.123D-01 0.102D+00 0.435D+00 0.475D+00
 Gap=     0.170 Goal=   None    Shift=    0.000
 RMSDP=2.44D-07 MaxDP=1.12D-04 DE=-5.26D-07 OVMax= 9.29D-05

 Cycle   5  Pass 1  IDiag  1:
 RMSU=  1.34D-07    CP:  1.00D+00  1.09D+00  8.63D-01  5.50D-01
 E= -3584.35566605785     Delta-E=       -0.000000280281 Rises=F Damp=F
 DIIS: error= 8.32D-07 at cycle   5 NSaved=   5.
 NSaved= 5 IEnMin= 5 EnMin= -3584.35566605785     IErMin= 5 ErrMin= 8.32D-07
 ErrMax= 8.32D-07  0.00D+00 EMaxC= 1.00D-01 BMatC= 1.31D-08 BMatP= 3.14D-07
 IDIUse=1 WtCom= 1.00D+00 WtEn= 0.00D+00
 Coeff-Com: -0.127D-01 0.420D-01 0.213D+00 0.272D+00 0.485D+00
 Coeff:     -0.127D-01 0.420D-01 0.213D+00 0.272D+00 0.485D+00
 Gap=     0.170 Goal=   None    Shift=    0.000
 RMSDP=8.23D-08 MaxDP=3.92D-05 DE=-2.80D-07 OVMax= 1.58D-05

 Cycle   6  Pass 1  IDiag  1:
 RMSU=  6.29D-08    CP:  1.00D+00  1.08D+00  8.53D-01  5.57D-01  6.72D-01
 E= -3584.35566606931     Delta-E=       -0.000000011460 Rises=F Damp=F
 DIIS: error= 2.23D-07 at cycle   6 NSaved=   6.
 NSaved= 6 IEnMin= 6 EnMin= -3584.35566606931     IErMin= 6 ErrMin= 2.23D-07
 ErrMax= 2.23D-07  0.00D+00 EMaxC= 1.00D-01 BMatC= 6.73D-10 BMatP= 1.31D-08
 IDIUse=1 WtCom= 1.00D+00 WtEn= 0.00D+00
 Coeff-Com: -0.504D-02 0.130D-01 0.729D-01 0.985D-01 0.243D+00 0.577D+00
 Coeff:     -0.504D-02 0.130D-01 0.729D-01 0.985D-01 0.243D+00 0.577D+00
 Gap=     0.170 Goal=   None    Shift=    0.000
 RMSDP=1.80D-08 MaxDP=8.65D-06 DE=-1.15D-08 OVMax= 5.34D-06

 Cycle   7  Pass 1  IDiag  1:
 RMSU=  1.38D-08    CP:  1.00D+00  1.08D+00  8.57D-01  5.65D-01  6.84D-01
                    CP:  9.04D-01
 E= -3584.35566607006     Delta-E=       -0.000000000742 Rises=F Damp=F
 DIIS: error= 1.18D-07 at cycle   7 NSaved=   7.
 NSaved= 7 IEnMin= 7 EnMin= -3584.35566607006     IErMin= 7 ErrMin= 1.18D-07
 ErrMax= 1.18D-07  0.00D+00 EMaxC= 1.00D-01 BMatC= 2.35D-10 BMatP= 6.73D-10
 IDIUse=1 WtCom= 1.00D+00 WtEn= 0.00D+00
 Coeff-Com: -0.601D-03-0.297D-03 0.373D-02 0.843D-02 0.636D-01 0.395D+00
 Coeff-Com:  0.530D+00
 Coeff:     -0.601D-03-0.297D-03 0.373D-02 0.843D-02 0.636D-01 0.395D+00
 Coeff:      0.530D+00
 Gap=     0.170 Goal=   None    Shift=    0.000
 RMSDP=8.02D-09 MaxDP=3.94D-06 DE=-7.42D-10 OVMax= 3.16D-06

 Cycle   8  Pass 1  IDiag  1:
 RMSU=  4.90D-09    CP:  1.00D+00  1.08D+00  8.57D-01  5.64D-01  6.92D-01
                    CP:  9.67D-01  6.62D-01
 E= -3584.35566607018     Delta-E=       -0.000000000127 Rises=F Damp=F
 DIIS: error= 2.43D-08 at cycle   8 NSaved=   8.
 NSaved= 8 IEnMin= 8 EnMin= -3584.35566607018     IErMin= 8 ErrMin= 2.43D-08
 ErrMax= 2.43D-08  0.00D+00 EMaxC= 1.00D-01 BMatC= 1.46D-11 BMatP= 2.35D-10
 IDIUse=1 WtCom= 1.00D+00 WtEn= 0.00D+00
 Coeff-Com:  0.128D-03-0.140D-02-0.493D-02-0.520D-02 0.923D-02 0.145D+00
 Coeff-Com:  0.280D+00 0.577D+00
 Coeff:      0.128D-03-0.140D-02-0.493D-02-0.520D-02 0.923D-02 0.145D+00
 Coeff:      0.280D+00 0.577D+00
 Gap=     0.170 Goal=   None    Shift=    0.000
 RMSDP=2.51D-09 MaxDP=7.69D-07 DE=-1.27D-10 OVMax= 6.99D-07

 SCF Done:  E(RPBE1PBE) =  -3584.35566607     A.U. after    8 cycles
            NFock=  8  Conv=0.25D-08     -V/T= 2.0048
 KE= 3.567182018475D+03 PE=-4.281403711006D+04 EE= 1.841635390864D+04
 Leave Link  502 at Mon Oct 18 09:16:58 2021, MaxMem=  7864320000 cpu:          124567.7 elap:            3929.0
 (Enter /apps/gaussian/g16-c01-avx/g16/l508.exe)
 QCSCF skips out because SCF is already converged.
 Leave Link  508 at Mon Oct 18 09:16:59 2021, MaxMem=  7864320000 cpu:               0.0 elap:               0.0
 (Enter /apps/gaussian/g16-c01-avx/g16/l601.exe)
 Copying SCF densities to generalized density rwf, IOpCl= 0 IROHF=0.
 Hyperfine terms turned off by default for NAtoms > 100.

 **********************************************************************

            Population analysis using the SCF Density.

 **********************************************************************

 Orbital symmetries:
       Occupied  (A) (A) (A) (A) (A) (A) (A) (A) (A) (A) (A) (A)
                 (A) (A) (A) (A) (A) (A) (A) (A) (A) (A) (A) (A)
                 (A) (A) (A) (A) (A) (A) (A) (A) (A) (A) (A) (A)
                 (A) (A) (A) (A) (A) (A) (A) (A) (A) (A) (A) (A)
                 (A) (A) (A) (A) (A) (A) (A) (A) (A) (A) (A) (A)
                 (A) (A) (A) (A) (A) (A) (A) (A) (A) (A) (A) (A)
                 (A) (A) (A) (A) (A) (A) (A) (A) (A) (A) (A) (A)
                 (A) (A) (A) (A) (A) (A) (A) (A) (A) (A) (A) (A)
                 (A) (A) (A) (A) (A) (A) (A) (A) (A) (A) (A) (A)
                 (A) (A) (A) (A) (A) (A) (A) (A) (A) (A) (A) (A)
                 (A) (A) (A) (A) (A) (A) (A) (A) (A) (A) (A) (A)
                 (A) (A) (A) (A) (A) (A) (A) (A) (A) (A) (A) (A)
                 (A) (A) (A) (A) (A) (A) (A) (A) (A) (A) (A) (A)
                 (A) (A) (A) (A) (A) (A) (A) (A) (A) (A) (A) (A)
                 (A) (A) (A) (A) (A) (A) (A) (A) (A) (A) (A) (A)
                 (A) (A) (A) (A) (A) (A) (A) (A) (A) (A) (A) (A)
                 (A) (A) (A) (A) (A) (A) (A) (A) (A) (A) (A) (A)
                 (A) (A) (A) (A) (A) (A) (A) (A) (A) (A) (A) (A)
                 (A) (A) (A) (A) (A) (A) (A) (A) (A) (A) (A) (A)
                 (A) (A) (A) (A) (A) (A) (A) (A) (A) (A) (A) (A)
                 (A) (A) (A) (A) (A) (A) (A) (A) (A) (A) (A) (A)
                 (A) (A) (A) (A) (A) (A) (A) (A) (A) (A) (A) (A)
                 (A) (A) (A) (A) (A) (A) (A) (A) (A) (A) (A) (A)
                 (A) (A) (A) (A) (A) (A) (A) (A) (A) (A) (A) (A)
                 (A) (A) (A) (A) (A) (A) (A) (A) (A) (A) (A) (A)
                 (A) (A) (A) (A) (A) (A) (A) (A) (A) (A) (A) (A)
                 (A) (A) (A) (A) (A) (A) (A) (A) (A) (A) (A) (A)
                 (A) (A) (A)
       Virtual   (A) (A) (A) (A) (A) (A) (A) (A) (A) (A) (A) (A)
                 (A) (A) (A) (A) (A) (A) (A) (A) (A) (A) (A) (A)
                 (A) (A) (A) (A) (A) (A) (A) (A) (A) (A) (A) (A)
                 (A) (A) (A) (A) (A) (A) (A) (A) (A) (A) (A) (A)
                 (A) (A) (A) (A) (A) (A) (A) (A) (A) (A) (A) (A)
                 (A) (A) (A) (A) (A) (A) (A) (A) (A) (A) (A) (A)
                 (A) (A) (A) (A) (A) (A) (A) (A) (A) (A) (A) (A)
                 (A) (A) (A) (A) (A) (A) (A) (A) (A) (A) (A) (A)
                 (A) (A) (A) (A) (A) (A) (A) (A) (A) (A) (A) (A)
                 (A) (A) (A) (A) (A) (A) (A) (A) (A) (A) (A) (A)
                 (A) (A) (A) (A) (A) (A) (A) (A) (A) (A) (A) (A)
                 (A) (A) (A) (A) (A) (A) (A) (A) (A) (A) (A) (A)
                 (A) (A) (A) (A) (A) (A) (A) (A) (A) (A) (A) (A)
                 (A) (A) (A) (A) (A) (A) (A) (A) (A) (A) (A) (A)
                 (A) (A) (A) (A) (A) (A) (A) (A) (A) (A) (A) (A)
                 (A) (A) (A) (A) (A) (A) (A) (A) (A) (A) (A) (A)
                 (A) (A) (A) (A) (A) (A) (A) (A) (A) (A) (A) (A)
                 (A) (A) (A) (A) (A) (A) (A) (A) (A) (A) (A) (A)
                 (A) (A) (A) (A) (A) (A) (A) (A) (A) (A) (A) (A)
                 (A) (A) (A) (A) (A) (A) (A) (A) (A) (A) (A) (A)
                 (A) (A) (A) (A) (A) (A) (A) (A) (A) (A) (A) (A)
                 (A) (A) (A) (A) (A) (A) (A) (A) (A) (A) (A) (A)
                 (A) (A) (A) (A) (A) (A) (A) (A) (A) (A) (A) (A)
                 (A) (A) (A) (A) (A) (A) (A) (A) (A) (A) (A) (A)
                 (A) (A) (A) (A) (A) (A) (A) (A) (A) (A) (A) (A)
                 (A) (A) (A) (A) (A) (A) (A) (A) (A) (A) (A) (A)
                 (A) (A) (A) (A) (A) (A) (A) (A) (A) (A) (A) (A)
                 (A) (A) (A) (A) (A) (A) (A) (A) (A) (A) (A) (A)
                 (A) (A) (A) (A) (A) (A) (A) (A) (A) (A) (A) (A)
                 (A) (A) (A) (A) (A) (A) (A) (A) (A) (A) (A) (A)
                 (A) (A) (A) (A) (A) (A) (A) (A) (A) (A) (A) (A)
                 (A) (A) (A) (A) (A) (A) (A) (A) (A) (A) (A) (A)
                 (A) (A) (A) (A) (A) (A) (A) (A) (A) (A) (A) (A)
                 (A) (A) (A) (A) (A) (A) (A) (A) (A) (A) (A) (A)
                 (A) (A) (A) (A) (A) (A) (A) (A) (A) (A) (A) (A)
                 (A) (A) (A) (A) (A) (A) (A) (A) (A) (A) (A) (A)
                 (A) (A) (A) (A) (A) (A) (A) (A) (A) (A) (A) (A)
                 (A) (A) (A) (A) (A) (A) (A) (A) (A) (A) (A) (A)
                 (A) (A) (A) (A) (A) (A) (A) (A) (A) (A) (A) (A)
                 (A) (A) (A) (A) (A) (A) (A) (A) (A) (A) (A) (A)
                 (A) (A) (A) (A) (A) (A) (A) (A) (A) (A) (A) (A)
                 (A) (A) (A) (A) (A) (A) (A) (A) (A) (A) (A) (A)
                 (A) (A) (A) (A) (A) (A) (A) (A) (A) (A) (A) (A)
                 (A) (A) (A) (A) (A) (A) (A) (A) (A) (A) (A) (A)
                 (A) (A) (A) (A) (A) (A) (A) (A) (A) (A) (A) (A)
                 (A) (A) (A) (A) (A) (A) (A) (A) (A) (A) (A) (A)
                 (A) (A) (A) (A) (A) (A) (A) (A) (A) (A) (A) (A)
                 (A) (A) (A) (A) (A) (A) (A) (A) (A) (A) (A) (A)
                 (A) (A) (A) (A) (A) (A) (A) (A) (A) (A) (A) (A)
                 (A) (A) (A) (A) (A) (A) (A) (A) (A) (A) (A) (A)
                 (A) (A) (A) (A) (A) (A) (A) (A) (A) (A) (A) (A)
                 (A) (A) (A) (A) (A) (A) (A) (A) (A) (A) (A) (A)
                 (A) (A) (A) (A) (A) (A) (A) (A) (A) (A) (A) (A)
                 (A) (A) (A) (A) (A) (A) (A) (A) (A) (A) (A) (A)
                 (A) (A) (A) (A) (A) (A) (A) (A) (A) (A) (A) (A)
                 (A) (A) (A) (A) (A) (A) (A) (A) (A) (A) (A) (A)
                 (A) (A) (A) (A) (A) (A) (A) (A) (A) (A) (A) (A)
                 (A) (A) (A) (A) (A) (A) (A) (A) (A) (A) (A) (A)
                 (A) (A) (A) (A) (A) (A) (A) (A) (A) (A) (A) (A)
                 (A) (A) (A) (A) (A) (A) (A) (A) (A) (A) (A) (A)
                 (A) (A) (A) (A) (A) (A) (A) (A) (A) (A) (A) (A)
                 (A) (A) (A) (A) (A) (A) (A) (A) (A) (A) (A) (A)
                 (A) (A) (A) (A) (A) (A) (A) (A) (A) (A) (A) (A)
                 (A) (A) (A) (A) (A) (A) (A) (A) (A) (A) (A) (A)
                 (A) (A) (A) (A) (A) (A) (A) (A) (A) (A) (A) (A)
                 (A) (A) (A) (A) (A) (A) (A) (A) (A) (A) (A) (A)
                 (A) (A) (A) (A) (A) (A) (A) (A) (A) (A) (A) (A)
                 (A) (A) (A) (A) (A) (A) (A) (A) (A) (A) (A) (A)
                 (A) (A) (A) (A) (A) (A) (A) (A) (A) (A) (A) (A)
                 (A) (A) (A) (A) (A) (A) (A) (A) (A) (A) (A) (A)
                 (A) (A) (A) (A) (A) (A) (A) (A) (A) (A) (A) (A)
                 (A) (A) (A) (A) (A) (A) (A) (A) (A) (A) (A) (A)
                 (A) (A) (A) (A) (A) (A) (A) (A) (A) (A) (A) (A)
                 (A) (A) (A) (A) (A) (A) (A) (A) (A) (A) (A) (A)
                 (A) (A) (A) (A) (A) (A) (A) (A) (A) (A) (A) (A)
                 (A) (A) (A) (A) (A) (A) (A) (A) (A) (A) (A) (A)
                 (A) (A) (A) (A) (A) (A) (A) (A) (A) (A) (A) (A)
                 (A) (A) (A) (A) (A) (A) (A) (A) (A) (A) (A) (A)
                 (A) (A) (A) (A) (A) (A) (A) (A) (A) (A) (A) (A)
                 (A) (A) (A) (A) (A) (A) (A) (A) (A) (A) (A) (A)
                 (A) (A) (A) (A) (A) (A) (A) (A) (A) (A) (A) (A)
                 (A) (A) (A) (A) (A) (A) (A) (A) (A) (A) (A) (A)
                 (A) (A) (A) (A) (A) (A) (A) (A) (A) (A) (A) (A)
                 (A) (A) (A) (A) (A) (A) (A) (A) (A) (A) (A) (A)
                 (A) (A) (A) (A) (A) (A) (A) (A) (A) (A) (A) (A)
                 (A) (A) (A) (A) (A) (A) (A) (A) (A) (A) (A) (A)
                 (A) (A) (A) (A) (A) (A) (A) (A) (A) (A) (A) (A)
                 (A) (A) (A) (A) (A) (A) (A) (A) (A) (A) (A) (A)
                 (A) (A) (A) (A) (A) (A) (A) (A) (A) (A) (A) (A)
                 (A) (A) (A) (A) (A) (A) (A) (A) (A) (A) (A) (A)
                 (A) (A) (A) (A) (A) (A) (A) (A) (A) (A) (A) (A)
                 (A) (A) (A) (A) (A) (A) (A) (A) (A) (A) (A) (A)
                 (A) (A) (A) (A) (A) (A) (A) (A) (A) (A) (A) (A)
                 (A) (A) (A) (A) (A) (A) (A) (A) (A) (A) (A) (A)
                 (A) (A) (A) (A) (A) (A) (A) (A) (A) (A) (A) (A)
                 (A) (A) (A) (A) (A) (A) (A) (A) (A) (A) (A) (A)
                 (A) (A) (A) (A) (A) (A) (A) (A) (A) (A) (A) (A)
                 (A) (A) (A) (A) (A) (A) (A) (A) (A) (A) (A) (A)
                 (A) (A) (A) (A) (A) (A) (A) (A) (A) (A) (A) (A)
                 (A) (A) (A) (A) (A) (A) (A) (A) (A) (A) (A) (A)
                 (A) (A) (A) (A) (A) (A) (A) (A) (A) (A) (A) (A)
                 (A) (A) (A) (A) (A) (A) (A) (A) (A) (A) (A) (A)
                 (A) (A) (A) (A) (A) (A) (A) (A) (A) (A) (A) (A)
                 (A) (A) (A) (A) (A) (A) (A) (A) (A) (A) (A) (A)
                 (A) (A) (A) (A) (A) (A) (A) (A) (A) (A) (A) (A)
                 (A) (A) (A) (A) (A) (A) (A) (A) (A) (A) (A) (A)
                 (A) (A) (A) (A) (A) (A) (A) (A) (A) (A) (A) (A)
                 (A) (A) (A) (A) (A) (A) (A) (A) (A) (A) (A) (A)
                 (A) (A) (A) (A) (A) (A) (A) (A) (A) (A) (A) (A)
                 (A) (A) (A) (A) (A) (A) (A) (A) (A) (A) (A) (A)
                 (A) (A) (A) (A) (A) (A) (A) (A) (A) (A) (A) (A)
                 (A) (A) (A) (A) (A) (A) (A) (A) (A) (A) (A) (A)
[...]
 Alpha virt. eigenvalues --    4.69100   4.69432   4.69692   4.70348   4.71050
 Alpha virt. eigenvalues --    4.71179   4.71441   4.71853   4.72277   4.72942
 Alpha virt. eigenvalues --    4.73168   4.73479   4.74228   4.74648   4.75153
 Alpha virt. eigenvalues --    4.75230   4.75587   4.76716   4.76836   4.76994
 Alpha virt. eigenvalues --    4.77149   4.77415   4.77535   4.78092   4.78481
 Alpha virt. eigenvalues --    4.79137   4.79328   4.79623   4.79780   4.80548
 Alpha virt. eigenvalues --    4.81128   4.81429   4.81589   4.82192   4.82515
 Alpha virt. eigenvalues --    4.82843   4.83025   4.83412   4.83993   4.84425
 Alpha virt. eigenvalues --    4.84994   4.85498   4.85744   4.86210   4.86671
 Alpha virt. eigenvalues --    4.86789   4.87305   4.87781   4.88702   4.89659
 Alpha virt. eigenvalues --    4.90183   4.90331   4.90631   4.90762   4.91056
 Alpha virt. eigenvalues --    4.91212   4.91344   4.91729   4.92049   4.92279
 Alpha virt. eigenvalues --    4.92316   4.92544   4.92755   4.93196   4.93546
 Alpha virt. eigenvalues --    4.93583   4.93788   4.94095   4.94488   4.94850
 Alpha virt. eigenvalues --    4.95224   4.95368   4.95760   4.95954   4.96280
 Alpha virt. eigenvalues --    4.96552   4.96782   4.97055   4.97521   4.97635
 Alpha virt. eigenvalues --    4.97705   4.98385   4.98449   4.98762   4.98982
 Alpha virt. eigenvalues --    4.99049   4.99307   4.99615   5.00174   5.00409
 Alpha virt. eigenvalues --    5.01278   5.02207   5.02927   5.03477   5.03621
 Alpha virt. eigenvalues --    5.04004   5.04395   5.04877   5.05159   5.05406
 Alpha virt. eigenvalues --    5.05554   5.05720   5.05865   5.06616   5.07107
 Alpha virt. eigenvalues --    5.08112   5.10614   5.11434   5.11941   5.12266
 Alpha virt. eigenvalues --    5.13869   5.14171   5.14408   5.14892   5.15229
 Alpha virt. eigenvalues --    5.15786   5.16295   5.16659   5.16846   5.17495
 Alpha virt. eigenvalues --    5.18053   5.18342   5.18666   5.18966   5.19138
 Alpha virt. eigenvalues --    5.19500   5.20491   5.20782   5.21643   5.23519
 Alpha virt. eigenvalues --    5.23716   5.24892   5.25356   5.25572   5.26193
 Alpha virt. eigenvalues --    5.26659   5.27146   5.28189   5.28241   5.28543
 Alpha virt. eigenvalues --    5.29014   5.29509   5.29724   5.29745   5.30479
 Alpha virt. eigenvalues --    5.30664   5.31593   5.32002   5.33289   5.35328
 Alpha virt. eigenvalues --    5.36403   5.36575   5.36785   5.38530   5.38880
 Alpha virt. eigenvalues --    5.39381   5.39864   5.40418   5.40595   5.40766
 Alpha virt. eigenvalues --    5.41499   5.41716   5.41836   5.42263   5.43030
 Alpha virt. eigenvalues --    5.43157   5.43608   5.43797   5.44130   5.44352
 Alpha virt. eigenvalues --    5.44546   5.44704   5.45331   5.46346   5.47257
 Alpha virt. eigenvalues --    5.48000   5.48109   5.48814   5.48948   5.49106
 Alpha virt. eigenvalues --    5.49456   5.49733   5.50241   5.51399   5.51454
 Alpha virt. eigenvalues --    5.51994   5.52212   5.52824   5.53164   5.56223
 Alpha virt. eigenvalues --    5.56938   5.57186   5.58481   5.58834   5.59717
 Alpha virt. eigenvalues --    5.61005   5.61232   5.61748   5.64670   5.65088
 Alpha virt. eigenvalues --    5.66348   5.66713   5.67165   5.67638   5.70113
 Alpha virt. eigenvalues --    5.70986   5.71122   5.74274   5.75127   5.75868
 Alpha virt. eigenvalues --    5.76160   5.77066   5.77547   5.78443   5.79542
 Alpha virt. eigenvalues --    5.79638   5.82236   5.82348   5.82533   5.86465
 Alpha virt. eigenvalues --    5.87064   5.87401   5.91459   5.95233   5.96287
 Alpha virt. eigenvalues --    5.97164   5.97443   5.98151   6.01820   6.02000
 Alpha virt. eigenvalues --    6.02385   6.06915   6.07605   6.08001   6.10128
 Alpha virt. eigenvalues --    6.10561   6.11055   6.11574   6.11786   6.12387
 Alpha virt. eigenvalues --    6.13756   6.13888   6.14052  22.45906  22.47907
 Alpha virt. eigenvalues --   22.48801  22.49101  22.49627  22.49845  22.50424
 Alpha virt. eigenvalues --   22.50664  22.50697  22.50827  22.51262  22.51374
 Alpha virt. eigenvalues --   22.51624  22.51695  22.51789  22.52027  22.52711
 Alpha virt. eigenvalues --   22.52756  22.52857  22.53769  22.55314  22.56422
 Alpha virt. eigenvalues --   22.57429  22.58617  22.59183  22.60311  22.60997
 Alpha virt. eigenvalues --   22.72731  22.72956  22.73110  22.73590  22.75815
 Alpha virt. eigenvalues --   22.77081  22.77452  22.78212  22.79611  22.79717
 Alpha virt. eigenvalues --   22.80366  22.80725  22.83406  22.86395  22.87274
 Alpha virt. eigenvalues --   22.88136  22.88340  22.89591  22.91048  22.91492
 Alpha virt. eigenvalues --   22.92167  22.94305  22.95268  22.95692  22.95952
 Alpha virt. eigenvalues --   22.96421  22.97056  22.97403  22.97835  22.99375
 Alpha virt. eigenvalues --   23.06351  23.09398  23.09836  23.15694  23.15722
 Alpha virt. eigenvalues --   23.16727  23.16887  23.17445  23.17801  23.18773
 Alpha virt. eigenvalues --   23.18954  23.19174  23.24563  23.24915  23.25467
 Alpha virt. eigenvalues --   23.52969  23.53893  23.54915  32.19219  32.28835
 Alpha virt. eigenvalues --   32.31444  32.80548  32.81661  32.85311  32.91583
 Alpha virt. eigenvalues --   32.93580  32.94741  32.95308  32.96712  32.97101
          Condensed to atoms (all electrons):
 Mulliken charges:
               1
     1  C    0.431704
     2  C   -0.290431
     3  C   -0.360121
     4  C    0.436542
     5  H    0.140464
     6  C   -0.365627
     7  C    0.362394
     8  H    0.128609
     9  C   -0.336217
    10  C   -0.204457
    11  H    0.117283
    12  C   -0.189037
    13  H    0.084281
    14  H    0.103959
    15  H    0.072237
    16  C    0.436694
    17  C   -0.267324
    18  C   -0.368986
    19  C    0.439540
    20  H    0.138525
    21  C   -0.367515
    22  C    0.354948
    23  H    0.125785
    24  C   -0.349854
    25  C   -0.196974
    26  H    0.133927
    27  C   -0.191087
    28  H    0.092587
    29  H    0.076873
    30  H    0.071960
    31  C    0.453053
    32  C   -0.288206
    33  C   -0.356659
    34  C    0.428788
    35  H    0.145681
    36  C   -0.370326
    37  C    0.355976
    38  H    0.128201
    39  C   -0.333073
    40  C   -0.191700
    41  H    0.114335
    42  C   -0.186003
    43  H    0.089240
    44  H    0.089250
    45  H    0.072973
    46  C    0.076315
    47  C    0.079040
    48  N   -0.547093
    49  H    0.112786
    50  C   -0.061534
    51  N   -0.238734
    52  H    0.087173
    53  C    0.038714
    54  H    0.082510
    55  C   -0.382223
    56  C   -0.414442
    57  H    0.087538
    58  C   -0.405004
    59  C   -0.476725
    60  H    0.121074
    61  H    0.124867
    62  H    0.126888
    63  H    0.119007
    64  H    0.116203
    65  H    0.134952
    66  H    0.142949
    67  H    0.126377
    68  H    0.122505
    69  H    0.123250
    70  H    0.114890
    71  H    0.129259
    72  C    0.039629
    73  C    0.040177
    74  N   -0.459142
    75  H    0.083956
    76  C   -0.038929
    77  N   -0.218353
    78  H    0.057704
    79  C    0.079619
    80  H    0.088430
    81  C   -0.376366
    82  C   -0.375365
    83  H    0.080376
    84  C   -0.450048
    85  C   -0.478415
    86  H    0.119119
    87  H    0.130868
    88  H    0.098352
    89  H    0.107432
    90  H    0.123042
    91  H    0.121981
    92  H    0.138121
    93  H    0.125115
    94  H    0.122837
    95  H    0.118820
    96  H    0.146028
    97  H    0.129769
    98  C    0.101185
    99  C   -0.045968
   100  N   -0.509406
   101  H    0.103481
   102  C    0.066929
   103  N   -0.204863
   104  H    0.068305
   105  C   -0.001799
   106  H    0.071856
   107  C   -0.401023
   108  C   -0.452805
   109  H    0.056581
   110  C   -0.459648
   111  C   -0.385598
   112  H    0.112393
   113  H    0.132931
   114  H    0.138913
   115  H    0.126758
   116  H    0.118706
   117  H    0.114636
   118  H    0.121287
   119  H    0.132350
   120  H    0.129365
   121  H    0.117726
   122  H    0.123432
   123  H    0.150386
   124  C    0.092946
   125  C    0.111797
   126  N   -0.243825
   127  H    0.079771
   128  C   -0.026549
   129  N   -0.250118
   130  H    0.077904
   131  C   -0.013405
   132  H    0.084347
   133  C   -0.409648
   134  C   -0.382349
   135  H    0.082669
   136  C   -0.409271
   137  C   -0.385378
   138  H    0.129604
   139  H    0.112197
   140  H    0.123780
   141  H    0.120396
   142  H    0.141207
   143  H    0.118027
   144  H    0.132346
   145  H    0.111957
   146  H    0.122090
   147  H    0.118149
   148  H    0.119387
   149  H    0.138071
   150  C    0.105568
   151  C    0.093308
   152  N   -0.250682
   153  H    0.079597
   154  C   -0.006670
   155  N   -0.248914
   156  H    0.078927
   157  C   -0.020769
   158  H    0.081620
   159  C   -0.409775
   160  C   -0.388585
   161  H    0.081915
   162  C   -0.417113
   163  C   -0.382342
   164  H    0.131293
   165  H    0.113667
   166  H    0.121661
   167  H    0.137298
   168  H    0.117807
   169  H    0.119199
   170  H    0.123465
   171  H    0.129360
   172  H    0.111668
   173  H    0.150330
   174  H    0.117421
   175  H    0.120209
   176  C    0.095537
   177  C    0.100511
   178  N   -0.243371
   179  H    0.080088
   180  C   -0.027725
   181  N   -0.249836
   182  H    0.079392
   183  C   -0.011933
   184  H    0.084493
   185  C   -0.409026
   186  C   -0.381559
   187  H    0.083745
   188  C   -0.408821
   189  C   -0.386264
   190  H    0.123707
   191  H    0.129711
   192  H    0.111704
   193  H    0.118980
   194  H    0.120971
   195  H    0.141158
   196  H    0.132427
   197  H    0.112470
   198  H    0.121976
   199  H    0.119589
   200  H    0.137345
   201  H    0.118190
   202  H    0.226411
   203  H    0.207904
   204  H    0.213970
   205  H    0.217328
   206  H    0.212566
   207  H    0.209173
 Sum of Mulliken charges =  -0.00000
 Mulliken charges with hydrogens summed into heavy atoms:
               1
     1  C    0.431704
     2  C   -0.186472
     3  C   -0.219658
     4  C    0.436542
     6  C   -0.237018
     7  C    0.362394
     9  C   -0.218934
    10  C   -0.120176
    12  C   -0.116800
    16  C    0.436694
    17  C   -0.190451
    18  C   -0.230460
    19  C    0.439540
    21  C   -0.241729
    22  C    0.354948
    24  C   -0.215927
    25  C   -0.104387
    27  C   -0.119127
    31  C    0.453053
    32  C   -0.198956
    33  C   -0.210977
    34  C    0.428788
    36  C   -0.242124
    37  C    0.355976
    39  C   -0.218739
    40  C   -0.102460
    42  C   -0.113030
    46  C    0.189102
    47  C    0.166213
    48  N   -0.115796
    50  C    0.020976
    51  N   -0.238734
    53  C    0.126253
    55  C   -0.012061
    56  C   -0.041614
    58  C   -0.037605
    59  C   -0.084894
    72  C    0.123585
    73  C    0.097882
    74  N   -0.037402
    76  C    0.049500
    77  N   -0.218353
    79  C    0.159996
    81  C   -0.023911
    82  C   -0.027026
    84  C   -0.055432
    85  C   -0.092342
    98  C    0.204666
    99  C    0.022337
   100  N   -0.075091
   102  C    0.138785
   103  N   -0.204863
   105  C    0.054781
   107  C   -0.040922
   108  C   -0.068568
   110  C   -0.068104
   111  C   -0.002597
   124  C    0.172717
   125  C    0.189702
   126  N   -0.243825
   128  C    0.057797
   129  N   -0.250118
   131  C    0.069265
   133  C   -0.030018
   134  C   -0.016767
   136  C   -0.033664
   137  C   -0.018985
   150  C    0.185165
   151  C    0.172235
   152  N   -0.250682
   154  C    0.074950
   155  N   -0.248914
   157  C    0.061146
   159  C   -0.035470
   160  C   -0.021965
   162  C   -0.029152
   163  C   -0.017848
   176  C    0.175625
   177  C    0.179903
   178  N   -0.243371
   180  C    0.056768
   181  N   -0.249836
   183  C    0.071812
   185  C   -0.027916
   186  C   -0.016437
   188  C   -0.033697
   189  C   -0.019391
 Electronic spatial extent (au):  <R**2>=          93649.0431
 Charge=             -0.0000 electrons
 Dipole moment (field-independent basis, Debye):
    X=             -0.3152    Y=              1.8673    Z=              0.1709  Tot=              1.9014
 Quadrupole moment (field-independent basis, Debye-Ang):
   XX=           -565.1319   YY=           -534.9264   ZZ=           -527.8821
   XY=             -8.3046   XZ=              7.8941   YZ=             -6.5646
 Traceless Quadrupole moment (field-independent basis, Debye-Ang):
   XX=            -22.4851   YY=              7.7204   ZZ=             14.7647
   XY=             -8.3046   XZ=              7.8941   YZ=             -6.5646
 Octapole moment (field-independent basis, Debye-Ang**2):
  XXX=             89.0537  YYY=             58.9982  ZZZ=              5.5901  XYY=            -27.6274
  XXY=             81.6157  XXZ=             98.6451  XZZ=            -32.2637  YZZ=              2.5916
  YYZ=             50.5495  XYZ=             13.1071
 Hexadecapole moment (field-independent basis, Debye-Ang**3):
 XXXX=         -48527.9671 YYYY=         -44757.4767 ZZZZ=         -36682.2305 XXXY=           -656.9740
 XXXZ=            409.5460 YYYX=            137.1633 YYYZ=           -116.0288 ZZZX=              3.6385
 ZZZY=            343.1263 XXYY=         -15563.3920 XXZZ=         -14361.6943 YYZZ=         -13699.3771
 XXYZ=           -468.4994 YYXZ=           -126.0888 ZZXY=           -100.2835
 N-N= 1.724614551688D+04 E-N=-4.281403725626D+04  KE= 3.567182018475D+03
 Leave Link  601 at Mon Oct 18 09:17:03 2021, MaxMem=  7864320000 cpu:              76.2 elap:               3.1
 (Enter /apps/gaussian/g16-c01-avx/g16/l9999.exe)
 Unable to Open any file for archive entry.
 1\1\GINC-CX3-6-18\SP\RPBE1PBE\def2TZVP\C75H120N12\ATARZIA\18-Oct-2021\
 0\\#P PBE1PBE/Def2TZVP SP SCF=(YQC,MaxCycle=900) int=(Grid=Superfinegr
 id) EmpiricalDispersion=GD3\\_3_alde1_6_ami1_2_opt_gas\\0,1\C,0,-1.220
 2,-0.1559,-3.184\C,0,-0.0295,0.0051,-4.008\C,0,-1.6376,-1.4241,-2.7909
 \C,0,-2.7747,-1.5864,-2.0053\H,0,-1.0712,-2.2891,-3.0939\C,0,-3.5133,-
 0.4679,-1.6346\C,0,-3.1246,0.8065,-2.0426\H,0,-4.4084,-0.5635,-1.0391\
 C,0,-1.9652,0.9565,-2.7986\C,0,-3.9233,1.9719,-1.6939\H,0,-1.6452,1.94
 59,-3.0952\C,0,-3.1767,-2.9172,-1.5681\H,0,-3.4759,2.9477,-1.9372\H,0,
 0.2009,1.0334,-4.3259\H,0,-3.8549,-2.9542,-0.7008\C,0,2.413,-2.1944,0.
 907\C,0,3.6827,-1.57,0.5646\C,0,1.8661,-2.0177,2.1738\C,0,0.6403,-2.58
 6,2.506\H,0,2.3913,-1.4259,2.9051\C,0,-0.028,-3.3626,1.5659\C,0,0.52,-
 3.5735,0.3018\H,0,-0.9744,-3.8268,1.7977\C,0,1.7307,-2.9702,-0.0277\C,
 0,-0.1547,-4.427,-0.6653\H,0,2.1494,-3.1142,-1.0143\C,0,0.0628,-2.3374
 ,3.8204\H,0,0.2615,-4.418,-1.6845\H,0,4.0488,-1.7494,-0.4578\H,0,-1.01
 63,-2.5337,3.9206\C,0,0.025,2.9845,0.9824\C,0,0.8372,3.7038,0.0114\C,0
 ,-1.362,2.997,0.8724\C,0,-2.1576,2.3444,1.8085\H,0,-1.829,3.5193,0.054
 4\C,0,-1.5552,1.6797,2.8702\C,0,-0.168,1.6744,3.0077\H,0,-2.1453,1.174
 2,3.6192\C,0,0.6162,2.3178,2.0538\C,0,0.4553,1.0264,4.1526\H,0,1.693,2
 .3092,2.1513\C,0,-3.6071,2.3622,1.659\H,0,1.5539,0.9588,4.1273\H,0,1.9
 117,3.7809,0.24\H,0,-4.1604,1.5713,2.1894\C,0,1.4076,-1.4047,-6.5761\C
 ,0,1.8137,-0.8245,-5.1972\N,0,0.4125,-0.4991,-7.1412\H,0,0.99,-2.4104,
 -6.3904\C,0,2.5805,-1.5503,-7.565\N,0,0.6779,-0.9838,-4.3411\H,0,2.054
 4,0.242,-5.3542\C,0,3.0156,-1.5211,-4.5293\H,0,3.3294,-2.2021,-7.1059\
 C,0,3.2148,-0.2007,-7.89\C,0,2.1179,-2.2336,-8.8539\H,0,3.8738,-1.457,
 -5.2042\C,0,2.7176,-2.9872,-4.2263\C,0,3.3797,-0.7799,-3.2431\H,0,1.48
 44,-1.5717,-9.439\H,0,1.5661,-3.1457,-8.6332\H,0,2.9797,-2.4967,-9.463
 3\H,0,3.9425,-0.3112,-8.6907\H,0,3.7221,0.2131,-7.0226\H,0,2.443,0.495
 5,-8.2057\H,0,2.5517,-0.8105,-2.5375\H,0,3.6143,0.2621,-3.45\H,0,4.253
 1,-1.2389,-2.7835\H,0,1.7971,-3.0583,-3.6534\H,0,3.5323,-3.4261,-3.652
 8\H,0,2.6008,-3.5606,-5.142\C,0,6.6349,-0.6697,2.0945\C,0,5.546,-0.237
 ,1.0605\N,0,6.1032,-1.1258,3.3663\H,0,7.2514,0.2107,2.3175\C,0,7.592,-
 1.7535,1.554\N,0,4.3115,-0.8667,1.399\H,0,5.8789,-0.5176,0.045\C,0,5.3
 375,1.2962,1.0494\H,0,8.1632,-2.087,2.4271\C,0,8.5713,-1.1756,0.5343\C
 ,0,6.8763,-2.9708,0.9708\H,0,6.3178,1.7513,0.865\C,0,4.7887,1.8155,2.3
 757\C,0,4.4039,1.6873,-0.0954\H,0,6.134,-3.36,1.6633\H,0,7.598,-3.7597
 ,0.7699\H,0,6.379,-2.7261,0.0353\H,0,8.0493,-0.803,-0.3446\H,0,9.2718,
 -1.9426,0.2117\H,0,9.138,-0.355,0.9683\H,0,3.4127,1.263,0.0561\H,0,4.7
 865,1.3274,-1.0485\H,0,4.3137,2.7703,-0.1512\H,0,4.5524,2.8753,2.2933\
 H,0,5.5161,1.6968,3.1748\H,0,3.8843,1.2706,2.6363\C,0,0.3474,6.3312,-2
 .2118\C,0,1.0991,4.9955,-1.9286\N,0,-0.9624,6.1273,-2.8006\H,0,0.9563,
 6.8865,-2.9342\C,0,0.1944,7.2651,-0.9853\N,0,0.3175,4.2347,-1.0083\H,0
 ,2.1057,5.2214,-1.5345\C,0,1.2896,4.1519,-3.2147\H,0,-0.0866,8.2369,-1
 .4076\C,0,1.5079,7.4445,-0.2268\C,0,-0.9228,6.8565,-0.0268\H,0,0.301,3
 .8239,-3.5551\C,0,2.1192,2.9085,-2.8975\C,0,1.9737,4.9358,-4.3334\H,0,
 -0.9557,7.5543,0.8076\H,0,-0.7635,5.8572,0.366\H,0,-1.8831,6.8869,-0.5
 328\H,0,1.4189,8.2714,0.4743\H,0,2.3261,7.6642,-0.91\H,0,1.7523,6.5503
 ,0.3417\H,0,2.9037,5.3734,-3.9757\H,0,1.3432,5.7313,-4.7218\H,0,2.2076
 ,4.2652,-5.1581\H,0,3.1076,3.193,-2.5414\H,0,2.2419,2.3043,-3.7938\H,0
 ,1.6393,2.2958,-2.137\C,0,-3.1221,-5.2507,-1.6641\C,0,-1.7786,-5.9548,
 -1.3416\N,0,-2.7647,-3.9535,-2.1518\H,0,-3.705,-5.176,-0.7293\C,0,-3.9
 766,-5.9807,-2.7199\N,0,-1.1356,-5.1505,-0.3452\H,0,-1.1876,-5.9692,-2
 .2737\C,0,-1.9209,-7.3943,-0.8144\H,0,-4.1956,-6.9838,-2.3409\C,0,-3.2
 587,-6.0922,-4.0618\C,0,-5.3035,-5.2413,-2.8938\H,0,-2.4221,-7.9915,-1
 .5826\C,0,-2.7277,-7.4527,0.4792\C,0,-0.527,-7.9812,-0.5902\H,0,-5.130
 8,-4.2439,-3.2922\H,0,-5.8224,-5.1483,-1.9416\H,0,-5.948,-5.7823,-3.58
 3\H,0,-2.4051,-6.7617,-3.9966\H,0,-2.9121,-5.1108,-4.3738\H,0,-3.9387,
 -6.4826,-4.8159\H,0,-0.005,-7.4186,0.1806\H,0,0.061,-7.9404,-1.5051\H,
 0,-0.5997,-9.0195,-0.2746\H,0,-2.6878,-8.4556,0.8987\H,0,-3.7702,-7.19
 94,0.305\H,0,-2.3112,-6.7537,1.199\C,0,-5.773,3.0559,-0.7907\C,0,-5.58
 94,3.1994,0.7444\N,0,-5.0632,1.8685,-1.1656\H,0,-5.3153,3.9462,-1.2546
 \C,0,-7.2366,2.9444,-1.2517\N,0,-4.1753,3.2368,0.9547\H,0,-6.0396,2.31
 6,1.23\C,0,-6.2325,4.4704,1.3343\H,0,-7.7633,3.8524,-0.9416\C,0,-7.934
 7,1.7256,-0.6555\C,0,-7.2686,2.872,-2.7786\H,0,-7.3011,4.4486,1.0981\C
 ,0,-5.6136,5.7445,0.766\C,0,-6.0825,4.4483,2.8556\H,0,-6.758,1.9738,-3
 .1187\H,0,-6.7744,3.7371,-3.2164\H,0,-8.2956,2.8458,-3.1357\H,0,-7.334
 6,0.8384,-0.837\H,0,-8.9104,1.5915,-1.1174\H,0,-8.0803,1.8398,0.4156\H
 ,0,-6.5882,5.3045,3.2961\H,0,-5.0307,4.4889,3.1308\H,0,-6.5155,3.542,3
 .2748\H,0,-4.5327,5.7058,0.8708\H,0,-5.9889,6.6116,1.3051\H,0,-5.8605,
 5.8679,-0.285\C,0,0.172,-1.5785,6.0287\C,0,0.4317,-0.0596,6.2157\N,0,0
 .7677,-1.9087,4.7713\H,0,-0.9203,-1.7398,6.0064\C,0,0.7813,-2.4616,7.1
 355\N,0,-0.2237,0.596,5.1233\H,0,1.5239,0.0896,6.1643\C,0,-0.0945,0.52
 04,7.5408\H,0,0.339,-2.1599,8.0901\C,0,2.2987,-2.32,7.2127\C,0,0.4023,
 -3.9203,6.8783\H,0,0.4082,0.0034,8.3641\C,0,-1.604,0.3483,7.6807\C,0,0
 .2736,2.0026,7.614\H,0,0.7641,-4.5513,7.6868\H,0,0.8438,-4.2653,5.9458
 \H,0,-0.6782,-4.0338,6.8122\H,0,2.7059,-3.0553,7.9033\H,0,2.5847,-1.33
 2,7.5635\H,0,2.7329,-2.4828,6.2302\H,0,-0.2202,2.5492,6.8136\H,0,1.348
 6,2.1388,7.513\H,0,-0.0379,2.4235,8.5673\H,0,-1.8718,-0.6986,7.7971\H,
 0,-2.098,0.7417,6.7969\H,0,-1.9617,0.8892,8.5541\H,0,-1.4681,5.4573,-2
 .231\H,0,-0.8776,5.7392,-3.7331\H,0,0.0131,-0.9048,-7.9796\H,0,-0.3465
 ,-0.3676,-6.4804\H,0,5.5317,-1.952,3.2216\H,0,5.4893,-0.4211,3.7575\\V
 ersion=ES64L-G16RevC.01\State=1-A\HF=-3584.3556661\RMSD=2.515e-09\Dipo
 le=0.0593403,-0.4174023,-0.6179461\Quadrupole=3.5186819,-5.6105204,2.0
 918384,9.4750807,-12.7258757,6.0827459\PG=C01 [X(C75H120N12)]\\@
 The archive entry for this job was punched.


 NEVER LOSE YOUR IGNORANCE, IT CAN'T BE REPLACED.
   -- ANDY CAPP
 Job cpu time:       4 days 19 hours 15 minutes 47.9 seconds.
 Elapsed time:       0 days  3 hours 38 minutes  5.1 seconds.
 File lengths (MBytes):  RWF=   6640 Int=      0 D2E=      0 Chk=    680 Scr=     16
 Normal termination of Gaussian 16 at Mon Oct 18 09:17:04 2021.
