 Entering Gaussian System, Link 0=g16
 Initial command:
 /apps/gaussian/g16-c01-avx/g16/l1.exe "/rds/general/ephemeral/user/atarzia/ephemeral/xtb_spe_DFT/Gau-2432783.inp" -scrdir="/rds/general/ephemeral/user/atarzia/ephemeral/xtb_spe_DFT/"
 Entering Link 1 = /apps/gaussian/g16-c01-avx/g16/l1.exe PID=   2432784.
  
 Copyright (c) 1988-2019, Gaussian, Inc.  All Rights Reserved.
  
 This is part of the Gaussian(R) 16 program.  It is based on
 the Gaussian(R) 09 system (copyright 2009, Gaussian, Inc.),
 the Gaussian(R) 03 system (copyright 2003, Gaussian, Inc.),
 the Gaussian(R) 98 system (copyright 1998, Gaussian, Inc.),
 the Gaussian(R) 94 system (copyright 1995, Gaussian, Inc.),
 the Gaussian 92(TM) system (copyright 1992, Gaussian, Inc.),
 the Gaussian 90(TM) system (copyright 1990, Gaussian, Inc.),
 the Gaussian 88(TM) system (copyright 1988, Gaussian, Inc.),
 the Gaussian 86(TM) system (copyright 1986, Carnegie Mellon
 University), and the Gaussian 82(TM) system (copyright 1983,
 Carnegie Mellon University). Gaussian is a federally registered
 trademark of Gaussian, Inc.
  
 This software contains proprietary and confidential information,
 including trade secrets, belonging to Gaussian, Inc.
  
 This software is provided under written license and may be
 used, copied, transmitted, or stored only in accord with that
 written license.
  
 The following legend is applicable only to US Government
 contracts under FAR:
  
                    RESTRICTED RIGHTS LEGEND
  
 Use, reproduction and disclosure by the US Government is
 subject to restrictions as set forth in subparagraphs (a)
 and (c) of the Commercial Computer Software - Restricted
 Rights clause in FAR 52.227-19.
  
 Gaussian, Inc.
 340 Quinnipiac St., Bldg. 40, Wallingford CT 06492
  
  
 ---------------------------------------------------------------
 Warning -- This program may not be used in any manner that
 competes with the business of Gaussian, Inc. or will provide
 assistance to any competitor of Gaussian, Inc.  The licensee
 of this program is prohibited from giving any competitor of
 Gaussian, Inc. access to this program.  By using this program,
 the user acknowledges that Gaussian, Inc. is engaged in the
 business of creating and licensing software in the field of
 computational chemistry and represents and warrants to the
 licensee that it is not a competitor of Gaussian, Inc. and that
 it will not use this program in any manner prohibited above.
 ---------------------------------------------------------------
  

 Cite this work as:
 Gaussian 16, Revision C.01,
 M. J. Frisch, G. W. Trucks, H. B. Schlegel, G. E. Scuseria, 
 M. A. Robb, J. R. Cheeseman, G. Scalmani, V. Barone, 
 G. A. Petersson, H. Nakatsuji, X. Li, M. Caricato, A. V. Marenich, 
 J. Bloino, B. G. Janesko, R. Gomperts, B. Mennucci, H. P. Hratchian, 
 J. V. Ortiz, A. F. Izmaylov, J. L. Sonnenberg, D. Williams-Young, 
 F. Ding, F. Lipparini, F. Egidi, J. Goings, B. Peng, A. Petrone, 
 T. Henderson, D. Ranasinghe, V. G. Zakrzewski, J. Gao, N. Rega, 
 G. Zheng, W. Liang, M. Hada, M. Ehara, K. Toyota, R. Fukuda, 
 J. Hasegawa, M. Ishida, T. Nakajima, Y. Honda, O. Kitao, H. Nakai, 
 T. Vreven, K. Throssell, J. A. Montgomery, Jr., J. E. Peralta, 
 F. Ogliaro, M. J. Bearpark, J. J. Heyd, E. N. Brothers, K. N. Kudin, 
 V. N. Staroverov, T. A. Keith, R. Kobayashi, J. Normand, 
 K. Raghavachari, A. P. Rendell, J. C. Burant, S. S. Iyengar, 
 J. Tomasi, M. Cossi, J. M. Millam, M. Klene, C. Adamo, R. Cammi, 
 J. W. Ochterski, R. L. Martin, K. Morokuma, O. Farkas, 
 J. B. Foresman, and D. J. Fox, Gaussian, Inc., Wallingford CT, 2019.
 
 ******************************************
 Gaussian 16:  ES64L-G16RevC.01  3-Jul-2019
                15-Nov-2021 
 ******************************************
 %chk=_3_alde1_5_ami3_2_opt_dcm_mp2.chk
 %mem=60000mb
 %nprocshared=32
 Will use up to   32 processors via shared memory.
 ----------------------------------------------------------------------
 #P MP2/aug-cc-pVDZ SP SCF=(YQC,MaxCycle=900) int=(Grid=Superfinegrid) 
 SCRF=(PCM,Solvent=Dichloromethane)
 ----------------------------------------------------------------------
 1/38=1,172=1/1;
 2/12=2,17=6,18=5,40=1/2;
 3/5=16,7=10,11=9,25=1,30=1,70=2201,72=9,75=-7/1,2,3;
 4//1;
 5/5=2,7=900,8=4,13=1,38=1,53=9/8,2,8;
 8/10=1/1;
 9/16=-3/6;
 6/7=2,8=2,9=2,10=2/1;
 99/5=1,9=1/99;
 Leave Link    1 at Mon Nov 15 12:13:32 2021, MaxMem=  7864320000 cpu:               5.3 elap:               0.2
 (Enter /apps/gaussian/g16-c01-avx/g16/l101.exe)
 -----------------------------
 _3_alde1_5_ami3_2_opt_dcm_mp2
 -----------------------------
 Symbolic Z-matrix:
 Charge =  0 Multiplicity = 1
 C                    -3.3192   -1.4255   -0.146 
 C                    -3.3564   -1.1076    1.272 
 C                    -2.5731   -2.4936   -0.6411 
 C                    -2.492    -2.7238   -2.0107 
 H                    -2.0589   -3.1312    0.0618 
 C                    -3.1191   -1.844    -2.8936 
 C                    -3.8664   -0.775    -2.414 
 H                    -3.0129   -2.0216   -3.9529 
 C                    -3.9863   -0.5927   -1.0375 
 C                    -4.4386    0.2077   -3.3247 
 H                    -4.5811    0.2349   -0.6845 
 C                    -1.7324   -3.8594   -2.5106 
 H                    -4.0123    0.2154   -4.3404 
 H                    -4.0515   -0.2998    1.5473 
 H                    -1.2664   -4.4917   -1.7401 
 C                     2.0145   -2.0023    0.2643 
 C                     1.7556   -2.6109    1.5636 
 C                     2.6454   -0.7629    0.1638 
 C                     2.9003   -0.1917   -1.0779 
 H                     2.9384   -0.259     1.073 
 C                     2.4923   -0.8577   -2.2332 
 C                     1.8652   -2.095    -2.1495 
 H                     2.6861   -0.3928   -3.1876 
 C                     1.6381   -2.6653   -0.8978 
 C                     1.4148   -2.7776   -3.3546 
 H                     1.1551   -3.6293   -0.8551 
 C                     3.5561    1.1043   -1.1539 
 H                     1.3266   -2.1496   -4.2549 
 H                     1.28     -3.5971    1.5208 
 H                     3.7243    1.604    -0.1869 
 C                    -0.9369    1.9432    0.5275 
 C                    -0.712     1.0674    1.6704 
 C                    -2.2373    2.2615    0.1409 
 C                    -2.4828    2.9321   -1.0524 
 H                    -3.0502    1.9333    0.7693 
 C                    -1.4077    3.327    -1.8469 
 C                    -0.1027    3.0806   -1.4372 
 H                    -1.6145    3.829    -2.7797 
 C                     0.1264    2.3752   -0.2567 
 C                     1.0246    3.4638   -2.2789 
 H                     1.145     2.1536    0.0214 
 C                    -3.8562    3.1067   -1.4967 
 H                     0.8128    3.5242   -3.3586 
 H                    -4.6252    2.8251   -0.7613 
 C                    -1.402    -0.14      3.5426 
 C                    -2.6042   -1.1128    3.4536 
 N                    -1.6002    0.8605    2.541 
 N                    -2.611    -1.6582    2.1297 
 C                     3.2845   -2.5802    4.6294 
 C                     1.889    -2.5637    3.9423 
 N                     3.9818   -1.3125    4.561 
 N                     2.0669   -2.0177    2.6328 
 C                    -0.785    -5.1979   -4.1537 
 C                     0.5989   -4.6175   -4.5325 
 N                    -1.6161   -4.1085   -3.7423 
 N                     1.1324   -4.0059   -3.3578 
 C                    -5.7202    2.0887   -3.8318 
 C                    -5.5331    3.4167   -3.0559 
 N                    -5.319     1.0319   -2.9577 
 N                    -4.1592    3.4857   -2.6621 
 C                     4.4169    2.9692   -2.2162 
 C                     3.2781    3.9079   -2.676 
 N                     3.9028    1.635    -2.2449 
 N                     2.1703    3.6772   -1.802 
 H                     4.0685   -1.0315    3.5901 
 H                     3.4425   -0.5952    5.0367 
 H                     0.2617    0.5532    1.6881 
 C                     1.2338   -3.9421    4.057 
 C                    -1.3696    0.487     4.9376 
 C                     3.767     5.3547   -2.5978 
 C                    -7.1895    1.952    -4.233 
 C                     1.5115   -5.7516   -5.0019 
 H                     0.46     -3.8867   -5.3501 
 C                     0.8994   -6.472    -6.1981 
 H                     2.486    -5.3351   -5.266 
 H                     1.6567   -6.4475   -4.1739 
 C                    -0.4794   -7.023    -5.847 
 H                     1.5575   -7.2849   -6.5117 
 H                     0.8081   -5.7732   -7.033 
 C                    -1.3955   -5.9054   -5.3606 
 H                    -0.3788   -7.7757   -5.0615 
 H                    -0.9206   -7.5071   -6.7204 
 H                    -1.5508   -5.1708   -6.1524 
 H                    -2.371    -6.3074   -5.0801 
 H                    -0.621    -5.9161   -3.3311 
 H                    -0.4735   -0.7102    3.3638 
 C                    -1.2595   -0.5912    6.0108 
 H                    -2.2816    1.0696    5.0795 
 H                    -0.5209    1.1721    4.9987 
 C                    -2.4087   -1.5895    5.9026 
 H                    -1.2622   -0.1258    6.9988 
 H                    -0.3104   -1.1204    5.895 
 C                    -2.4614   -2.205     4.5081 
 H                    -3.3517   -1.0769    6.1064 
 H                    -2.2886   -2.3772    6.6495 
 H                    -3.3061   -2.8922    4.4283 
 H                    -1.5497   -2.7687    4.3084 
 H                    -3.5148   -0.518     3.6471 
 H                     3.0215    3.6686   -3.7237 
 C                     5.6148    3.1338   -3.1465 
 H                     4.6935    3.2695   -1.1894 
 C                     6.1037    4.5787   -3.114 
 H                     5.3172    2.8542   -4.1584 
 H                     6.4107    2.4564   -2.8308 
 C                     4.9838    5.5425   -3.4989 
 H                     6.9461    4.6984   -3.798 
 H                     6.4539    4.8168   -2.1068 
 H                     4.6936    5.3624   -4.5368 
 H                     5.3391    6.5723   -3.4246 
 H                     4.0199    5.5875   -1.562 
 H                     2.959     6.0222   -2.9058 
 H                    -5.0935    2.1222   -4.7414 
 C                    -5.9198    4.5876   -3.9535 
 H                    -6.2014    3.3755   -2.1773 
 C                    -7.3747    4.4542   -4.3925 
 H                    -5.2593    4.5982   -4.822 
 H                    -5.772     5.5212   -3.4073 
 C                    -7.6057    3.1276   -5.1115 
 H                    -7.6388    5.2836   -5.0514 
 H                    -8.0219    4.5058   -3.5136 
 H                    -8.6595    3.029    -5.3797 
 H                    -7.022     3.1109   -6.0349 
 H                    -7.8002    1.9169   -3.3293 
 H                    -7.3262    1.01     -4.7688 
 H                     1.2775   -1.8258    4.4835 
 C                     3.1265   -3.        6.0903 
 H                     3.9077   -3.3148    4.1041 
 C                     2.448    -4.36      6.2083 
 H                     2.5316   -2.2463    6.6133 
 H                     4.1144   -3.0231    6.5518 
 C                     1.0857   -4.3379    5.5223 
 H                     2.3308   -4.6239    7.2612 
 H                     3.0771   -5.1205    5.7403 
 H                     0.4331   -3.6234    6.0306 
 H                     0.6169   -5.3221    5.591 
 H                     1.8562   -4.6804    3.5443 
 H                     0.2532   -3.9263    3.5731 
 
 ITRead=  0  0  0  0  0  0  0  0  0  0  0  0  0  0  0  0  0  0  0  0
 ITRead=  0  0  0  0  0  0  0  0  0  0  0  0  0  0  0  0  0  0  0  0
 ITRead=  0  0  0  0  0  0  0  0  0  0  0  0  0  0  0  0  0  0  0  0
 ITRead=  0  0  0  0  0  0  0  0  0  0  0  0  0  0  0  0  0  0  0  0
 ITRead=  0  0  0  0  0  0  0  0  0  0  0  0  0  0  0  0  0  0  0  0
 ITRead=  0  0  0  0  0  0  0  0  0  0  0  0  0  0  0  0  0  0  0  0
 ITRead=  0  0  0  0  0  0  0  0  0  0  0  0  0  0  0  0  0
 MicOpt= -1 -1 -1 -1 -1 -1 -1 -1 -1 -1 -1 -1 -1 -1 -1 -1 -1 -1 -1 -1
 MicOpt= -1 -1 -1 -1 -1 -1 -1 -1 -1 -1 -1 -1 -1 -1 -1 -1 -1 -1 -1 -1
 MicOpt= -1 -1 -1 -1 -1 -1 -1 -1 -1 -1 -1 -1 -1 -1 -1 -1 -1 -1 -1 -1
 MicOpt= -1 -1 -1 -1 -1 -1 -1 -1 -1 -1 -1 -1 -1 -1 -1 -1 -1 -1 -1 -1
 MicOpt= -1 -1 -1 -1 -1 -1 -1 -1 -1 -1 -1 -1 -1 -1 -1 -1 -1 -1 -1 -1
 MicOpt= -1 -1 -1 -1 -1 -1 -1 -1 -1 -1 -1 -1 -1 -1 -1 -1 -1 -1 -1 -1
 MicOpt= -1 -1 -1 -1 -1 -1 -1 -1 -1 -1 -1 -1 -1 -1 -1 -1 -1
 NAtoms=    137 NQM=      137 NQMF=       0 NMMI=      0 NMMIF=      0
                NMic=       0 NMicF=      0.
                    Isotopes and Nuclear Properties:
 (Nuclear quadrupole moments (NQMom) in fm**2, nuclear magnetic moments (NMagM)
  in nuclear magnetons)

  Atom         1           2           3           4           5           6           7           8           9          10
 IAtWgt=          12          12          12          12           1          12          12           1          12          12
 AtmWgt=  12.0000000  12.0000000  12.0000000  12.0000000   1.0078250  12.0000000  12.0000000   1.0078250  12.0000000  12.0000000
 NucSpn=           0           0           0           0           1           0           0           1           0           0
 AtZEff=  -0.0000000  -0.0000000  -0.0000000  -0.0000000  -0.0000000  -0.0000000  -0.0000000  -0.0000000  -0.0000000  -0.0000000
 NQMom=    0.0000000   0.0000000   0.0000000   0.0000000   0.0000000   0.0000000   0.0000000   0.0000000   0.0000000   0.0000000
 NMagM=    0.0000000   0.0000000   0.0000000   0.0000000   2.7928460   0.0000000   0.0000000   2.7928460   0.0000000   0.0000000
 AtZNuc=   6.0000000   6.0000000   6.0000000   6.0000000   1.0000000   6.0000000   6.0000000   1.0000000   6.0000000   6.0000000

  Atom        11          12          13          14          15          16          17          18          19          20
 IAtWgt=           1          12           1           1           1          12          12          12          12           1
 AtmWgt=   1.0078250  12.0000000   1.0078250   1.0078250   1.0078250  12.0000000  12.0000000  12.0000000  12.0000000   1.0078250
 NucSpn=           1           0           1           1           1           0           0           0           0           1
 AtZEff=  -0.0000000  -0.0000000  -0.0000000  -0.0000000  -0.0000000  -0.0000000  -0.0000000  -0.0000000  -0.0000000  -0.0000000
 NQMom=    0.0000000   0.0000000   0.0000000   0.0000000   0.0000000   0.0000000   0.0000000   0.0000000   0.0000000   0.0000000
 NMagM=    2.7928460   0.0000000   2.7928460   2.7928460   2.7928460   0.0000000   0.0000000   0.0000000   0.0000000   2.7928460
 AtZNuc=   1.0000000   6.0000000   1.0000000   1.0000000   1.0000000   6.0000000   6.0000000   6.0000000   6.0000000   1.0000000

  Atom        21          22          23          24          25          26          27          28          29          30
 IAtWgt=          12          12           1          12          12           1          12           1           1           1
 AtmWgt=  12.0000000  12.0000000   1.0078250  12.0000000  12.0000000   1.0078250  12.0000000   1.0078250   1.0078250   1.0078250
 NucSpn=           0           0           1           0           0           1           0           1           1           1
 AtZEff=  -0.0000000  -0.0000000  -0.0000000  -0.0000000  -0.0000000  -0.0000000  -0.0000000  -0.0000000  -0.0000000  -0.0000000
 NQMom=    0.0000000   0.0000000   0.0000000   0.0000000   0.0000000   0.0000000   0.0000000   0.0000000   0.0000000   0.0000000
 NMagM=    0.0000000   0.0000000   2.7928460   0.0000000   0.0000000   2.7928460   0.0000000   2.7928460   2.7928460   2.7928460
 AtZNuc=   6.0000000   6.0000000   1.0000000   6.0000000   6.0000000   1.0000000   6.0000000   1.0000000   1.0000000   1.0000000

  Atom        31          32          33          34          35          36          37          38          39          40
 IAtWgt=          12          12          12          12           1          12          12           1          12          12
 AtmWgt=  12.0000000  12.0000000  12.0000000  12.0000000   1.0078250  12.0000000  12.0000000   1.0078250  12.0000000  12.0000000
 NucSpn=           0           0           0           0           1           0           0           1           0           0
 AtZEff=  -0.0000000  -0.0000000  -0.0000000  -0.0000000  -0.0000000  -0.0000000  -0.0000000  -0.0000000  -0.0000000  -0.0000000
 NQMom=    0.0000000   0.0000000   0.0000000   0.0000000   0.0000000   0.0000000   0.0000000   0.0000000   0.0000000   0.0000000
 NMagM=    0.0000000   0.0000000   0.0000000   0.0000000   2.7928460   0.0000000   0.0000000   2.7928460   0.0000000   0.0000000
 AtZNuc=   6.0000000   6.0000000   6.0000000   6.0000000   1.0000000   6.0000000   6.0000000   1.0000000   6.0000000   6.0000000

  Atom        41          42          43          44          45          46          47          48          49          50
 IAtWgt=           1          12           1           1          12          12          14          14          12          12
 AtmWgt=   1.0078250  12.0000000   1.0078250   1.0078250  12.0000000  12.0000000  14.0030740  14.0030740  12.0000000  12.0000000
 NucSpn=           1           0           1           1           0           0           2           2           0           0
 AtZEff=  -0.0000000  -0.0000000  -0.0000000  -0.0000000  -0.0000000  -0.0000000  -0.0000000  -0.0000000  -0.0000000  -0.0000000
 NQMom=    0.0000000   0.0000000   0.0000000   0.0000000   0.0000000   0.0000000   2.0440000   2.0440000   0.0000000   0.0000000
 NMagM=    2.7928460   0.0000000   2.7928460   2.7928460   0.0000000   0.0000000   0.4037610   0.4037610   0.0000000   0.0000000
 AtZNuc=   1.0000000   6.0000000   1.0000000   1.0000000   6.0000000   6.0000000   7.0000000   7.0000000   6.0000000   6.0000000

  Atom        51          52          53          54          55          56          57          58          59          60
 IAtWgt=          14          14          12          12          14          14          12          12          14          14
 AtmWgt=  14.0030740  14.0030740  12.0000000  12.0000000  14.0030740  14.0030740  12.0000000  12.0000000  14.0030740  14.0030740
 NucSpn=           2           2           0           0           2           2           0           0           2           2
 AtZEff=  -0.0000000  -0.0000000  -0.0000000  -0.0000000  -0.0000000  -0.0000000  -0.0000000  -0.0000000  -0.0000000  -0.0000000
 NQMom=    2.0440000   2.0440000   0.0000000   0.0000000   2.0440000   2.0440000   0.0000000   0.0000000   2.0440000   2.0440000
 NMagM=    0.4037610   0.4037610   0.0000000   0.0000000   0.4037610   0.4037610   0.0000000   0.0000000   0.4037610   0.4037610
 AtZNuc=   7.0000000   7.0000000   6.0000000   6.0000000   7.0000000   7.0000000   6.0000000   6.0000000   7.0000000   7.0000000

  Atom        61          62          63          64          65          66          67          68          69          70
 IAtWgt=          12          12          14          14           1           1           1          12          12          12
 AtmWgt=  12.0000000  12.0000000  14.0030740  14.0030740   1.0078250   1.0078250   1.0078250  12.0000000  12.0000000  12.0000000
 NucSpn=           0           0           2           2           1           1           1           0           0           0
 AtZEff=  -0.0000000  -0.0000000  -0.0000000  -0.0000000  -0.0000000  -0.0000000  -0.0000000  -0.0000000  -0.0000000  -0.0000000
 NQMom=    0.0000000   0.0000000   2.0440000   2.0440000   0.0000000   0.0000000   0.0000000   0.0000000   0.0000000   0.0000000
 NMagM=    0.0000000   0.0000000   0.4037610   0.4037610   2.7928460   2.7928460   2.7928460   0.0000000   0.0000000   0.0000000
 AtZNuc=   6.0000000   6.0000000   7.0000000   7.0000000   1.0000000   1.0000000   1.0000000   6.0000000   6.0000000   6.0000000

  Atom        71          72          73          74          75          76          77          78          79          80
 IAtWgt=          12          12           1          12           1           1          12           1           1          12
 AtmWgt=  12.0000000  12.0000000   1.0078250  12.0000000   1.0078250   1.0078250  12.0000000   1.0078250   1.0078250  12.0000000
 NucSpn=           0           0           1           0           1           1           0           1           1           0
 AtZEff=  -0.0000000  -0.0000000  -0.0000000  -0.0000000  -0.0000000  -0.0000000  -0.0000000  -0.0000000  -0.0000000  -0.0000000
 NQMom=    0.0000000   0.0000000   0.0000000   0.0000000   0.0000000   0.0000000   0.0000000   0.0000000   0.0000000   0.0000000
 NMagM=    0.0000000   0.0000000   2.7928460   0.0000000   2.7928460   2.7928460   0.0000000   2.7928460   2.7928460   0.0000000
 AtZNuc=   6.0000000   6.0000000   1.0000000   6.0000000   1.0000000   1.0000000   6.0000000   1.0000000   1.0000000   6.0000000

  Atom        81          82          83          84          85          86          87          88          89          90
 IAtWgt=           1           1           1           1           1           1          12           1           1          12
 AtmWgt=   1.0078250   1.0078250   1.0078250   1.0078250   1.0078250   1.0078250  12.0000000   1.0078250   1.0078250  12.0000000
 NucSpn=           1           1           1           1           1           1           0           1           1           0
 AtZEff=  -0.0000000  -0.0000000  -0.0000000  -0.0000000  -0.0000000  -0.0000000  -0.0000000  -0.0000000  -0.0000000  -0.0000000
 NQMom=    0.0000000   0.0000000   0.0000000   0.0000000   0.0000000   0.0000000   0.0000000   0.0000000   0.0000000   0.0000000
 NMagM=    2.7928460   2.7928460   2.7928460   2.7928460   2.7928460   2.7928460   0.0000000   2.7928460   2.7928460   0.0000000
 AtZNuc=   1.0000000   1.0000000   1.0000000   1.0000000   1.0000000   1.0000000   6.0000000   1.0000000   1.0000000   6.0000000

  Atom        91          92          93          94          95          96          97          98          99         100
 IAtWgt=           1           1          12           1           1           1           1           1           1          12
 AtmWgt=   1.0078250   1.0078250  12.0000000   1.0078250   1.0078250   1.0078250   1.0078250   1.0078250   1.0078250  12.0000000
 NucSpn=           1           1           0           1           1           1           1           1           1           0
 AtZEff=  -0.0000000  -0.0000000  -0.0000000  -0.0000000  -0.0000000  -0.0000000  -0.0000000  -0.0000000  -0.0000000  -0.0000000
 NQMom=    0.0000000   0.0000000   0.0000000   0.0000000   0.0000000   0.0000000   0.0000000   0.0000000   0.0000000   0.0000000
 NMagM=    2.7928460   2.7928460   0.0000000   2.7928460   2.7928460   2.7928460   2.7928460   2.7928460   2.7928460   0.0000000
 AtZNuc=   1.0000000   1.0000000   6.0000000   1.0000000   1.0000000   1.0000000   1.0000000   1.0000000   1.0000000   6.0000000

  Atom       101         102         103         104         105         106         107         108         109         110
 IAtWgt=           1          12           1           1          12           1           1           1           1           1
 AtmWgt=   1.0078250  12.0000000   1.0078250   1.0078250  12.0000000   1.0078250   1.0078250   1.0078250   1.0078250   1.0078250
 NucSpn=           1           0           1           1           0           1           1           1           1           1
 AtZEff=  -0.0000000  -0.0000000  -0.0000000  -0.0000000  -0.0000000  -0.0000000  -0.0000000  -0.0000000  -0.0000000  -0.0000000
 NQMom=    0.0000000   0.0000000   0.0000000   0.0000000   0.0000000   0.0000000   0.0000000   0.0000000   0.0000000   0.0000000
 NMagM=    2.7928460   0.0000000   2.7928460   2.7928460   0.0000000   2.7928460   2.7928460   2.7928460   2.7928460   2.7928460
 AtZNuc=   1.0000000   6.0000000   1.0000000   1.0000000   6.0000000   1.0000000   1.0000000   1.0000000   1.0000000   1.0000000

  Atom       111         112         113         114         115         116         117         118         119         120
 IAtWgt=           1           1          12           1          12           1           1          12           1           1
 AtmWgt=   1.0078250   1.0078250  12.0000000   1.0078250  12.0000000   1.0078250   1.0078250  12.0000000   1.0078250   1.0078250
 NucSpn=           1           1           0           1           0           1           1           0           1           1
 AtZEff=  -0.0000000  -0.0000000  -0.0000000  -0.0000000  -0.0000000  -0.0000000  -0.0000000  -0.0000000  -0.0000000  -0.0000000
 NQMom=    0.0000000   0.0000000   0.0000000   0.0000000   0.0000000   0.0000000   0.0000000   0.0000000   0.0000000   0.0000000
 NMagM=    2.7928460   2.7928460   0.0000000   2.7928460   0.0000000   2.7928460   2.7928460   0.0000000   2.7928460   2.7928460
 AtZNuc=   1.0000000   1.0000000   6.0000000   1.0000000   6.0000000   1.0000000   1.0000000   6.0000000   1.0000000   1.0000000

  Atom       121         122         123         124         125         126         127         128         129         130
 IAtWgt=           1           1           1           1           1          12           1          12           1           1
 AtmWgt=   1.0078250   1.0078250   1.0078250   1.0078250   1.0078250  12.0000000   1.0078250  12.0000000   1.0078250   1.0078250
 NucSpn=           1           1           1           1           1           0           1           0           1           1
 AtZEff=  -0.0000000  -0.0000000  -0.0000000  -0.0000000  -0.0000000  -0.0000000  -0.0000000  -0.0000000  -0.0000000  -0.0000000
 NQMom=    0.0000000   0.0000000   0.0000000   0.0000000   0.0000000   0.0000000   0.0000000   0.0000000   0.0000000   0.0000000
 NMagM=    2.7928460   2.7928460   2.7928460   2.7928460   2.7928460   0.0000000   2.7928460   0.0000000   2.7928460   2.7928460
 AtZNuc=   1.0000000   1.0000000   1.0000000   1.0000000   1.0000000   6.0000000   1.0000000   6.0000000   1.0000000   1.0000000

  Atom       131         132         133         134         135         136         137
 IAtWgt=          12           1           1           1           1           1           1
 AtmWgt=  12.0000000   1.0078250   1.0078250   1.0078250   1.0078250   1.0078250   1.0078250
 NucSpn=           0           1           1           1           1           1           1
 AtZEff=  -0.0000000  -0.0000000  -0.0000000  -0.0000000  -0.0000000  -0.0000000  -0.0000000
 NQMom=    0.0000000   0.0000000   0.0000000   0.0000000   0.0000000   0.0000000   0.0000000
 NMagM=    0.0000000   2.7928460   2.7928460   2.7928460   2.7928460   2.7928460   2.7928460
 AtZNuc=   6.0000000   1.0000000   1.0000000   1.0000000   1.0000000   1.0000000   1.0000000
 Leave Link  101 at Mon Nov 15 12:13:32 2021, MaxMem=  7864320000 cpu:               3.6 elap:               0.1
 (Enter /apps/gaussian/g16-c01-avx/g16/l202.exe)
 Stoichiometry    C57H70N10
 Framework group  C1[X(C57H70N10)]
 Deg. of freedom   405
 Full point group                 C1      NOp   1
 Largest Abelian subgroup         C1      NOp   1
 Largest concise Abelian subgroup C1      NOp   1
                         Standard orientation:                         
 ---------------------------------------------------------------------
 Center     Atomic      Atomic             Coordinates (Angstroms)
 Number     Number       Type             X           Y           Z
 ---------------------------------------------------------------------
      1          6           0        0.727597   -2.972786   -0.649754
      2          6           0       -0.118204   -3.095539   -1.825646
      3          6           0        0.197633   -2.957553    0.639250
      4          6           0        1.023971   -2.757391    1.740375
      5          1           0       -0.865508   -3.099684    0.759807
      6          6           0        2.384113   -2.516131    1.543852
      7          6           0        2.926141   -2.528564    0.264287
      8          1           0        2.999671   -2.327873    2.410215
      9          6           0        2.094858   -2.789117   -0.823574
     10          6           0        4.321674   -2.176631    0.038197
     11          1           0        2.536366   -2.807412   -1.807471
     12          6           0        0.460092   -2.772277    3.081381
     13          1           0        4.813524   -1.639378    0.864563
     14          1           0        0.424526   -3.186654   -2.778871
     15          1           0       -0.622369   -2.961729    3.136298
     16          6           0       -2.734780    0.659471    1.291395
     17          6           0       -3.786133   -0.176463    0.724408
     18          6           0       -2.458365    1.921515    0.766909
     19          6           0       -1.462329    2.719706    1.318150
     20          1           0       -3.040730    2.268610   -0.073796
     21          6           0       -0.714228    2.235661    2.390896
     22          6           0       -0.979855    0.981232    2.926640
     23          1           0        0.063982    2.863412    2.796960
     24          6           0       -1.997788    0.202766    2.377667
     25          6           0       -0.180574    0.464816    4.029152
     26          1           0       -2.191805   -0.765726    2.812167
     27          6           0       -1.191814    4.030464    0.748764
     28          1           0        0.785691    0.966387    4.194869
     29          1           0       -3.933314   -1.135478    1.233570
     30          1           0       -1.748889    4.267963   -0.171205
     31          6           0        0.441693    0.773621   -2.482727
     32          6           0       -0.881529    0.174873   -2.602780
     33          6           0        1.568209    0.055490   -2.879039
     34          6           0        2.847452    0.522951   -2.598047
     35          1           0        1.420553   -0.894288   -3.368455
     36          6           0        2.999373    1.747594   -1.949830
     37          6           0        1.885832    2.508620   -1.614479
     38          1           0        3.997642    2.088024   -1.720808
     39          6           0        0.609205    2.009913   -1.869766
     40          6           0        2.037558    3.775548   -0.908804
     41          1           0       -0.243333    2.594472   -1.560797
     42          6           0        3.991098   -0.327241   -2.886773
     43          1           0        2.946989    3.871297   -0.293966
     44          1           0        3.764124   -1.236775   -3.463578
     45          6           0       -2.369833   -1.474155   -3.313205
     46          6           0       -2.081142   -2.969937   -3.032422
     47          7           0       -1.106245   -0.807386   -3.360620
     48          7           0       -1.379058   -3.039487   -1.786445
     49          6           0       -6.785661    0.383377   -0.833480
     50          6           0       -5.527622   -0.531100   -0.862943
     51          7           0       -6.555781    1.706893   -1.375172
     52          7           0       -4.452526    0.206716   -0.276130
     53          6           0        0.515542   -2.535040    5.389968
     54          6           0        0.285727   -1.045827    5.743471
     55          7           0        1.160861   -2.584986    4.114100
     56          7           0       -0.568878   -0.503347    4.736514
     57          6           0        6.216774   -1.897398   -1.291629
     58          6           0        6.152567   -1.098473   -2.617603
     59          7           0        4.907821   -2.417787   -1.051470
     60          7           0        5.152586   -0.088190   -2.453868
     61          6           0       -0.080415    6.047813    0.542838
     62          6           0        1.285004    5.848425   -0.153806
     63          7           0       -0.370956    4.843110    1.256623
     64          7           0        1.167334    4.683315   -0.974167
     65          1           0       -5.788902    2.143501   -0.874777
     66          1           0       -6.280689    1.638261   -2.350501
     67          1           0       -1.654381    0.598850   -1.942667
     68          6           0       -5.862508   -1.899835   -0.265577
     69          6           0       -3.100209   -1.349532   -4.651571
     70          6           0        1.604112    7.092858   -0.983218
     71          6           0        7.244116   -3.020485   -1.439060
     72          6           0       -0.382769   -0.949274    7.115750
     73          1           0        1.266568   -0.536768    5.768800
     74          6           0        0.481796   -1.614071    8.181165
     75          1           0       -0.543012    0.103629    7.357801
     76          1           0       -1.358957   -1.434244    7.062783
     77          6           0        0.741541   -3.075708    7.828871
     78          1           0       -0.015771   -1.546501    9.150757
     79          1           0        1.434713   -1.084787    8.255487
     80          6           0        1.392556   -3.188520    6.454714
     81          1           0       -0.205283   -3.620873    7.826262
     82          1           0        1.388259   -3.531044    8.581375
     83          1           0        2.365721   -2.694908    6.454518
     84          1           0        1.548130   -4.236639    6.191793
     85          1           0       -0.476978   -3.018240    5.361698
     86          1           0       -3.003258   -1.078917   -2.499712
     87          6           0       -4.400974   -2.145789   -4.632021
     88          1           0       -2.444092   -1.717046   -5.442613
     89          1           0       -3.303517   -0.294238   -4.847545
     90          6           0       -4.138924   -3.612852   -4.303349
     91          1           0       -4.894777   -2.064012   -5.602701
     92          1           0       -5.072215   -1.722542   -3.880655
     93          6           0       -3.392708   -3.746013   -2.979840
     94          1           0       -3.540885   -4.059583   -5.101048
     95          1           0       -5.084517   -4.156728   -4.250352
     96          1           0       -3.179235   -4.795728   -2.768515
     97          1           0       -3.999222   -3.355343   -2.162312
     98          1           0       -1.457028   -3.339429   -3.865716
     99          1           0        2.063234    5.719649    0.619860
    100          6           0       -0.001324    7.252619    1.475416
    101          1           0       -0.827669    6.233526   -0.249708
    102          6           0        0.349400    8.505212    0.678034
    103          1           0        0.756007    7.060537    2.237149
    104          1           0       -0.961065    7.380030    1.980054
    105          6           0        1.662426    8.320356   -0.078949
    106          1           0        0.427926    9.360967    1.351338
    107          1           0       -0.451752    8.712935   -0.035261
    108          1           0        2.478322    8.200251    0.637833
    109          1           0        1.872325    9.207892   -0.679340
    110          1           0        0.833473    7.217253   -1.745896
    111          1           0        2.560605    6.948572   -1.490749
    112          1           0        6.535183   -1.213061   -0.484445
    113          6           0        7.520905   -0.492245   -2.911487
    114          1           0        5.875496   -1.812948   -3.413226
    115          6           0        8.568689   -1.594607   -3.030639
    116          1           0        7.781490    0.195450   -2.105363
    117          1           0        7.466356    0.081671   -3.838543
    118          6           0        8.617096   -2.437781   -1.759063
    119          1           0        9.548979   -1.152988   -3.219866
    120          1           0        8.321043   -2.236129   -3.879825
    121          1           0        9.339789   -3.247602   -1.877607
    122          1           0        8.946538   -1.814227   -0.924617
    123          1           0        6.920443   -3.692390   -2.235702
    124          1           0        7.281485   -3.593205   -0.509691
    125          1           0       -5.250454   -0.655554   -1.920779
    126          6           0       -7.923181   -0.292748   -1.597894
    127          1           0       -7.079053    0.515538    0.215524
    128          6           0       -8.239513   -1.668649   -1.022815
    129          1           0       -7.635150   -0.391131   -2.648064
    130          1           0       -8.801143    0.352707   -1.552792
    131          6           0       -6.997916   -2.554584   -1.045221
    132          1           0       -9.040379   -2.134774   -1.600153
    133          1           0       -8.588318   -1.559564    0.006547
    134          1           0       -6.685299   -2.718037   -2.079784
    135          1           0       -7.227122   -3.529935   -0.610137
    136          1           0       -6.166053   -1.773125    0.777081
    137          1           0       -4.975864   -2.539626   -0.288298
 ---------------------------------------------------------------------
 Rotational constants (GHZ):           0.0301744           0.0238463           0.0232715
 Leave Link  202 at Mon Nov 15 12:13:32 2021, MaxMem=  7864320000 cpu:               0.3 elap:               0.0
 (Enter /apps/gaussian/g16-c01-avx/g16/l301.exe)
 Standard basis: Aug-CC-pVDZ (5D, 7F)
 Ernie: Thresh=  0.10000D-02 Tol=  0.10000D-05 Strict=F.
 Ernie:  134 primitive shells out of 2165 were deleted.
 There are  2305 symmetry adapted cartesian basis functions of A   symmetry.
 There are  2171 symmetry adapted basis functions of A   symmetry.
  2171 basis functions,  3651 primitive gaussians,  2305 cartesian basis functions
   241 alpha electrons      241 beta electrons
       nuclear repulsion energy     10439.7883638270 Hartrees.
 IExCor=    0 DFT=F Ex=HF Corr=None ExCW=0 ScaHFX=  1.000000
 ScaDFX=  1.000000  1.000000  1.000000  1.000000 ScalE2=  1.000000  1.000000
 IRadAn=      7 IRanWt=     -1 IRanGd=            0 ICorTp=0 IEmpDi=  4
 NAtoms=  137 NActive=  137 NUniq=  137 SFac= 1.00D+00 NAtFMM=   60 NAOKFM=T Big=T
 Integral buffers will be    131072 words long.
 Raffenetti 1 integral format.
 Two-electron integral symmetry is turned on.
 ------------------------------------------------------------------------------
 Polarizable Continuum Model (PCM)
 =================================
 Model                : PCM.
 Atomic radii         : UFF (Universal Force Field).
 Polarization charges : Total charges.
 Charge compensation  : None.
 Solution method      : On-the-fly selection.
 Cavity type          : Scaled VdW (van der Waals Surface) (Alpha=1.100).
 Cavity algorithm     : GePol (No added spheres)
                        Default sphere list used, NSphG=  137.
                        Lebedev-Laikov grids with approx.  5.0 points / Ang**2.
                        Smoothing algorithm: York/Karplus (Gamma=1.0000).
                        Polarization charges: spherical gaussians, with
                                              point-specific exponents (IZeta= 3).
                        Self-potential: point-specific (ISelfS= 7).
                        Self-field    : sphere-specific E.n sum rule (ISelfD= 2).
 Solvent              : Dichloromethane, Eps=   8.930000 Eps(inf)=   2.028346
 ------------------------------------------------------------------------------
 GePol: Number of generator spheres                  =     137
 GePol: Total number of spheres                      =     137
 GePol: Number of exposed spheres                    =     137 (100.00%)
 GePol: Number of points                             =    7914
 GePol: Average weight of points                     =       0.13
 GePol: Minimum weight of points                     =   0.24D-11
 GePol: Maximum weight of points                     =    0.20577
 GePol: Number of points with low weight             =     740
 GePol: Fraction of low-weight points (<1% of avg)   =       9.35%
 GePol: Cavity surface area                          =   1001.676 Ang**2
 GePol: Cavity volume                                =   1264.224 Ang**3
 Leave Link  301 at Mon Nov 15 12:13:32 2021, MaxMem=  7864320000 cpu:               1.9 elap:               0.1
 (Enter /apps/gaussian/g16-c01-avx/g16/l302.exe)
 NPDir=0 NMtPBC=     1 NCelOv=     1 NCel=       1 NClECP=     1 NCelD=      1
         NCelK=      1 NCelE2=     1 NClLst=     1 CellRange=     0.0.
 One-electron integrals computed using PRISM.
 One-electron integral symmetry used in STVInt
 NBasis=  2171 RedAO= T EigKep=  1.04D-06  NBF=  2171
 NBsUse=  2146 1.00D-06 EigRej=  9.63D-07 NBFU=  2146
 Leave Link  302 at Mon Nov 15 12:13:48 2021, MaxMem=  7864320000 cpu:             487.8 elap:              15.4
 (Enter /apps/gaussian/g16-c01-avx/g16/l303.exe)
 DipDrv:  MaxL=1.
 Leave Link  303 at Mon Nov 15 12:13:49 2021, MaxMem=  7864320000 cpu:              35.8 elap:               1.3
 (Enter /apps/gaussian/g16-c01-avx/g16/l401.exe)
 ExpMin= 2.97D-02 ExpMax= 9.05D+03 ExpMxC= 3.09D+02 IAcc=3 IRadAn=         7 AccDes= 0.00D+00
 Harris functional with IExCor=  205 and IRadAn=       7 diagonalized for initial guess.
 HarFok:  IExCor=  205 AccDes= 0.00D+00 IRadAn=         7 IDoV= 1 UseB2=F ITyADJ=14
 ICtDFT=  3500011 ScaDFX=  1.000000  1.000000  1.000000  1.000000
 FoFCou: FMM=F IPFlag=           0 FMFlag=      100000 FMFlg1=        2001
         NFxFlg=           0 DoJE=T BraDBF=F KetDBF=T FulRan=T
         wScrn=  0.000000 ICntrl=       500 IOpCl=  0 I1Cent=   200000004 NGrid=           0
         NMat0=    1 NMatS0=      1 NMatT0=    0 NMatD0=    1 NMtDS0=    0 NMtDT0=    0
 Petite list used in FoFCou.
 Harris En= -2748.12288579017    
 JPrj=0 DoOrth=F DoCkMO=F.
 Leave Link  401 at Mon Nov 15 12:14:47 2021, MaxMem=  7864320000 cpu:            1828.8 elap:              57.7
 (Enter /apps/gaussian/g16-c01-avx/g16/l508.exe)
 Integral symmetry usage will be decided dynamically.
 Tight linear equation convergence will be used.
 RHF wavefunction.
 Linear searches until partial convergence.
 Full line searches.
 Fock matrices will be formed incrementally for  20 cycles.
 Inv3:  Mode=1 IEnd=   187894188.
 Iteration    1 A*A^-1 deviation from unit magnitude is 9.55D-15 for   7905.
 Iteration    1 A*A^-1 deviation from orthogonality  is 7.27D-15 for   7911   5980.
 Iteration    1 A^-1*A deviation from unit magnitude is 9.55D-15 for   7905.
 Iteration    1 A^-1*A deviation from orthogonality  is 3.73D-15 for   7893   7817.
 FoFJK:  IHMeth= 1 ICntrl=       0 DoSepK=F KAlg= 0 I1Cent=           0 FoldK=F
 IRaf= 920000000 NMat=       1 IRICut=       1 DoRegI=T DoRafI=F ISym2E= 1 IDoP0=0 IntGTp=1.
 Iteration   1 EE= -2741.52232458752                                    Grad=2.502D+00 Max rot=    1.8907 deg.
 Gradient too large for Newton-Raphson -- use scaled steepest descent instead.
 Alpha Gap=     0.421 HL deriv= 3.06D-03
     ILin= 1 X=0.000D+00 Y=-2.741522324588D+03 DE= 0.00D+00 F= -7.54D+00
 RMSU=  7.54D-03    CP:  7.78D-01
     ILin= 2 X=3.000D-01 Y=-2.743232532237D+03 DE=-1.71D+00 F= -3.85D+00 OKLS=F
 RMSU=  1.78D-03    CP:  6.62D-01  1.58D+00
     ILin= 3 X=5.000D-01 Y=-2.743755074519D+03 DE=-2.23D+00 F= -1.37D+00
 RMSU=  7.07D-03    CP:  4.89D-01  2.74D+00  3.00D+00
     ILin= 4 X=1.000D+00 Y=-2.742889323616D+03 DE=-1.37D+00 F=  4.81D+00
     An  expanding polynomial of degree  4 produced  0.6108
 RMSU=  4.12D-06    CP:  6.10D-01  1.88D+00  1.90D+00  5.34D-06
 Iteration   2 EE= -2743.83051083409     Delta-E=       -2.308186246566 Grad=8.460D-01 Max rot=    0.8750 deg.
 Gradient too large for Newton-Raphson -- use scaled steepest descent instead.
 Alpha Gap=     0.453 HL deriv= 2.43D-03
     ILin= 1 X=0.000D+00 Y=-2.743830510834D+03 DE= 0.00D+00 F= -4.35D-01
 RMSU=  1.84D-03    CP:  5.46D-01  2.09D+00  3.00D+00  1.20D-02  3.00D+00
     ILin= 2 X=4.000D-01 Y=-2.743960291015D+03 DE=-1.30D-01 F= -2.14D-01 OKLS=F
 RMSU=  4.92D-04    CP:  4.84D-01  2.31D+00  3.00D+00  4.47D-01  3.00D+00
                    CP:  2.11D+00
     ILin= 3 X=9.000D-01 Y=-2.743998542085D+03 DE=-1.68D-01 F=  6.08D-02
     Accept linear search using points  2 and  3.
     An  expanding polynomial of degree  3 produced  0.6897
 RMSU=  1.68D-06    CP:  5.08D-01  2.22D+00  3.00D+00  2.54D-01  3.00D+00
                    CP:  1.66D+00  4.44D-01
 Iteration   3 EE= -2743.99919927253     Delta-E=       -0.168688438443 Grad=2.927D-01 Max rot=    0.3139 deg.
 Gradient too large for Newton-Raphson -- use scaled steepest descent instead.
 Alpha Gap=     0.443 HL deriv= 9.34D-04
     ILin= 1 X=0.000D+00 Y=-2.743999199273D+03 DE= 0.00D+00 F= -5.67D-02
 RMSU=  7.28D-04    CP:  4.80D-01  2.26D+00  3.00D+00  4.16D-01  3.00D+00
                    CP:  2.00D+00  1.20D+00  6.67D-01
     ILin= 2 X=6.000D-01 Y=-2.744022038130D+03 DE=-2.28D-02 F= -1.94D-02 OKLS=F
 RMSU=  9.59D-05    CP:  4.53D-01  2.29D+00  3.00D+00  6.20D-01  3.00D+00
                    CP:  2.38D+00  2.25D+00 -3.00D+00  2.15D+00
     ILin= 3 X=1.300D+00 Y=-2.744020434825D+03 DE=-2.12D-02 F=  2.40D-02
     An  expanding polynomial of degree  3 produced  0.9131
 RMSU=  4.08D-06    CP:  4.68D-01  2.27D+00  3.00D+00  5.05D-01  3.00D+00
                    CP:  2.17D+00  1.65D+00 -3.00D+00  1.52D+00  3.06D-01
 Iteration   4 EE= -2744.02508144067     Delta-E=       -0.025882168135 Grad=8.778D-02 Max rot=    0.2135 deg.
 Gradient too large for Newton-Raphson -- use scaled steepest descent instead.
 Alpha Gap=     0.451 HL deriv= 6.47D-04
     ILin= 1 X=0.000D+00 Y=-2.744025081441D+03 DE= 0.00D+00 F= -1.15D-02
 RMSU=  3.64D-04    CP:  4.58D-01  2.22D+00  3.00D+00  4.93D-01  3.00D+00
                    CP:  2.37D+00  2.01D+00 -3.00D+00  1.83D+00  1.72D+00
                    CP: -3.00D+00
     ILin= 2 X=8.000D-01 Y=-2.744028626594D+03 DE=-3.55D-03 F=  2.63D-03 OKLS=T
     Accept linear search using points  1 and  2.
     An  expanding polynomial of degree  2 produced  0.5954
 RMSU=  4.48D-06    CP:  4.61D-01  2.24D+00  3.00D+00  4.96D-01  3.00D+00
                    CP:  2.32D+00  1.91D+00 -3.00D+00  1.75D+00  1.36D+00
                    CP: -3.00D+00  7.42D-01
 Iteration   5 EE= -2744.02879490462     Delta-E=       -0.003713463951 Grad=3.108D-02 Max rot=    0.0840 deg.
 Gradient too large for Newton-Raphson -- use scaled steepest descent instead.
 Alpha Gap=     0.449 HL deriv= 3.79D-04
     ILin= 1 X=0.000D+00 Y=-2.744028794905D+03 DE= 0.00D+00 F= -1.41D-03
 RMSU=  5.51D-05    CP:  4.57D-01  2.21D+00  3.00D+00  4.92D-01  3.00D+00
                    CP:  2.37D+00  2.08D+00 -3.00D+00  2.05D+00  1.81D+00
                    CP: -3.00D+00  1.03D+00 -3.75D-01
     ILin= 2 X=7.000D-01 Y=-2.744029501274D+03 DE=-7.06D-04 F= -6.13D-04 OKLS=F
 RMSU=  4.19D-06    CP:  4.52D-01  2.18D+00  3.00D+00  4.89D-01  3.00D+00
                    CP:  2.43D+00  2.27D+00 -3.00D+00  2.39D+00  2.35D+00
                    CP: -3.00D+00  1.35D+00 -2.31D+00  2.12D+00
     ILin= 3 X=1.500D+00 Y=-2.744029628781D+03 DE=-8.34D-04 F=  2.94D-04
     Accept linear search using points  2 and  3.
     An  expanding polynomial of degree  3 produced  1.2015
 RMSU=  2.69D-10    CP:  4.54D-01  2.19D+00  3.00D+00  4.90D-01  3.00D+00
                    CP:  2.41D+00  2.20D+00 -3.00D+00  2.26D+00  2.14D+00
                    CP: -3.00D+00  1.23D+00 -1.54D+00  1.71D+00  5.02D-01
 Iteration   6 EE= -2744.02966606433     Delta-E=       -0.000871159707 Grad=1.393D-02 Max rot=    0.0544 deg.
 Gradient too large for Newton-Raphson -- use scaled steepest descent instead.
 Alpha Gap=     0.450 HL deriv= 1.66D-04
     ILin= 1 X=0.000D+00 Y=-2.744029666064D+03 DE= 0.00D+00 F= -3.87D-04
 RMSU=  3.31D-05    CP:  4.53D-01  2.19D+00  3.00D+00  4.81D-01  3.00D+00
                    CP:  2.42D+00  2.23D+00 -3.00D+00  2.28D+00  2.28D+00
                    CP: -3.00D+00  1.41D+00 -9.61D-01  2.08D+00  3.07D-01
                    CP: -3.00D+00
     ILin= 2 X=8.000D-01 Y=-2.744029773473D+03 DE=-1.07D-04 F=  1.19D-04 OKLS=T
     Accept linear search using points  1 and  2.
     An  expanding polynomial of degree  2 produced  0.5599
 RMSU=  3.87D-08    CP:  4.53D-01  2.19D+00  3.00D+00  4.84D-01  3.00D+00
                    CP:  2.42D+00  2.22D+00 -3.00D+00  2.27D+00  2.24D+00
                    CP: -3.00D+00  1.35D+00 -1.13D+00  1.97D+00  3.59D-01
                    CP: -3.00D+00  7.00D-01
 Iteration   7 EE= -2744.02978375597     Delta-E=       -0.000117691645 Grad=4.436D-03 Max rot=    0.0234 deg.
 SCF Done:  E(RHF) =  -2744.02978376     a.u. after    7 cycles
            Convg  =    0.4436D-02                    18 Fock formations.
              S**2 =  0.0000                  -V/T =  2.0002
 Leave Link  508 at Mon Nov 15 16:05:51 2021, MaxMem=  7864320000 cpu:          438320.4 elap:           13863.8
 (Enter /apps/gaussian/g16-c01-avx/g16/l502.exe)
 Integral symmetry usage will be decided dynamically.
 Closed shell SCF:
 Using DIIS extrapolation, IDIIS=  1040.
 NGot=  7864320000 LenX=  7853595672 LenY=  7848280342
 Requested convergence on RMS density matrix=1.00D-08 within 128 cycles.
 Requested convergence on MAX density matrix=1.00D-06.
 Requested convergence on             energy=1.00D-06.
 No special actions if energy rises.
 Fock matrices will be formed incrementally for  20 cycles.

 Cycle   1  Pass 1  IDiag  1:
 FoFJK:  IHMeth= 1 ICntrl=       0 DoSepK=F KAlg= 0 I1Cent=           0 FoldK=F
 IRaf= 920000000 NMat=       1 IRICut=       1 DoRegI=T DoRafI=F ISym2E= 0 IDoP0=0 IntGTp=1.
 FoFCou: FMM=T IPFlag=           0 FMFlag=      100000 FMFlg1=        2001
         NFxFlg=           0 DoJE=F BraDBF=F KetDBF=F FulRan=T
         wScrn=  0.000000 ICntrl=         0 IOpCl=  0 I1Cent=           0 NGrid=           0
         NMat0=    1 NMatS0=      1 NMatT0=    0 NMatD0=    1 NMtDS0=    0 NMtDT0=    0
 Symmetry not used in FoFCou.
 FMM levels:  10  Number of levels for PrismC:   9
 E= -2744.02978370381    
 DIIS: error= 3.35D-05 at cycle   1 NSaved=   1.
 NSaved= 1 IEnMin= 1 EnMin= -2744.02978370381     IErMin= 1 ErrMin= 3.35D-05
 ErrMax= 3.35D-05  0.00D+00 EMaxC= 1.00D-01 BMatC= 9.84D-06 BMatP= 9.84D-06
 IDIUse=1 WtCom= 1.00D+00 WtEn= 0.00D+00
 Coeff-Com:  0.100D+01
 Coeff:      0.100D+01
 Gap=     0.450 Goal=   None    Shift=    0.000
 RMSDP=8.39D-05 MaxDP=1.03D-02              OVMax= 1.67D-03

 Cycle   2  Pass 1  IDiag  1:
 RMSU=  7.66D-05    CP:  9.99D-01
 E= -2744.02982040746     Delta-E=       -0.000036703650 Rises=F Damp=F
 DIIS: error= 2.06D-05 at cycle   2 NSaved=   2.
 NSaved= 2 IEnMin= 2 EnMin= -2744.02982040746     IErMin= 2 ErrMin= 2.06D-05
 ErrMax= 2.06D-05  0.00D+00 EMaxC= 1.00D-01 BMatC= 2.30D-06 BMatP= 9.84D-06
 IDIUse=1 WtCom= 1.00D+00 WtEn= 0.00D+00
 Coeff-Com: -0.126D+00 0.113D+01
 Coeff:     -0.126D+00 0.113D+01
 Gap=     0.351 Goal=   None    Shift=    0.000
 RMSDP=2.43D-05 MaxDP=3.46D-03 DE=-3.67D-05 OVMax= 9.77D-04

 Cycle   3  Pass 1  IDiag  1:
 RMSU=  1.16D-05    CP:  9.99D-01  1.24D+00
 E= -2744.02982982608     Delta-E=       -0.000009418622 Rises=F Damp=F
 DIIS: error= 1.07D-05 at cycle   3 NSaved=   3.
 NSaved= 3 IEnMin= 3 EnMin= -2744.02982982608     IErMin= 3 ErrMin= 1.07D-05
 ErrMax= 1.07D-05  0.00D+00 EMaxC= 1.00D-01 BMatC= 9.99D-07 BMatP= 2.30D-06
 IDIUse=1 WtCom= 1.00D+00 WtEn= 0.00D+00
 Coeff-Com: -0.271D+00 0.367D+00 0.904D+00
 Coeff:     -0.271D+00 0.367D+00 0.904D+00
 Gap=     0.351 Goal=   None    Shift=    0.000
 RMSDP=1.02D-05 MaxDP=9.51D-04 DE=-9.42D-06 OVMax= 6.52D-04

 Cycle   4  Pass 1  IDiag  1:
 RMSU=  6.75D-06    CP:  9.99D-01  1.32D+00  1.39D+00
 E= -2744.02983329644     Delta-E=       -0.000003470363 Rises=F Damp=F
 DIIS: error= 5.39D-06 at cycle   4 NSaved=   4.
 NSaved= 4 IEnMin= 4 EnMin= -2744.02983329644     IErMin= 4 ErrMin= 5.39D-06
 ErrMax= 5.39D-06  0.00D+00 EMaxC= 1.00D-01 BMatC= 1.59D-07 BMatP= 9.99D-07
 IDIUse=1 WtCom= 1.00D+00 WtEn= 0.00D+00
 Coeff-Com:  0.141D+00-0.363D+00-0.339D+00 0.156D+01
 Coeff:      0.141D+00-0.363D+00-0.339D+00 0.156D+01
 Gap=     0.351 Goal=   None    Shift=    0.000
 RMSDP=7.24D-06 MaxDP=8.91D-04 DE=-3.47D-06 OVMax= 5.24D-04

 Cycle   5  Pass 1  IDiag  1:
 RMSU=  4.38D-06    CP:  9.99D-01  1.31D+00  1.70D+00  1.51D+00
 E= -2744.02983448102     Delta-E=       -0.000001184582 Rises=F Damp=F
 DIIS: error= 2.20D-06 at cycle   5 NSaved=   5.
 NSaved= 5 IEnMin= 5 EnMin= -2744.02983448102     IErMin= 5 ErrMin= 2.20D-06
 ErrMax= 2.20D-06  0.00D+00 EMaxC= 1.00D-01 BMatC= 3.93D-08 BMatP= 1.59D-07
 IDIUse=1 WtCom= 1.00D+00 WtEn= 0.00D+00
 Coeff-Com:  0.794D-01-0.139D+00-0.250D+00 0.279D+00 0.103D+01
 Coeff:      0.794D-01-0.139D+00-0.250D+00 0.279D+00 0.103D+01
 Gap=     0.351 Goal=   None    Shift=    0.000
 RMSDP=3.48D-06 MaxDP=4.55D-04 DE=-1.18D-06 OVMax= 2.03D-04

 Cycle   6  Pass 1  IDiag  1:
 RMSU=  1.50D-06    CP:  9.99D-01  1.30D+00  1.78D+00  1.76D+00  1.42D+00
 E= -2744.02983467922     Delta-E=       -0.000000198192 Rises=F Damp=F
 DIIS: error= 7.68D-07 at cycle   6 NSaved=   6.
 NSaved= 6 IEnMin= 6 EnMin= -2744.02983467922     IErMin= 6 ErrMin= 7.68D-07
 ErrMax= 7.68D-07  0.00D+00 EMaxC= 1.00D-01 BMatC= 4.83D-09 BMatP= 3.93D-08
 IDIUse=1 WtCom= 1.00D+00 WtEn= 0.00D+00
 Coeff-Com: -0.302D-01 0.870D-01 0.622D-01-0.382D+00 0.373D-01 0.123D+01
 Coeff:     -0.302D-01 0.870D-01 0.622D-01-0.382D+00 0.373D-01 0.123D+01
 Gap=     0.351 Goal=   None    Shift=    0.000
 RMSDP=1.55D-06 MaxDP=2.12D-04 DE=-1.98D-07 OVMax= 1.04D-04

 Cycle   7  Pass 1  IDiag  1:
 RMSU=  6.10D-07    CP:  9.99D-01  1.31D+00  1.81D+00  1.86D+00  1.61D+00
                    CP:  1.47D+00
 E= -2744.02983471068     Delta-E=       -0.000000031465 Rises=F Damp=F
 DIIS: error= 1.78D-07 at cycle   7 NSaved=   7.
 NSaved= 7 IEnMin= 7 EnMin= -2744.02983471068     IErMin= 7 ErrMin= 1.78D-07
 ErrMax= 1.78D-07  0.00D+00 EMaxC= 1.00D-01 BMatC= 2.89D-10 BMatP= 4.83D-09
 IDIUse=1 WtCom= 1.00D+00 WtEn= 0.00D+00
 Coeff-Com: -0.816D-03-0.170D-02 0.589D-02 0.337D-01-0.847D-01-0.730D-01
 Coeff-Com:  0.112D+01
 Coeff:     -0.816D-03-0.170D-02 0.589D-02 0.337D-01-0.847D-01-0.730D-01
 Coeff:      0.112D+01
 Gap=     0.351 Goal=   None    Shift=    0.000
 RMSDP=3.63D-07 MaxDP=4.29D-05 DE=-3.15D-08 OVMax= 1.17D-05

 Cycle   8  Pass 1  IDiag  1:
 RMSU=  1.84D-07    CP:  9.99D-01  1.31D+00  1.81D+00  1.88D+00  1.58D+00
                    CP:  1.59D+00  1.29D+00
 E= -2744.02983471049     Delta-E=        0.000000000189 Rises=F Damp=F
 DIIS: error= 9.21D-08 at cycle   8 NSaved=   8.
 NSaved= 8 IEnMin= 7 EnMin= -2744.02983471068     IErMin= 8 ErrMin= 9.21D-08
 ErrMax= 9.21D-08  0.00D+00 EMaxC= 1.00D-01 BMatC= 8.04D-11 BMatP= 2.89D-10
 IDIUse=1 WtCom= 1.00D+00 WtEn= 0.00D+00
 Coeff-Com:  0.439D-02-0.132D-01-0.991D-02 0.615D-01-0.297D-01-0.176D+00
 Coeff-Com:  0.143D+00 0.102D+01
 Coeff:      0.439D-02-0.132D-01-0.991D-02 0.615D-01-0.297D-01-0.176D+00
 Coeff:      0.143D+00 0.102D+01
 Gap=     0.351 Goal=   None    Shift=    0.000
 RMSDP=2.47D-07 MaxDP=1.81D-05 DE= 1.89D-10 OVMax= 7.21D-06

 Cycle   9  Pass 1  IDiag  1:
 RMSU=  1.53D-07    CP:  9.99D-01  1.31D+00  1.82D+00  1.88D+00  1.58D+00
                    CP:  1.67D+00  1.46D+00  1.41D+00
 E= -2744.02983471101     Delta-E=       -0.000000000518 Rises=F Damp=F
 DIIS: error= 6.47D-08 at cycle   9 NSaved=   9.
 NSaved= 9 IEnMin= 9 EnMin= -2744.02983471101     IErMin= 9 ErrMin= 6.47D-08
 ErrMax= 6.47D-08  0.00D+00 EMaxC= 1.00D-01 BMatC= 1.73D-11 BMatP= 8.04D-11
 IDIUse=1 WtCom= 1.00D+00 WtEn= 0.00D+00
 Coeff-Com: -0.112D-03 0.158D-02-0.109D-02-0.967D-02 0.155D-01 0.399D-01
 Coeff-Com: -0.241D+00-0.186D+00 0.138D+01
 Coeff:     -0.112D-03 0.158D-02-0.109D-02-0.967D-02 0.155D-01 0.399D-01
 Coeff:     -0.241D+00-0.186D+00 0.138D+01
 Gap=     0.351 Goal=   None    Shift=    0.000
 RMSDP=2.37D-07 MaxDP=1.81D-05 DE=-5.18D-10 OVMax= 4.67D-06

 Cycle  10  Pass 1  IDiag  1:
 RMSU=  8.59D-08    CP:  9.99D-01  1.31D+00  1.82D+00  1.88D+00  1.58D+00
                    CP:  1.73D+00  1.57D+00  2.05D+00  1.97D+00
 E= -2744.02983470977     Delta-E=        0.000000001237 Rises=F Damp=F
 DIIS: error= 2.37D-08 at cycle  10 NSaved=  10.
 NSaved=10 IEnMin= 9 EnMin= -2744.02983471101     IErMin=10 ErrMin= 2.37D-08
 ErrMax= 2.37D-08  0.00D+00 EMaxC= 1.00D-01 BMatC= 3.46D-12 BMatP= 1.73D-11
 IDIUse=1 WtCom= 1.00D+00 WtEn= 0.00D+00
 Coeff-Com: -0.101D-02 0.338D-02 0.204D-02-0.151D-01 0.813D-02 0.496D-01
 Coeff-Com: -0.684D-01-0.287D+00 0.311D+00 0.998D+00
 Coeff:     -0.101D-02 0.338D-02 0.204D-02-0.151D-01 0.813D-02 0.496D-01
 Coeff:     -0.684D-01-0.287D+00 0.311D+00 0.998D+00
 Gap=     0.351 Goal=   None    Shift=    0.000
 RMSDP=2.71D-07 MaxDP=2.46D-05 DE= 1.24D-09 OVMax= 1.94D-06

 Cycle  11  Pass 1  IDiag  1:
 RMSU=  9.12D-08    CP:  9.99D-01  1.31D+00  1.82D+00  1.88D+00  1.58D+00
                    CP:  1.79D+00  1.68D+00  2.60D+00  3.00D+00  1.76D+00
 E= -2744.02983470918     Delta-E=        0.000000000591 Rises=F Damp=F
 DIIS: error= 1.30D-08 at cycle  11 NSaved=  11.
 NSaved=11 IEnMin= 9 EnMin= -2744.02983471101     IErMin=11 ErrMin= 1.30D-08
 ErrMax= 1.30D-08  0.00D+00 EMaxC= 1.00D-01 BMatC= 6.08D-13 BMatP= 3.46D-12
 IDIUse=1 WtCom= 1.00D+00 WtEn= 0.00D+00
 Coeff-Com: -0.103D-03 0.100D-03 0.475D-03-0.138D-03-0.210D-02-0.124D-02
 Coeff-Com:  0.344D-01-0.984D-02-0.193D+00 0.108D+00 0.106D+01
 Coeff:     -0.103D-03 0.100D-03 0.475D-03-0.138D-03-0.210D-02-0.124D-02
 Coeff:      0.344D-01-0.984D-02-0.193D+00 0.108D+00 0.106D+01
 Gap=     0.351 Goal=   None    Shift=    0.000
 RMSDP=2.88D-07 MaxDP=2.56D-05 DE= 5.91D-10 OVMax= 6.73D-07

 Cycle  12  Pass 1  IDiag  1:
 RMSU=  1.52D-07    CP:  9.99D-01  1.31D+00  1.81D+00  1.88D+00  1.58D+00
                    CP:  1.86D+00  1.80D+00  3.00D+00  3.00D+00  2.99D+00
                    CP:  2.47D+00
 E= -2744.02983470818     Delta-E=        0.000000000999 Rises=F Damp=F
 DIIS: error= 1.51D-08 at cycle  12 NSaved=  12.
 NSaved=12 IEnMin= 9 EnMin= -2744.02983471101     IErMin=11 ErrMin= 1.30D-08
 ErrMax= 1.51D-08  0.00D+00 EMaxC= 1.00D-01 BMatC= 2.75D-13 BMatP= 6.08D-13
 IDIUse=1 WtCom= 1.00D+00 WtEn= 0.00D+00
 Coeff-Com:  0.403D-04-0.218D-03 0.201D-04 0.994D-03-0.111D-02-0.364D-02
 Coeff-Com:  0.144D-01 0.142D-01-0.661D-01-0.318D-01 0.244D+00 0.829D+00
 Coeff:      0.403D-04-0.218D-03 0.201D-04 0.994D-03-0.111D-02-0.364D-02
 Coeff:      0.144D-01 0.142D-01-0.661D-01-0.318D-01 0.244D+00 0.829D+00
 Gap=     0.351 Goal=   None    Shift=    0.000
 RMSDP=2.69D-07 MaxDP=2.40D-05 DE= 9.99D-10 OVMax= 1.13D-07

 Cycle  13  Pass 1  IDiag  1:
 RMSU=  1.43D-07    CP:  9.99D-01  1.31D+00  1.81D+00  1.88D+00  1.57D+00
                    CP:  1.92D+00  1.91D+00  3.00D+00  3.00D+00  3.00D+00
                    CP:  3.00D+00  2.02D+00
 E= -2744.02983470765     Delta-E=        0.000000000537 Rises=F Damp=F
 DIIS: error= 1.68D-08 at cycle  13 NSaved=  13.
 NSaved=13 IEnMin= 9 EnMin= -2744.02983471101     IErMin=11 ErrMin= 1.30D-08
 ErrMax= 1.68D-08  0.00D+00 EMaxC= 1.00D-01 BMatC= 2.94D-13 BMatP= 2.75D-13
 IDIUse=1 WtCom= 1.00D+00 WtEn= 0.00D+00
 Coeff-Com:  0.592D-04-0.288D-03-0.101D-04 0.130D-02-0.131D-02-0.466D-02
 Coeff-Com:  0.166D-01 0.196D-01-0.757D-01-0.488D-01 0.265D+00 0.105D+01
 Coeff-Com: -0.222D+00
 Coeff:      0.592D-04-0.288D-03-0.101D-04 0.130D-02-0.131D-02-0.466D-02
 Coeff:      0.166D-01 0.196D-01-0.757D-01-0.488D-01 0.265D+00 0.105D+01
 Coeff:     -0.222D+00
 Gap=     0.351 Goal=   None    Shift=    0.000
 RMSDP=5.31D-08 MaxDP=3.70D-06 DE= 5.37D-10 OVMax= 1.09D-08

 Cycle  14  Pass 1  IDiag  1:
 RMSU=  1.02D-08    CP:  9.99D-01  1.31D+00  1.81D+00  1.88D+00  1.57D+00
                    CP:  1.91D+00  1.89D+00  3.00D+00  3.00D+00  3.00D+00
                    CP:  3.00D+00  1.82D+00  7.69D-01
 E= -2744.02983470701     Delta-E=        0.000000000640 Rises=F Damp=F
 DIIS: error= 1.63D-08 at cycle  14 NSaved=  14.
 NSaved=14 IEnMin= 9 EnMin= -2744.02983471101     IErMin=11 ErrMin= 1.30D-08
 ErrMax= 1.63D-08  0.00D+00 EMaxC= 1.00D-01 BMatC= 2.61D-13 BMatP= 2.75D-13
 IDIUse=1 WtCom= 1.00D+00 WtEn= 0.00D+00
 Coeff-Com:  0.879D-04-0.338D-03-0.106D-03 0.145D-02-0.951D-03-0.479D-02
 Coeff-Com:  0.106D-01 0.228D-01-0.388D-01-0.764D-01 0.443D-01 0.111D+01
 Coeff-Com: -0.438D+01 0.431D+01
 Coeff:      0.879D-04-0.338D-03-0.106D-03 0.145D-02-0.951D-03-0.479D-02
 Coeff:      0.106D-01 0.228D-01-0.388D-01-0.764D-01 0.443D-01 0.111D+01
 Coeff:     -0.438D+01 0.431D+01
 Gap=     0.351 Goal=   None    Shift=    0.000
 RMSDP=2.48D-07 MaxDP=2.09D-05 DE= 6.40D-10 OVMax= 4.72D-08

 Cycle  15  Pass 1  IDiag  1:
 RMSU=  9.69D-08    CP:  9.99D-01  1.31D+00  1.81D+00  1.88D+00  1.58D+00
                    CP:  1.85D+00  1.79D+00  3.00D+00  3.00D+00  2.99D+00
                    CP:  2.68D+00  9.25D-01 -4.02D-02  3.00D+00
 E= -2744.02983470886     Delta-E=       -0.000000001852 Rises=F Damp=F
 DIIS: error= 1.28D-08 at cycle  15 NSaved=  15.
 NSaved=15 IEnMin= 9 EnMin= -2744.02983471101     IErMin=15 ErrMin= 1.28D-08
 ErrMax= 1.28D-08  0.00D+00 EMaxC= 1.00D-01 BMatC= 1.67D-13 BMatP= 2.61D-13
 IDIUse=1 WtCom= 1.00D+00 WtEn= 0.00D+00
 Coeff-Com:  0.193D-04-0.642D-04-0.143D-04 0.214D-03-0.226D-04-0.697D-03
 Coeff-Com:  0.140D-03 0.187D-02 0.830D-02-0.173D-01-0.819D-01 0.193D+00
 Coeff-Com: -0.429D+01 0.331D+01 0.188D+01
 Coeff:      0.193D-04-0.642D-04-0.143D-04 0.214D-03-0.226D-04-0.697D-03
 Coeff:      0.140D-03 0.187D-02 0.830D-02-0.173D-01-0.819D-01 0.193D+00
 Coeff:     -0.429D+01 0.331D+01 0.188D+01
 Gap=     0.351 Goal=   None    Shift=    0.000
 RMSDP=3.52D-07 MaxDP=2.52D-05 DE=-1.85D-09 OVMax= 7.64D-08

 Cycle  16  Pass 1  IDiag  1:
 RMSU=  1.19D-07    CP:  9.99D-01  1.31D+00  1.82D+00  1.88D+00  1.58D+00
                    CP:  1.78D+00  1.66D+00  2.46D+00  3.00D+00  1.54D+00
                    CP:  1.53D+00 -9.66D-02 -5.16D-02  3.00D+00  2.41D+00
 E= -2744.02983471090     Delta-E=       -0.000000002039 Rises=F Damp=F
 DIIS: error= 1.38D-08 at cycle  16 NSaved=  16.
 NSaved=16 IEnMin= 9 EnMin= -2744.02983471101     IErMin=15 ErrMin= 1.28D-08
 ErrMax= 1.38D-08  0.00D+00 EMaxC= 1.00D-01 BMatC= 1.46D-13 BMatP= 1.67D-13
 IDIUse=1 WtCom= 1.00D+00 WtEn= 0.00D+00
 Large coefficients: NSaved= 16 BigCof=    0.00 CofMax=   10.00 Det=-3.53D-15
 Inversion failed.  Reducing to 15 matrices.
 Coeff-Com: -0.316D-04 0.340D-04 0.106D-03-0.123D-03-0.537D-03 0.112D-02
 Coeff-Com:  0.348D-02 0.361D-02-0.278D-01-0.598D-01 0.465D+00-0.487D+01
 Coeff-Com:  0.397D+01 0.728D+00 0.789D+00
 Coeff:     -0.316D-04 0.340D-04 0.106D-03-0.123D-03-0.537D-03 0.112D-02
 Coeff:      0.348D-02 0.361D-02-0.278D-01-0.598D-01 0.465D+00-0.487D+01
 Coeff:      0.397D+01 0.728D+00 0.789D+00
 Gap=     0.351 Goal=   None    Shift=    0.000
 RMSDP=3.55D-07 MaxDP=3.10D-05 DE=-2.04D-09 OVMax= 6.56D-08

 Cycle  17  Pass 1  IDiag  1:
 RMSU=  5.06D-08    CP:  9.99D-01  1.31D+00  1.82D+00  1.89D+00  1.58D+00
                    CP:  1.70D+00  1.53D+00  1.75D+00  1.77D+00  3.48D-01
                    CP:  1.39D-01 -9.74D-02 -1.02D-01  3.00D+00  2.71D+00
                    CP:  1.60D+00
 E= -2744.02983471193     Delta-E=       -0.000000001037 Rises=F Damp=F
 DIIS: error= 9.22D-09 at cycle  17 NSaved=  16.
 NSaved=16 IEnMin=16 EnMin= -2744.02983471193     IErMin=16 ErrMin= 9.22D-09
 ErrMax= 9.22D-09  0.00D+00 EMaxC= 1.00D-01 BMatC= 1.07D-13 BMatP= 1.46D-13
 IDIUse=1 WtCom= 1.00D+00 WtEn= 0.00D+00
 Large coefficients: NSaved= 16 BigCof=    0.00 CofMax=   10.00 Det=-3.56D-15
 Inversion failed.  Reducing to 15 matrices.
 Coeff-Com:  0.203D-04-0.680D-04 0.911D-04 0.814D-04-0.956D-03 0.157D-02
 Coeff-Com:  0.123D-01-0.273D-01-0.910D-01 0.490D+00-0.439D+01 0.397D+01
 Coeff-Com:  0.198D+00 0.679D-01 0.777D+00
 Coeff:      0.203D-04-0.680D-04 0.911D-04 0.814D-04-0.956D-03 0.157D-02
 Coeff:      0.123D-01-0.273D-01-0.910D-01 0.490D+00-0.439D+01 0.397D+01
 Coeff:      0.198D+00 0.679D-01 0.777D+00
 Gap=     0.351 Goal=   None    Shift=    0.000
 RMSDP=1.71D-07 MaxDP=1.70D-05 DE=-1.04D-09 OVMax= 3.18D-08

 Cycle  18  Pass 1  IDiag  1:
 RMSU=  4.22D-08    CP:  9.99D-01  1.31D+00  1.82D+00  1.89D+00  1.58D+00
                    CP:  1.67D+00  1.46D+00  1.45D+00  1.12D+00 -2.84D-01
                    CP: -5.41D-01 -3.29D-02 -1.07D-01  3.00D+00  2.50D+00
                    CP:  1.83D+00  1.74D+00
 E= -2744.02983471139     Delta-E=        0.000000000546 Rises=F Damp=F
 DIIS: error= 5.14D-09 at cycle  18 NSaved=  16.
 NSaved=16 IEnMin=15 EnMin= -2744.02983471193     IErMin=16 ErrMin= 5.14D-09
 ErrMax= 5.14D-09  0.00D+00 EMaxC= 1.00D-01 BMatC= 7.07D-14 BMatP= 1.07D-13
 IDIUse=1 WtCom= 1.00D+00 WtEn= 0.00D+00
 Large coefficients: NSaved= 16 BigCof=    0.00 CofMax=   10.00 Det=-1.88D-15
 Inversion failed.  Reducing to 15 matrices.
 Coeff-Com: -0.680D-04 0.163D-03 0.130D-03-0.177D-02 0.145D-02 0.152D-01
 Coeff-Com: -0.266D-01-0.990D-01 0.435D+00-0.382D+01 0.339D+01 0.288D+00
 Coeff-Com:  0.651D-01 0.369D+00 0.382D+00
 Coeff:     -0.680D-04 0.163D-03 0.130D-03-0.177D-02 0.145D-02 0.152D-01
 Coeff:     -0.266D-01-0.990D-01 0.435D+00-0.382D+01 0.339D+01 0.288D+00
 Coeff:      0.651D-01 0.369D+00 0.382D+00
 Gap=     0.351 Goal=   None    Shift=    0.000
 RMSDP=2.74D-08 MaxDP=2.30D-06 DE= 5.46D-10 OVMax= 8.38D-09

 Cycle  19  Pass 1  IDiag  1:
 RMSU=  1.40D-08    CP:  9.99D-01  1.31D+00  1.82D+00  1.89D+00  1.58D+00
                    CP:  1.67D+00  1.47D+00  1.46D+00  1.10D+00 -2.89D-01
                    CP: -6.70D-01 -2.20D-02 -1.13D-01  3.00D+00  2.43D+00
                    CP:  1.82D+00  2.00D+00  1.30D+00
 E= -2744.02983471065     Delta-E=        0.000000000735 Rises=F Damp=F
 DIIS: error= 6.60D-09 at cycle  19 NSaved=  16.
 NSaved=16 IEnMin=14 EnMin= -2744.02983471193     IErMin=15 ErrMin= 5.14D-09
 ErrMax= 6.60D-09  0.00D+00 EMaxC= 1.00D-01 BMatC= 8.26D-14 BMatP= 7.07D-14
 IDIUse=1 WtCom= 1.00D+00 WtEn= 0.00D+00
 Large coefficients: NSaved= 16 BigCof=    0.00 CofMax=   10.00 Det=-1.87D-15
 Inversion failed.  Reducing to 15 matrices.
 Coeff-Com:  0.718D-04-0.561D-04-0.114D-02 0.169D-02 0.146D-01-0.257D-01
 Coeff-Com: -0.102D+00 0.415D+00-0.371D+01 0.334D+01 0.274D+00-0.470D-01
 Coeff-Com:  0.417D+00 0.736D+00-0.308D+00
 Coeff:      0.718D-04-0.561D-04-0.114D-02 0.169D-02 0.146D-01-0.257D-01
 Coeff:     -0.102D+00 0.415D+00-0.371D+01 0.334D+01 0.274D+00-0.470D-01
 Coeff:      0.417D+00 0.736D+00-0.308D+00
 Gap=     0.351 Goal=   None    Shift=    0.000
 RMSDP=2.01D-08 MaxDP=1.80D-06 DE= 7.35D-10 OVMax= 1.08D-08

 Cycle  20  Pass 1  IDiag  1:
 RMSU=  9.37D-09    CP:  9.99D-01  1.31D+00  1.82D+00  1.89D+00  1.58D+00
                    CP:  1.66D+00  1.46D+00  1.42D+00  1.02D+00 -3.58D-01
                    CP: -7.04D-01 -1.74D-02 -1.08D-01  3.00D+00  2.38D+00
                    CP:  1.82D+00  1.99D+00  1.29D+00  7.28D-01
 E= -2744.02983471168     Delta-E=       -0.000000001026 Rises=F Damp=F
 DIIS: error= 7.19D-09 at cycle  20 NSaved=  16.
 NSaved=16 IEnMin=13 EnMin= -2744.02983471193     IErMin=14 ErrMin= 5.14D-09
 ErrMax= 7.19D-09  0.00D+00 EMaxC= 1.00D-01 BMatC= 7.47D-14 BMatP= 7.07D-14
 IDIUse=1 WtCom= 1.00D+00 WtEn= 0.00D+00
 Large coefficients: NSaved= 16 BigCof=    0.00 CofMax=   10.00 Det=-1.45D-15
 Inversion failed.  Reducing to 15 matrices.
 Coeff-Com: -0.307D-04-0.391D-03 0.135D-02 0.106D-01-0.222D-01-0.830D-01
 Coeff-Com:  0.360D+00-0.313D+01 0.280D+01 0.228D+00-0.112D+00 0.119D+00
 Coeff-Com:  0.120D+01-0.100D+01 0.628D+00
 Coeff:     -0.307D-04-0.391D-03 0.135D-02 0.106D-01-0.222D-01-0.830D-01
 Coeff:      0.360D+00-0.313D+01 0.280D+01 0.228D+00-0.112D+00 0.119D+00
 Coeff:      0.120D+01-0.100D+01 0.628D+00
 Gap=     0.351 Goal=   None    Shift=    0.000
 RMSDP=9.30D-08 MaxDP=8.64D-06 DE=-1.03D-09 OVMax= 1.78D-08

 Cycle  21  Pass 1  IDiag  1:
 Restarting incremental Fock formation.
 E= -2744.02983471731     Delta-E=       -0.000000005628 Rises=F Damp=F
 DIIS: error= 4.84D-08 at cycle  21 NSaved=  16.
 NSaved=16 IEnMin=16 EnMin= -2744.02983471731     IErMin=13 ErrMin= 5.14D-09
 ErrMax= 4.84D-08  0.00D+00 EMaxC= 1.00D-01 BMatC= 4.14D-12 BMatP= 7.07D-14
 IDIUse=1 WtCom= 1.00D+00 WtEn= 0.00D+00
 Large coefficients: NSaved= 16 BigCof=    0.00 CofMax=   10.00 Det=-1.26D-15
 Inversion failed.  Reducing to 15 matrices.
 Coeff-Com: -0.666D-03 0.527D-03 0.114D-01-0.152D-01-0.947D-01 0.950D-01
 Coeff-Com: -0.160D+01 0.149D+01 0.620D+00-0.158D+00-0.687D+00 0.117D+01
 Coeff-Com: -0.381D+00 0.468D+00 0.815D-01
 Coeff:     -0.666D-03 0.527D-03 0.114D-01-0.152D-01-0.947D-01 0.950D-01
 Coeff:     -0.160D+01 0.149D+01 0.620D+00-0.158D+00-0.687D+00 0.117D+01
 Coeff:     -0.381D+00 0.468D+00 0.815D-01
 Gap=     0.351 Goal=   None    Shift=    0.000
 RMSDP=2.46D-07 MaxDP=1.79D-05 DE=-5.63D-09 OVMax= 4.26D-08

 Cycle  22  Pass 1  IDiag  1:
 RMSU=  2.43D-07    CP:  1.00D+00
 E= -2744.02983471666     Delta-E=        0.000000000649 Rises=F Damp=F
 DIIS: error= 4.19D-08 at cycle  22 NSaved=  16.
 NSaved=16 IEnMin=15 EnMin= -2744.02983471731     IErMin=12 ErrMin= 5.14D-09
 ErrMax= 4.19D-08  0.00D+00 EMaxC= 1.00D-01 BMatC= 3.99D-12 BMatP= 7.07D-14
 IDIUse=1 WtCom= 1.00D+00 WtEn= 0.00D+00
 Large coefficients: NSaved= 16 BigCof=    0.00 CofMax=   10.00 Det=-6.29D-16
 Inversion failed.  Reducing to 15 matrices.
 Coeff-Com: -0.519D-03 0.816D-03 0.830D-02-0.137D-01-0.812D-01 0.253D-01
 Coeff-Com:  0.330D+00 0.343D+00-0.263D+00-0.629D+00 0.947D+00 0.885D-02
 Coeff-Com:  0.203D+00-0.522D+00 0.642D+00
 Coeff:     -0.519D-03 0.816D-03 0.830D-02-0.137D-01-0.812D-01 0.253D-01
 Coeff:      0.330D+00 0.343D+00-0.263D+00-0.629D+00 0.947D+00 0.885D-02
 Coeff:      0.203D+00-0.522D+00 0.642D+00
 Gap=     0.351 Goal=   None    Shift=    0.000
 RMSDP=3.92D-07 MaxDP=2.77D-05 DE= 6.49D-10 OVMax= 6.96D-08

 Cycle  23  Pass 1  IDiag  1:
 RMSU=  8.79D-08    CP:  1.00D+00  2.55D+00
 E= -2744.02983471564     Delta-E=        0.000000001020 Rises=F Damp=F
 DIIS: error= 4.47D-08 at cycle  23 NSaved=  16.
 NSaved=16 IEnMin=14 EnMin= -2744.02983471731     IErMin=11 ErrMin= 5.14D-09
 ErrMax= 4.47D-08  0.00D+00 EMaxC= 1.00D-01 BMatC= 3.90D-12 BMatP= 7.07D-14
 IDIUse=1 WtCom= 1.00D+00 WtEn= 0.00D+00
 Large coefficients: NSaved= 16 BigCof=    0.00 CofMax=   10.00 Det=-1.46D-15
 Inversion failed.  Reducing to 15 matrices.
 Coeff-Com: -0.288D-03 0.598D-03 0.714D-02-0.149D-01-0.705D-01 0.107D+00
 Coeff-Com:  0.604D+00-0.162D+00-0.101D+01 0.117D+01-0.830D-01 0.339D+00
 Coeff-Com: -0.631D+00 0.956D+00-0.214D+00
 Coeff:     -0.288D-03 0.598D-03 0.714D-02-0.149D-01-0.705D-01 0.107D+00
 Coeff:      0.604D+00-0.162D+00-0.101D+01 0.117D+01-0.830D-01 0.339D+00
 Coeff:     -0.631D+00 0.956D+00-0.214D+00
 Gap=     0.351 Goal=   None    Shift=    0.000
 RMSDP=1.41D-07 MaxDP=9.51D-06 DE= 1.02D-09 OVMax= 2.59D-08

 Cycle  24  Pass 1  IDiag  1:
 RMSU=  1.25D-08    CP:  1.00D+00  2.01D+00  5.13D-01
 E= -2744.02983471686     Delta-E=       -0.000000001221 Rises=F Damp=F
 DIIS: error= 4.37D-08 at cycle  24 NSaved=  16.
 NSaved=16 IEnMin=13 EnMin= -2744.02983471731     IErMin=10 ErrMin= 5.14D-09
 ErrMax= 4.37D-08  0.00D+00 EMaxC= 1.00D-01 BMatC= 3.96D-12 BMatP= 7.07D-14
 IDIUse=1 WtCom= 1.00D+00 WtEn= 0.00D+00
 Large coefficients: NSaved= 16 BigCof=    0.00 CofMax=   10.00 Det=-1.28D-15
 Inversion failed.  Reducing to 15 matrices.
 Coeff-Com: -0.280D-03-0.173D-03 0.708D-02-0.961D-02-0.671D-01 0.733D+00
 Coeff-Com: -0.172D+00-0.109D+01 0.134D+01-0.310D+00 0.460D+00-0.602D+00
 Coeff-Com:  0.816D+00-0.383D+00 0.278D+00
 Coeff:     -0.280D-03-0.173D-03 0.708D-02-0.961D-02-0.671D-01 0.733D+00
 Coeff:     -0.172D+00-0.109D+01 0.134D+01-0.310D+00 0.460D+00-0.602D+00
 Coeff:      0.816D+00-0.383D+00 0.278D+00
 Gap=     0.351 Goal=   None    Shift=    0.000
 RMSDP=1.31D-08 MaxDP=1.31D-06 DE=-1.22D-09 OVMax= 3.10D-09

 Cycle  25  Pass 1  IDiag  1:
 RMSU=  1.08D-08    CP:  1.00D+00  1.99D+00  4.63D-01  1.14D+00
 E= -2744.02983471587     Delta-E=        0.000000000990 Rises=F Damp=F
 DIIS: error= 4.29D-08 at cycle  25 NSaved=  16.
 NSaved=16 IEnMin=12 EnMin= -2744.02983471731     IErMin= 9 ErrMin= 5.14D-09
 ErrMax= 4.29D-08  0.00D+00 EMaxC= 1.00D-01 BMatC= 3.96D-12 BMatP= 7.07D-14
 IDIUse=1 WtCom= 1.00D+00 WtEn= 0.00D+00
 Large coefficients: NSaved= 16 BigCof=    0.00 CofMax=   10.00 Det=-1.07D-15
 Inversion failed.  Reducing to 15 matrices.
 Coeff-Com:  0.212D-02-0.363D-02-0.123D-01 0.114D-01 0.887D-01 0.286D+00
 Coeff-Com: -0.965D+00 0.127D+01-0.659D+00 0.904D+00-0.351D+00 0.416D+00
 Coeff-Com: -0.179D-01-0.112D+00 0.147D+00
 Coeff:      0.212D-02-0.363D-02-0.123D-01 0.114D-01 0.887D-01 0.286D+00
 Coeff:     -0.965D+00 0.127D+01-0.659D+00 0.904D+00-0.351D+00 0.416D+00
 Coeff:     -0.179D-01-0.112D+00 0.147D+00
 Gap=     0.351 Goal=   None    Shift=    0.000
 RMSDP=2.99D-07 MaxDP=2.46D-05 DE= 9.90D-10 OVMax= 5.42D-08

 Cycle  26  Pass 1  IDiag  1:
 RMSU=  5.76D-08    CP:  1.00D+00  8.04D-01  2.20D-01  3.00D+00 -2.98D-01
 E= -2744.02983471610     Delta-E=       -0.000000000233 Rises=F Damp=F
 DIIS: error= 4.07D-08 at cycle  26 NSaved=  16.
 NSaved=16 IEnMin=11 EnMin= -2744.02983471731     IErMin= 8 ErrMin= 5.14D-09
 ErrMax= 4.07D-08  0.00D+00 EMaxC= 1.00D-01 BMatC= 4.07D-12 BMatP= 7.07D-14
 IDIUse=1 WtCom= 1.00D+00 WtEn= 0.00D+00
 Large coefficients: NSaved= 16 BigCof=    0.00 CofMax=   10.00 Det=-1.07D-15
 Inversion failed.  Reducing to 15 matrices.
 Coeff-Com:  0.644D-03-0.963D-03-0.136D-03-0.433D-02 0.651D+00-0.771D+00
 Coeff-Com:  0.534D+00-0.494D+00 0.985D+00-0.826D+00 0.678D+00 0.147D+01
 Coeff-Com: -0.246D+01 0.239D+00 0.994D+00
 Coeff:      0.644D-03-0.963D-03-0.136D-03-0.433D-02 0.651D+00-0.771D+00
 Coeff:      0.534D+00-0.494D+00 0.985D+00-0.826D+00 0.678D+00 0.147D+01
 Coeff:     -0.246D+01 0.239D+00 0.994D+00
 Gap=     0.351 Goal=   None    Shift=    0.000
 RMSDP=2.82D-07 MaxDP=2.13D-05 DE=-2.33D-10 OVMax= 5.55D-08

 Cycle  27  Pass 1  IDiag  1:
 RMSU=  4.88D-08    CP:  1.00D+00  1.83D+00  1.27D+00 -9.06D-01  9.78D-01
                    CP:  4.29D-01
 E= -2744.02983471677     Delta-E=       -0.000000000668 Rises=F Damp=F
 DIIS: error= 4.25D-08 at cycle  27 NSaved=  16.
 NSaved=16 IEnMin=10 EnMin= -2744.02983471731     IErMin= 7 ErrMin= 5.14D-09
 ErrMax= 4.25D-08  0.00D+00 EMaxC= 1.00D-01 BMatC= 3.78D-12 BMatP= 7.07D-14
 IDIUse=1 WtCom= 1.00D+00 WtEn= 0.00D+00
 Large coefficients: NSaved= 16 BigCof=    0.00 CofMax=   10.00 Det=-9.97D-16
 Inversion failed.  Reducing to 15 matrices.
 Coeff-Com:  0.817D-03-0.141D-02-0.972D-03 0.638D+00-0.591D+00 0.183D+00
 Coeff-Com: -0.441D+00 0.110D+01-0.138D+01 0.929D+00 0.679D+00-0.174D+01
 Coeff-Com: -0.313D+00 0.122D+01 0.714D+00
 Coeff:      0.817D-03-0.141D-02-0.972D-03 0.638D+00-0.591D+00 0.183D+00
 Coeff:     -0.441D+00 0.110D+01-0.138D+01 0.929D+00 0.679D+00-0.174D+01
 Coeff:     -0.313D+00 0.122D+01 0.714D+00
 Gap=     0.351 Goal=   None    Shift=    0.000
 RMSDP=5.10D-08 MaxDP=5.02D-06 DE=-6.68D-10 OVMax= 1.04D-08

 Cycle  28  Pass 1  IDiag  1:
 RMSU=  2.28D-08    CP:  1.00D+00  1.97D+00  1.47D+00 -1.89D+00  1.15D+00
                    CP:  6.41D-01  1.38D+00
 E= -2744.02983471635     Delta-E=        0.000000000415 Rises=F Damp=F
 DIIS: error= 4.33D-08 at cycle  28 NSaved=  16.
 NSaved=16 IEnMin= 9 EnMin= -2744.02983471731     IErMin= 6 ErrMin= 5.14D-09
 ErrMax= 4.33D-08  0.00D+00 EMaxC= 1.00D-01 BMatC= 3.72D-12 BMatP= 7.07D-14
 IDIUse=1 WtCom= 1.00D+00 WtEn= 0.00D+00
 Large coefficients: NSaved= 16 BigCof=    0.00 CofMax=   10.00 Det=-7.44D-16
 Inversion failed.  Reducing to 15 matrices.
 Coeff-Com:  0.627D-03-0.234D-02 0.641D+00-0.586D+00 0.168D+00-0.423D+00
 Coeff-Com:  0.109D+01-0.138D+01 0.934D+00 0.692D+00-0.176D+01-0.314D+00
 Coeff-Com:  0.122D+01 0.718D+00-0.489D-02
 Coeff:      0.627D-03-0.234D-02 0.641D+00-0.586D+00 0.168D+00-0.423D+00
 Coeff:      0.109D+01-0.138D+01 0.934D+00 0.692D+00-0.176D+01-0.314D+00
 Coeff:      0.122D+01 0.718D+00-0.489D-02
 Gap=     0.351 Goal=   None    Shift=    0.000
 RMSDP=3.57D-09 MaxDP=2.95D-07 DE= 4.15D-10 OVMax= 4.72D-09

 Error on total polarization charges =  0.02912
 SCF Done:  E(RHF) =  -2744.02983472     A.U. after   28 cycles
            NFock= 28  Conv=0.36D-08     -V/T= 2.0002
 KE= 2.743575676487D+03 PE=-2.727888619515D+04 EE= 1.135149232012D+04
 Leave Link  502 at Mon Nov 15 21:22:05 2021, MaxMem=  7864320000 cpu:          599990.5 elap:           18974.8
 (Enter /apps/gaussian/g16-c01-avx/g16/l508.exe)
 QCSCF skips out because SCF is already converged.
 Leave Link  508 at Mon Nov 15 21:22:05 2021, MaxMem=  7864320000 cpu:               0.1 elap:               0.0
 (Enter /apps/gaussian/g16-c01-avx/g16/l801.exe)
 ExpMin= 2.97D-02 ExpMax= 9.05D+03 ExpMxC= 3.09D+02 IAcc=3 IRadAn=         7 AccDes= 0.00D+00
 HarFok:  IExCor=  205 AccDes= 0.00D+00 IRadAn=         7 IDoV=-2 UseB2=F ITyADJ=14
 ICtDFT= 12500011 ScaDFX=  1.000000  1.000000  1.000000  1.000000
 GSVD:  LWork=       -5025 too small for GESVD, short by       23450 words or       23450 for optimal perf.
 Largest valence mixing into a core orbital is  1.16D-04
 Largest core mixing into a valence orbital is  4.83D-05
 Range of M.O.s used for correlation:    68  2146
 NBasis=  2171 NAE=   241 NBE=   241 NFC=    67 NFV=     0
 NROrb=   2079 NOA=   174 NOB=   174 NVA=  1905 NVB=  1905

 **** Warning!!: The largest alpha MO coefficient is  0.15241365D+03

 Leave Link  801 at Mon Nov 15 21:22:06 2021, MaxMem=  7864320000 cpu:              25.7 elap:               0.8
 (Enter /apps/gaussian/g16-c01-avx/g16/l906.exe)
 FulOut=F Deriv=F AODrv=F NAtomX=   137
   MMem=           0  MDisk=         174 MDiskD=         174
  W3Min=   764038350 MinDsk=   676662215 NBas6D=        2305
 NBas2D=     2660698    NTT=     2657665    LW2=     2000000
    MDV=  7840885946 MDiskM=       47233 NBas2p=     1684021
 Disk-based method using OVN memory for174 occupieds at a time.
 Estimated scratch disk usage=************ words.
 IMap=   1   2   3   4   5   6   7   8   9  10  11  12  13  14  15  16  17  18  19  20
 IMap=  21  22  23  24  25  26  27  28  29  30  31  32  33  34  35  36  37  38  39  40
 IMap=  41  42  43  44  45  46  47  48  49  50  51  52  53  54  55  56  57  58  59  60
 IMap=  61  62  63  64  65  66  67  68  69  70  71  72  73  74  75  76  77  78  79  80
 IMap=  81  82  83  84  85  86  87  88  89  90  91  92  93  94  95  96  97  98  99 100
 IMap= 101 102 103 104 105 106 107 108 109 110 111 112 113 114 115 116 117 118 119 120
 IMap= 121 122 123 124 125 126 127 128 129 130 131 132 133 134 135 136 137 138 139 140
 IMap= 141 142 143 144 145 146 147 148 149 150 151 152 153 154 155 156 157 158 159 160
 IMap= 161 162 163 164 165 166 167 168 169 170 171 172 173 174
 Actual    scratch disk usage=************ words.
 JobTyp=1 Pass  1:  I=   1 to 174 NPSUse= 32 ParTrn=T ParDer=T DoDerP=F.
 Spin components of T(2) and E(2):
     alpha-alpha T2 =       0.4770175480D+00 E2=     -0.1278781095D+01
     alpha-beta  T2 =       0.2509910324D+01 E2=     -0.7180955265D+01
     beta-beta   T2 =       0.4770175480D+00 E2=     -0.1278781095D+01
 The integrals were generated   1 times.
 ANorm=    0.2112805107D+01
 E2 =    -0.9738517456D+01 EUMP2 =    -0.27537683521725D+04
 Leave Link  906 at Thu Nov 18 01:46:25 2021, MaxMem=  7864320000 cpu:         5917125.9 elap:          188658.6
 (Enter /apps/gaussian/g16-c01-avx/g16/l601.exe)
 Copying SCF densities to generalized density rwf, IOpCl= 0 IROHF=0.
 Hyperfine terms turned off by default for NAtoms > 100.

 **********************************************************************

            Population analysis using the SCF Density.

 **********************************************************************

 Orbital symmetries:
       Occupied  (A) (A) (A) (A) (A) (A) (A) (A) (A) (A) (A) (A)
                 (A) (A) (A) (A) (A) (A) (A) (A) (A) (A) (A) (A)
                 (A) (A) (A) (A) (A) (A) (A) (A) (A) (A) (A) (A)
                 (A) (A) (A) (A) (A) (A) (A) (A) (A) (A) (A) (A)
[...]
 Alpha virt. eigenvalues --    2.08087   2.08120   2.08586   2.08849   2.09178
 Alpha virt. eigenvalues --    2.09281   2.09461   2.09635   2.09770   2.10180
 Alpha virt. eigenvalues --    2.10222   2.10281   2.10603   2.10928   2.10938
 Alpha virt. eigenvalues --    2.11061   2.11171   2.11437   2.11761   2.12106
 Alpha virt. eigenvalues --    2.12425   2.12572   2.12841   2.12950   2.13157
 Alpha virt. eigenvalues --    2.13352   2.13518   2.13718   2.14000   2.14221
 Alpha virt. eigenvalues --    2.14433   2.14573   2.14720   2.15173   2.15411
 Alpha virt. eigenvalues --    2.15572   2.15961   2.16044   2.16289   2.16446
 Alpha virt. eigenvalues --    2.16563   2.16774   2.16975   2.17171   2.17247
 Alpha virt. eigenvalues --    2.17403   2.17778   2.17829   2.18079   2.18332
 Alpha virt. eigenvalues --    2.18567   2.18846   2.18932   2.19138   2.19314
 Alpha virt. eigenvalues --    2.19383   2.19570   2.19849   2.20136   2.20372
 Alpha virt. eigenvalues --    2.20555   2.20644   2.20754   2.21055   2.21335
 Alpha virt. eigenvalues --    2.21599   2.21805   2.21958   2.22031   2.22373
 Alpha virt. eigenvalues --    2.22530   2.22755   2.22978   2.23132   2.23330
 Alpha virt. eigenvalues --    2.23473   2.23601   2.23766   2.24110   2.24499
 Alpha virt. eigenvalues --    2.24642   2.24772   2.24972   2.25248   2.25393
 Alpha virt. eigenvalues --    2.25468   2.25784   2.25926   2.26119   2.26348
 Alpha virt. eigenvalues --    2.26467   2.26553   2.27136   2.27217   2.27567
 Alpha virt. eigenvalues --    2.27738   2.28074   2.28390   2.28562   2.28708
 Alpha virt. eigenvalues --    2.28970   2.29113   2.29367   2.29508   2.29518
 Alpha virt. eigenvalues --    2.29884   2.29972   2.30048   2.30485   2.30666
 Alpha virt. eigenvalues --    2.30900   2.31155   2.31276   2.31448   2.31660
 Alpha virt. eigenvalues --    2.31808   2.31936   2.32126   2.32253   2.32357
 Alpha virt. eigenvalues --    2.32900   2.32973   2.33184   2.33300   2.33485
 Alpha virt. eigenvalues --    2.33761   2.34170   2.34339   2.34557   2.34782
 Alpha virt. eigenvalues --    2.35027   2.35050   2.35357   2.35477   2.35879
 Alpha virt. eigenvalues --    2.36195   2.36355   2.36584   2.36726   2.36862
 Alpha virt. eigenvalues --    2.37220   2.37387   2.37499   2.38003   2.38113
 Alpha virt. eigenvalues --    2.38222   2.38484   2.38674   2.38841   2.38994
 Alpha virt. eigenvalues --    2.39272   2.39580   2.39749   2.39900   2.40133
 Alpha virt. eigenvalues --    2.40403   2.40454   2.40837   2.40951   2.41247
 Alpha virt. eigenvalues --    2.41514   2.41609   2.41632   2.41866   2.42045
 Alpha virt. eigenvalues --    2.42251   2.42292   2.42449   2.42654   2.43155
 Alpha virt. eigenvalues --    2.43160   2.43442   2.43608   2.43885   2.44165
 Alpha virt. eigenvalues --    2.44527   2.44737   2.44969   2.45229   2.45486
 Alpha virt. eigenvalues --    2.45720   2.46075   2.46164   2.46397   2.46488
 Alpha virt. eigenvalues --    2.46649   2.46769   2.47004   2.47223   2.47338
 Alpha virt. eigenvalues --    2.47915   2.48006   2.48147   2.48329   2.48653
 Alpha virt. eigenvalues --    2.48771   2.49007   2.49127   2.49206   2.49408
 Alpha virt. eigenvalues --    2.49851   2.49980   2.50085   2.50312   2.50702
 Alpha virt. eigenvalues --    2.50806   2.51054   2.51209   2.51328   2.51522
 Alpha virt. eigenvalues --    2.51695   2.52075   2.52283   2.52424   2.52780
 Alpha virt. eigenvalues --    2.52918   2.53073   2.53261   2.53400   2.53765
 Alpha virt. eigenvalues --    2.53944   2.54028   2.54242   2.54510   2.54790
 Alpha virt. eigenvalues --    2.54918   2.55245   2.55329   2.55664   2.56038
 Alpha virt. eigenvalues --    2.56184   2.56544   2.56645   2.56971   2.57046
 Alpha virt. eigenvalues --    2.57424   2.57715   2.58138   2.58257   2.58735
 Alpha virt. eigenvalues --    2.58877   2.58994   2.59190   2.59422   2.59487
 Alpha virt. eigenvalues --    2.59889   2.60149   2.60300   2.60572   2.60925
 Alpha virt. eigenvalues --    2.61109   2.61435   2.61623   2.61679   2.61811
 Alpha virt. eigenvalues --    2.62315   2.62397   2.62785   2.62894   2.63133
 Alpha virt. eigenvalues --    2.63285   2.63463   2.63797   2.63896   2.63999
 Alpha virt. eigenvalues --    2.64388   2.64471   2.64587   2.64975   2.65237
 Alpha virt. eigenvalues --    2.65546   2.65766   2.65792   2.65950   2.66109
 Alpha virt. eigenvalues --    2.66315   2.66557   2.66833   2.67049   2.67147
 Alpha virt. eigenvalues --    2.67552   2.67727   2.68033   2.68349   2.68416
 Alpha virt. eigenvalues --    2.68569   2.69014   2.69270   2.69768   2.69923
 Alpha virt. eigenvalues --    2.70097   2.70326   2.70853   2.71063   2.71256
 Alpha virt. eigenvalues --    2.71406   2.71625   2.71996   2.72050   2.72186
 Alpha virt. eigenvalues --    2.72353   2.72504   2.73033   2.73247   2.73589
 Alpha virt. eigenvalues --    2.74014   2.74177   2.74301   2.74437   2.74586
 Alpha virt. eigenvalues --    2.74673   2.74962   2.75214   2.75579   2.75641
 Alpha virt. eigenvalues --    2.75926   2.76069   2.76303   2.76564   2.76666
 Alpha virt. eigenvalues --    2.77286   2.77470   2.77610   2.77942   2.78821
 Alpha virt. eigenvalues --    2.78910   2.79075   2.79215   2.79658   2.79735
 Alpha virt. eigenvalues --    2.80126   2.80179   2.80766   2.81261   2.81856
 Alpha virt. eigenvalues --    2.82283   2.82967   2.83107   2.83307   2.83762
 Alpha virt. eigenvalues --    2.84720   2.85428   2.85991   2.86062   2.86266
 Alpha virt. eigenvalues --    2.86527   2.87185   2.87940   2.88105   2.88498
 Alpha virt. eigenvalues --    2.88766   2.89134   2.89163   2.89475   2.89750
 Alpha virt. eigenvalues --    2.90267   2.90478   2.90722   2.90751   2.90953
 Alpha virt. eigenvalues --    2.91050   2.91148   2.91922   2.92249   2.92305
 Alpha virt. eigenvalues --    2.92462   2.93017   2.93264   2.93681   2.94179
 Alpha virt. eigenvalues --    2.94651   2.94837   2.95062   2.95387   2.95656
 Alpha virt. eigenvalues --    2.96011   2.96674   2.96821   2.97513   2.97965
 Alpha virt. eigenvalues --    2.98400   2.98583   2.98744   2.98823   2.99054
 Alpha virt. eigenvalues --    2.99223   2.99401   2.99694   2.99936   3.00376
 Alpha virt. eigenvalues --    3.00554   3.00740   3.01582   3.01775   3.02523
 Alpha virt. eigenvalues --    3.02724   3.03071   3.03309   3.03366   3.03699
 Alpha virt. eigenvalues --    3.03923   3.04069   3.04296   3.04349   3.04653
 Alpha virt. eigenvalues --    3.04718   3.04927   3.05378   3.05816   3.06035
 Alpha virt. eigenvalues --    3.06348   3.06774   3.06841   3.07195   3.07948
 Alpha virt. eigenvalues --    3.08120   3.08572   3.09032   3.09703   3.09878
 Alpha virt. eigenvalues --    3.10423   3.10629   3.10920   3.11233   3.11815
 Alpha virt. eigenvalues --    3.12276   3.12934   3.13612   3.13780   3.13895
 Alpha virt. eigenvalues --    3.14199   3.14476   3.14640   3.15142   3.15677
 Alpha virt. eigenvalues --    3.15726   3.16195   3.16365   3.16811   3.17489
 Alpha virt. eigenvalues --    3.17966   3.18060   3.18593   3.18978   3.19376
 Alpha virt. eigenvalues --    3.19968   3.21004   3.21354   3.21737   3.22178
 Alpha virt. eigenvalues --    3.22940   3.23227   3.23453   3.23873   3.24026
 Alpha virt. eigenvalues --    3.24412   3.24548   3.24671   3.25234   3.25626
 Alpha virt. eigenvalues --    3.26160   3.27218   3.27603   3.27792   3.28295
 Alpha virt. eigenvalues --    3.29028   3.29249   3.29623   3.30073   3.30322
 Alpha virt. eigenvalues --    3.30435   3.31088   3.31575   3.32038   3.32277
 Alpha virt. eigenvalues --    3.33390   3.33704   3.34248   3.34434   3.34766
 Alpha virt. eigenvalues --    3.34981   3.35673   3.36577   3.37181   3.38206
 Alpha virt. eigenvalues --    3.38748   3.41160   3.42235   3.42877   3.43882
 Alpha virt. eigenvalues --    3.45561   3.46281   3.46754   3.47066   3.47847
 Alpha virt. eigenvalues --    3.49343   3.50394   3.51173   3.52146   3.52347
 Alpha virt. eigenvalues --    3.53757   3.56579   3.56981   3.57610   3.58795
 Alpha virt. eigenvalues --    3.60195   3.61776   3.62240   3.62824   3.63298
 Alpha virt. eigenvalues --    3.63447   3.64102   3.64951   3.65119   3.68229
 Alpha virt. eigenvalues --    3.71015   3.73477   3.74565   3.75206   3.76237
 Alpha virt. eigenvalues --    3.77686   3.78015   3.79471   3.79912   3.81025
 Alpha virt. eigenvalues --    3.83990   3.85154   3.86124   3.88572   3.89330
 Alpha virt. eigenvalues --    3.91325   3.92057   3.92873   3.93508   3.96631
 Alpha virt. eigenvalues --    3.97157   3.99940   4.00509   4.02394   4.03363
 Alpha virt. eigenvalues --    4.05570   4.06717   4.08251   4.08806   4.12482
 Alpha virt. eigenvalues --    4.14103   4.15357   4.15860   4.20408   4.21504
 Alpha virt. eigenvalues --    4.25925   4.37680   4.40348   4.43198   4.44402
 Alpha virt. eigenvalues --    4.45612   4.49551   4.51307   4.54751   4.56923
 Alpha virt. eigenvalues --    4.60460   4.66245   4.77954   4.79238   4.84788
 Alpha virt. eigenvalues --    4.86347   5.01332   5.17040   5.24151   5.29303
          Condensed to atoms (all electrons):
 Mulliken charges:
               1
     1  C    1.768148
     2  C    0.452683
     3  C    0.151060
     4  C    1.549120
     5  H   -1.077615
     6  C   -0.126274
     7  C    1.435297
     8  H   -0.871845
     9  C    0.105002
    10  C    0.496649
    11  H   -1.068940
    12  C    0.595665
    13  H   -0.811441
    14  H   -0.791973
    15  H   -0.741826
    16  C    1.507661
    17  C   -0.025656
    18  C    0.371533
    19  C    1.803204
    20  H   -0.965218
    21  C   -0.198047
    22  C    1.354262
    23  H   -0.930689
    24  C    0.228397
    25  C    0.392714
    26  H   -1.086462
    27  C    0.315536
    28  H   -0.805264
    29  H   -0.939475
    30  H   -0.804445
    31  C    0.711790
    32  C    1.012469
    33  C    0.531191
    34  C    1.508183
    35  H   -1.077956
    36  C   -0.044792
    37  C    1.059807
    38  H   -0.860315
    39  C    0.630009
    40  C    0.218647
    41  H   -0.632445
    42  C    0.464575
    43  H   -0.696365
    44  H   -0.713017
    45  C   -0.115912
    46  C   -0.111108
    47  N   -0.489088
    48  N   -0.451645
    49  C    0.488466
    50  C    0.062917
    51  N   -0.354566
    52  N   -0.060184
    53  C   -0.413705
    54  C   -0.377624
    55  N   -0.537274
    56  N   -0.250910
    57  C   -0.380659
    58  C   -0.108107
    59  N   -0.405835
    60  N   -0.627230
    61  C   -0.092424
    62  C   -0.202425
    63  N   -0.610940
    64  N   -0.558836
    65  H    0.005210
    66  H    0.051550
    67  H   -1.409164
    68  C    0.748259
    69  C    0.717336
    70  C    0.780298
    71  C    0.810918
    72  C    0.915265
    73  H   -0.313753
    74  C    0.545997
    75  H   -0.239467
    76  H   -0.146966
    77  C    0.559659
    78  H   -0.142007
    79  H   -0.084182
    80  C    0.959471
    81  H   -0.080200
    82  H   -0.146879
    83  H   -0.143537
    84  H   -0.211632
    85  H   -0.405784
    86  H   -0.527472
    87  C    0.769226
    88  H   -0.128560
    89  H   -0.248383
    90  C    0.505192
    91  H   -0.207683
    92  H   -0.267986
    93  C    0.939951
    94  H   -0.132742
    95  H   -0.198879
    96  H   -0.304838
    97  H   -0.237832
    98  H   -0.358593
    99  H   -0.267950
   100  C    0.904236
   101  H   -0.334552
   102  C    0.532128
   103  H   -0.135834
   104  H   -0.220232
   105  C    0.559405
   106  H   -0.142167
   107  H   -0.085580
   108  H   -0.092421
   109  H   -0.143095
   110  H   -0.109171
   111  H   -0.216577
   112  H   -0.299093
   113  C    0.816006
   114  H   -0.387458
   115  C    0.527392
   116  H   -0.120421
   117  H   -0.205635
   118  C    0.531183
   119  H   -0.144791
   120  H   -0.080634
   121  H   -0.139464
   122  H   -0.079521
   123  H   -0.127632
   124  H   -0.228268
   125  H   -0.554887
   126  C    0.691082
   127  H   -0.363294
   128  C    0.606058
   129  H   -0.093876
   130  H   -0.150924
   131  C    0.559699
   132  H   -0.169233
   133  H   -0.106310
   134  H   -0.135491
   135  H   -0.168420
   136  H   -0.221659
   137  H   -0.370846
 Sum of Mulliken charges =   0.00000
 Mulliken charges with hydrogens summed into heavy atoms:
               1
     1  C    1.768148
     2  C   -0.339290
     3  C   -0.926555
     4  C    1.549120
     6  C   -0.998119
     7  C    1.435297
     9  C   -0.963938
    10  C   -0.314792
    12  C   -0.146161
    16  C    1.507661
    17  C   -0.965131
    18  C   -0.593685
    19  C    1.803204
    21  C   -1.128736
    22  C    1.354262
    24  C   -0.858065
    25  C   -0.412551
    27  C   -0.488909
    31  C    0.711790
    32  C   -0.396694
    33  C   -0.546766
    34  C    1.508183
    36  C   -0.905107
    37  C    1.059807
    39  C   -0.002436
    40  C   -0.477717
    42  C   -0.248442
    45  C   -0.643384
    46  C   -0.469701
    47  N   -0.489088
    48  N   -0.451645
    49  C    0.125172
    50  C   -0.491969
    51  N   -0.297806
    52  N   -0.060184
    53  C   -0.819489
    54  C   -0.691377
    55  N   -0.537274
    56  N   -0.250910
    57  C   -0.679752
    58  C   -0.495565
    59  N   -0.405835
    60  N   -0.627230
    61  C   -0.426976
    62  C   -0.470375
    63  N   -0.610940
    64  N   -0.558836
    68  C    0.155753
    69  C    0.340393
    70  C    0.454550
    71  C    0.455018
    72  C    0.528832
    74  C    0.319809
    77  C    0.332580
    80  C    0.604302
    87  C    0.293557
    90  C    0.173571
    93  C    0.397281
   100  C    0.548170
   102  C    0.304381
   105  C    0.323889
   113  C    0.489949
   115  C    0.301967
   118  C    0.312198
   126  C    0.446282
   128  C    0.330515
   131  C    0.255788
 Electronic spatial extent (au):  <R**2>=          60156.0035
 Charge=              0.0000 electrons
 Dipole moment (field-independent basis, Debye):
    X=              1.4124    Y=             -1.5102    Z=              0.9568  Tot=              2.2784
 Quadrupole moment (field-independent basis, Debye-Ang):
   XX=           -397.4079   YY=           -401.4046   ZZ=           -396.4795
   XY=             21.1342   XZ=              6.9721   YZ=              7.0274
 Traceless Quadrupole moment (field-independent basis, Debye-Ang):
   XX=              1.0227   YY=             -2.9739   ZZ=              1.9512
   XY=             21.1342   XZ=              6.9721   YZ=              7.0274
 Octapole moment (field-independent basis, Debye-Ang**2):
  XXX=            217.4352  YYY=            138.7406  ZZZ=             64.7368  XYY=             13.4708
  XXY=           -141.4850  XXZ=             -8.2191  XZZ=             -0.1523  YZZ=            -87.2121
  YYZ=             -9.7006  XYZ=             32.6415
 Hexadecapole moment (field-independent basis, Debye-Ang**3):
 XXXX=         -36919.2903 YYYY=         -23738.4875 ZZZZ=         -22369.9458 XXXY=            760.0934
 XXXZ=           -206.6673 YYYX=            351.4201 YYYZ=             24.8238 ZZZX=            257.0651
 ZZZY=             27.8121 XXYY=         -10339.3047 XXZZ=          -9780.3768 YYZZ=          -7880.8202
 XXYZ=            265.3911 YYXZ=              2.4403 ZZXY=             42.8710
 N-N= 1.043978836383D+04 E-N=-2.727888619517D+04  KE= 2.743575676487D+03
 Leave Link  601 at Thu Nov 18 01:46:30 2021, MaxMem=  7864320000 cpu:              92.0 elap:               3.5
 (Enter /apps/gaussian/g16-c01-avx/g16/l9999.exe)
 Unable to Open any file for archive entry.
 1\1\GINC-CX3-11-6\SP\RMP2-FC\Aug-CC-pVDZ\C57H70N10\ATARZIA\18-Nov-2021
 \0\\#P MP2/aug-cc-pVDZ SP SCF=(YQC,MaxCycle=900) int=(Grid=Superfinegr
 id) SCRF=(PCM,Solvent=Dichloromethane)\\_3_alde1_5_ami3_2_opt_dcm_mp2\
 \0,1\C,0,-3.3192,-1.4255,-0.146\C,0,-3.3564,-1.1076,1.272\C,0,-2.5731,
 -2.4936,-0.6411\C,0,-2.492,-2.7238,-2.0107\H,0,-2.0589,-3.1312,0.0618\
 C,0,-3.1191,-1.844,-2.8936\C,0,-3.8664,-0.775,-2.414\H,0,-3.0129,-2.02
 16,-3.9529\C,0,-3.9863,-0.5927,-1.0375\C,0,-4.4386,0.2077,-3.3247\H,0,
 -4.5811,0.2349,-0.6845\C,0,-1.7324,-3.8594,-2.5106\H,0,-4.0123,0.2154,
 -4.3404\H,0,-4.0515,-0.2998,1.5473\H,0,-1.2664,-4.4917,-1.7401\C,0,2.0
 145,-2.0023,0.2643\C,0,1.7556,-2.6109,1.5636\C,0,2.6454,-0.7629,0.1638
 \C,0,2.9003,-0.1917,-1.0779\H,0,2.9384,-0.259,1.073\C,0,2.4923,-0.8577
 ,-2.2332\C,0,1.8652,-2.095,-2.1495\H,0,2.6861,-0.3928,-3.1876\C,0,1.63
 81,-2.6653,-0.8978\C,0,1.4148,-2.7776,-3.3546\H,0,1.1551,-3.6293,-0.85
 51\C,0,3.5561,1.1043,-1.1539\H,0,1.3266,-2.1496,-4.2549\H,0,1.28,-3.59
 71,1.5208\H,0,3.7243,1.604,-0.1869\C,0,-0.9369,1.9432,0.5275\C,0,-0.71
 2,1.0674,1.6704\C,0,-2.2373,2.2615,0.1409\C,0,-2.4828,2.9321,-1.0524\H
 ,0,-3.0502,1.9333,0.7693\C,0,-1.4077,3.327,-1.8469\C,0,-0.1027,3.0806,
 -1.4372\H,0,-1.6145,3.829,-2.7797\C,0,0.1264,2.3752,-0.2567\C,0,1.0246
 ,3.4638,-2.2789\H,0,1.145,2.1536,0.0214\C,0,-3.8562,3.1067,-1.4967\H,0
 ,0.8128,3.5242,-3.3586\H,0,-4.6252,2.8251,-0.7613\C,0,-1.402,-0.14,3.5
 426\C,0,-2.6042,-1.1128,3.4536\N,0,-1.6002,0.8605,2.541\N,0,-2.611,-1.
 6582,2.1297\C,0,3.2845,-2.5802,4.6294\C,0,1.889,-2.5637,3.9423\N,0,3.9
 818,-1.3125,4.561\N,0,2.0669,-2.0177,2.6328\C,0,-0.785,-5.1979,-4.1537
 \C,0,0.5989,-4.6175,-4.5325\N,0,-1.6161,-4.1085,-3.7423\N,0,1.1324,-4.
 0059,-3.3578\C,0,-5.7202,2.0887,-3.8318\C,0,-5.5331,3.4167,-3.0559\N,0
 ,-5.319,1.0319,-2.9577\N,0,-4.1592,3.4857,-2.6621\C,0,4.4169,2.9692,-2
 .2162\C,0,3.2781,3.9079,-2.676\N,0,3.9028,1.635,-2.2449\N,0,2.1703,3.6
 772,-1.802\H,0,4.0685,-1.0315,3.5901\H,0,3.4425,-0.5952,5.0367\H,0,0.2
 617,0.5532,1.6881\C,0,1.2338,-3.9421,4.057\C,0,-1.3696,0.487,4.9376\C,
 0,3.767,5.3547,-2.5978\C,0,-7.1895,1.952,-4.233\C,0,1.5115,-5.7516,-5.
 0019\H,0,0.46,-3.8867,-5.3501\C,0,0.8994,-6.472,-6.1981\H,0,2.486,-5.3
 351,-5.266\H,0,1.6567,-6.4475,-4.1739\C,0,-0.4794,-7.023,-5.847\H,0,1.
 5575,-7.2849,-6.5117\H,0,0.8081,-5.7732,-7.033\C,0,-1.3955,-5.9054,-5.
 3606\H,0,-0.3788,-7.7757,-5.0615\H,0,-0.9206,-7.5071,-6.7204\H,0,-1.55
 08,-5.1708,-6.1524\H,0,-2.371,-6.3074,-5.0801\H,0,-0.621,-5.9161,-3.33
 11\H,0,-0.4735,-0.7102,3.3638\C,0,-1.2595,-0.5912,6.0108\H,0,-2.2816,1
 .0696,5.0795\H,0,-0.5209,1.1721,4.9987\C,0,-2.4087,-1.5895,5.9026\H,0,
 -1.2622,-0.1258,6.9988\H,0,-0.3104,-1.1204,5.895\C,0,-2.4614,-2.205,4.
 5081\H,0,-3.3517,-1.0769,6.1064\H,0,-2.2886,-2.3772,6.6495\H,0,-3.3061
 ,-2.8922,4.4283\H,0,-1.5497,-2.7687,4.3084\H,0,-3.5148,-0.518,3.6471\H
 ,0,3.0215,3.6686,-3.7237\C,0,5.6148,3.1338,-3.1465\H,0,4.6935,3.2695,-
 1.1894\C,0,6.1037,4.5787,-3.114\H,0,5.3172,2.8542,-4.1584\H,0,6.4107,2
 .4564,-2.8308\C,0,4.9838,5.5425,-3.4989\H,0,6.9461,4.6984,-3.798\H,0,6
 .4539,4.8168,-2.1068\H,0,4.6936,5.3624,-4.5368\H,0,5.3391,6.5723,-3.42
 46\H,0,4.0199,5.5875,-1.562\H,0,2.959,6.0222,-2.9058\H,0,-5.0935,2.122
 2,-4.7414\C,0,-5.9198,4.5876,-3.9535\H,0,-6.2014,3.3755,-2.1773\C,0,-7
 .3747,4.4542,-4.3925\H,0,-5.2593,4.5982,-4.822\H,0,-5.772,5.5212,-3.40
 73\C,0,-7.6057,3.1276,-5.1115\H,0,-7.6388,5.2836,-5.0514\H,0,-8.0219,4
 .5058,-3.5136\H,0,-8.6595,3.029,-5.3797\H,0,-7.022,3.1109,-6.0349\H,0,
 -7.8002,1.9169,-3.3293\H,0,-7.3262,1.01,-4.7688\H,0,1.2775,-1.8258,4.4
 835\C,0,3.1265,-3.,6.0903\H,0,3.9077,-3.3148,4.1041\C,0,2.448,-4.36,6.
 2083\H,0,2.5316,-2.2463,6.6133\H,0,4.1144,-3.0231,6.5518\C,0,1.0857,-4
 .3379,5.5223\H,0,2.3308,-4.6239,7.2612\H,0,3.0771,-5.1205,5.7403\H,0,0
 .4331,-3.6234,6.0306\H,0,0.6169,-5.3221,5.591\H,0,1.8562,-4.6804,3.544
 3\H,0,0.2532,-3.9263,3.5731\\Version=ES64L-G16RevC.01\State=1-A\HF=-27
 44.0298347\MP2=-2753.7683522\RMSD=3.573e-09\PG=C01 [X(C57H70N10)]\\@
 The archive entry for this job was punched.



 WE LOSE BECAUSE WE WIN

 GAMBLERS,

 RECOLLECTING WHICH,

 TOSS THEIR DICE AGAIN....


                          EMILY DICKINSON  BOLTS OF MELODY NO. 533
 Job cpu time:      80 days 12 hours 45 minutes 53.5 seconds.
 Elapsed time:       2 days 13 hours 32 minutes 57.8 seconds.
 File lengths (MBytes):  RWF=******* Int=      0 D2E=      0 Chk=    320 Scr=     16
 Normal termination of Gaussian 16 at Thu Nov 18 01:46:31 2021.
