 Entering Gaussian System, Link 0=g16
 Initial command:
 /apps/gaussian/g16-c01-avx/g16/l1.exe "/rds/general/ephemeral/user/atarzia/ephemeral/Gau-632696.inp" -scrdir="/rds/general/ephemeral/user/atarzia/ephemeral/"
 Entering Link 1 = /apps/gaussian/g16-c01-avx/g16/l1.exe PID=    632697.
  
 Copyright (c) 1988-2019, Gaussian, Inc.  All Rights Reserved.
  
 This is part of the Gaussian(R) 16 program.  It is based on
 the Gaussian(R) 09 system (copyright 2009, Gaussian, Inc.),
 the Gaussian(R) 03 system (copyright 2003, Gaussian, Inc.),
 the Gaussian(R) 98 system (copyright 1998, Gaussian, Inc.),
 the Gaussian(R) 94 system (copyright 1995, Gaussian, Inc.),
 the Gaussian 92(TM) system (copyright 1992, Gaussian, Inc.),
 the Gaussian 90(TM) system (copyright 1990, Gaussian, Inc.),
 the Gaussian 88(TM) system (copyright 1988, Gaussian, Inc.),
 the Gaussian 86(TM) system (copyright 1986, Carnegie Mellon
 University), and the Gaussian 82(TM) system (copyright 1983,
 Carnegie Mellon University). Gaussian is a federally registered
 trademark of Gaussian, Inc.
  
 This software contains proprietary and confidential information,
 including trade secrets, belonging to Gaussian, Inc.
  
 This software is provided under written license and may be
 used, copied, transmitted, or stored only in accord with that
 written license.
  
 The following legend is applicable only to US Government
 contracts under FAR:
  
                    RESTRICTED RIGHTS LEGEND
  
 Use, reproduction and disclosure by the US Government is
 subject to restrictions as set forth in subparagraphs (a)
 and (c) of the Commercial Computer Software - Restricted
 Rights clause in FAR 52.227-19.
  
 Gaussian, Inc.
 340 Quinnipiac St., Bldg. 40, Wallingford CT 06492
  
  
 ---------------------------------------------------------------
 Warning -- This program may not be used in any manner that
 competes with the business of Gaussian, Inc. or will provide
 assistance to any competitor of Gaussian, Inc.  The licensee
 of this program is prohibited from giving any competitor of
 Gaussian, Inc. access to this program.  By using this program,
 the user acknowledges that Gaussian, Inc. is engaged in the
 business of creating and licensing software in the field of
 computational chemistry and represents and warrants to the
 licensee that it is not a competitor of Gaussian, Inc. and that
 it will not use this program in any manner prohibited above.
 ---------------------------------------------------------------
  

 Cite this work as:
 Gaussian 16, Revision C.01,
 M. J. Frisch, G. W. Trucks, H. B. Schlegel, G. E. Scuseria, 
 M. A. Robb, J. R. Cheeseman, G. Scalmani, V. Barone, 
 G. A. Petersson, H. Nakatsuji, X. Li, M. Caricato, A. V. Marenich, 
 J. Bloino, B. G. Janesko, R. Gomperts, B. Mennucci, H. P. Hratchian, 
 J. V. Ortiz, A. F. Izmaylov, J. L. Sonnenberg, D. Williams-Young, 
 F. Ding, F. Lipparini, F. Egidi, J. Goings, B. Peng, A. Petrone, 
 T. Henderson, D. Ranasinghe, V. G. Zakrzewski, J. Gao, N. Rega, 
 G. Zheng, W. Liang, M. Hada, M. Ehara, K. Toyota, R. Fukuda, 
 J. Hasegawa, M. Ishida, T. Nakajima, Y. Honda, O. Kitao, H. Nakai, 
 T. Vreven, K. Throssell, J. A. Montgomery, Jr., J. E. Peralta, 
 F. Ogliaro, M. J. Bearpark, J. J. Heyd, E. N. Brothers, K. N. Kudin, 
 V. N. Staroverov, T. A. Keith, R. Kobayashi, J. Normand, 
 K. Raghavachari, A. P. Rendell, J. C. Burant, S. S. Iyengar, 
 J. Tomasi, M. Cossi, J. M. Millam, M. Klene, C. Adamo, R. Cammi, 
 J. W. Ochterski, R. L. Martin, K. Morokuma, O. Farkas, 
 J. B. Foresman, and D. J. Fox, Gaussian, Inc., Wallingford CT, 2019.
 
 ******************************************
 Gaussian 16:  ES64L-G16RevC.01  3-Jul-2019
                18-Oct-2021 
 ******************************************
 %chk=_3_alde1_5_ami4_1_opt_dcm.chk
 %mem=60000mb
 %nprocshared=32
 Will use up to   32 processors via shared memory.
 ----------------------------------------------------------------------
 #P PBE1PBE/Def2TZVP SP SCF=(YQC,MaxCycle=900) int=(Grid=Superfinegrid)
  EmpiricalDispersion=GD3 SCRF=(PCM,Solvent=Dichloromethane)
 ----------------------------------------------------------------------
 1/38=1,172=1/1;
 2/12=2,17=6,18=5,40=1/2;
 3/5=44,7=101,11=2,25=1,30=1,70=2201,72=9,74=-13,75=-7,124=31/1,2,3;
 4//1;
 5/5=2,7=900,8=4,13=1,38=1,53=9/8,2,8;
 6/7=2,8=2,9=2,10=2,28=1/1;
 99/5=1,9=1/99;
 Leave Link    1 at Mon Oct 18 10:22:44 2021, MaxMem=  7864320000 cpu:               5.1 elap:               0.2
 (Enter /apps/gaussian/g16-c01-avx/g16/l101.exe)
 -------------------------
 _3_alde1_5_ami4_1_opt_dcm
 -------------------------
 Symbolic Z-matrix:
 Charge =  0 Multiplicity = 1
 C                    -3.9795   -1.5977   -0.6956 
 C                    -4.8736   -0.6574   -0.038 
 C                    -3.6026   -2.792    -0.082 
 C                    -2.6968   -3.6456   -0.7006 
 H                    -4.0347   -3.0364    0.8763 
 C                    -2.1184   -3.2713   -1.9126 
 C                    -2.4575   -2.0671   -2.5179 
 H                    -1.3877   -3.9288   -2.3567 
 C                    -3.4172   -1.2526   -1.9195 
 C                    -1.7412   -1.6126   -3.7003 
 H                    -3.6828   -0.3299   -2.4113 
 C                    -2.2796   -4.8872   -0.059 
 H                    -0.8206   -2.1692   -3.9341 
 H                    -5.1762    0.2067   -0.648 
 H                    -2.3944   -4.9246    1.0354 
 C                     2.3153   -1.9652   -2.6253 
 C                     2.4366   -1.1445   -3.8828 
 C                     2.8      -1.4618   -1.4294 
 C                     2.6901   -2.1962   -0.2489 
 H                     3.2453   -0.4809   -1.3994 
 C                     2.0998   -3.4536   -0.2803 
 C                     1.6435   -3.9874   -1.4824 
 H                     1.994    -4.0453    0.616 
 C                     1.7499   -3.2311   -2.6493 
 C                     1.0213   -5.3007   -1.5269 
 H                     1.3917   -3.6395   -3.5848 
 C                     3.1464   -1.6305    1.0128 
 H                     0.6589   -5.6203   -2.5169 
 H                     2.732    -2.0958    1.9213 
 C                    -1.6187    1.5007    0.873 
 C                    -2.6864    1.3074    1.8453 
 C                    -1.9221    1.6302   -0.4812 
 C                    -0.9129    1.6826   -1.4378 
 H                    -2.9614    1.6562   -0.7687 
 C                     0.419     1.6668   -1.0247 
 C                     0.7353    1.5934    0.3284 
 H                     1.2007    1.7052   -1.767 
 C                    -0.2868    1.4844    1.2711 
 C                     2.1313    1.6046    0.7384 
 H                    -0.0162    1.397     2.3124 
 C                    -1.2881    1.7059   -2.8423 
 H                     2.8589    1.706    -0.0787 
 H                    -2.3539    1.8925   -3.0347 
 C                    -4.9232    1.1966    2.4996 
 C                    -5.9477    0.3019    1.7658 
 N                    -3.8945    1.542     1.5718 
 H                    -4.5327    0.6705    3.3849 
 N                    -5.2367   -0.7842    1.1645 
 H                    -6.4733    0.9171    1.02 
 C                     3.885    -0.1011   -5.3106 
 C                     3.164     1.0106   -4.5183 
 N                     3.7487   -1.2974   -4.494 
 H                     4.9308    0.1198   -5.5154 
 N                     2.2886    0.2869   -3.6016 
 H                     2.6197    1.694    -5.1756 
 C                    -1.2735   -6.995    -0.0687 
 C                     0.1445   -7.2433   -0.6243 
 N                    -1.7999   -5.8418   -0.7253 
 H                    -1.237    -6.8771    1.0256 
 N                     0.8894   -6.0288   -0.5042 
 H                     0.0566   -7.5748   -1.6709 
 C                    -1.291    -0.1031   -5.4203 
 C                    -1.0132    1.3858   -5.1161 
 N                    -2.1163   -0.6162   -4.3757 
 H                    -0.3401   -0.6523   -5.5164 
 N                    -0.479     1.4915   -3.7901 
 H                    -1.956     1.9409   -5.2236 
 C                     4.2818   -0.0644    2.3125 
 C                     3.8836    1.425     2.2383 
 N                     3.9559   -0.6655    1.0606 
 H                     3.7693   -0.5449    3.1616 
 N                     2.4854    1.5083    1.947 
 H                     4.499     1.9055    1.4634 
 H                    -2.3704    0.9111    2.8227 
 H                     1.3201    0.5938   -3.6588 
 H                     1.6963   -1.5001   -4.6264 
 H                     4.4491   -1.29     -3.7567 
 H                    -5.4307    2.112     2.8174 
 H                    -6.6598   -0.0976    2.4905 
 H                     3.37     -0.2845   -6.2592 
 H                     3.8835    1.5973   -3.9332 
 H                    -1.8993   -7.8573   -0.3175 
 H                     0.6334   -8.0172   -0.0285 
 H                    -1.8387   -0.1646   -6.3649 
 H                    -0.2752    1.7668   -5.8256 
 H                     5.364    -0.125     2.458 
 H                     4.0663    1.8944    3.2072 
 
 ITRead=  0  0  0  0  0  0  0  0  0  0  0  0  0  0  0  0  0  0  0  0
 ITRead=  0  0  0  0  0  0  0  0  0  0  0  0  0  0  0  0  0  0  0  0
 ITRead=  0  0  0  0  0  0  0  0  0  0  0  0  0  0  0  0  0  0  0  0
 ITRead=  0  0  0  0  0  0  0  0  0  0  0  0  0  0  0  0  0  0  0  0
 ITRead=  0  0  0  0  0  0  0
 MicOpt= -1 -1 -1 -1 -1 -1 -1 -1 -1 -1 -1 -1 -1 -1 -1 -1 -1 -1 -1 -1
 MicOpt= -1 -1 -1 -1 -1 -1 -1 -1 -1 -1 -1 -1 -1 -1 -1 -1 -1 -1 -1 -1
 MicOpt= -1 -1 -1 -1 -1 -1 -1 -1 -1 -1 -1 -1 -1 -1 -1 -1 -1 -1 -1 -1
 MicOpt= -1 -1 -1 -1 -1 -1 -1 -1 -1 -1 -1 -1 -1 -1 -1 -1 -1 -1 -1 -1
 MicOpt= -1 -1 -1 -1 -1 -1 -1
 NAtoms=     87 NQM=       87 NQMF=       0 NMMI=      0 NMMIF=      0
                NMic=       0 NMicF=      0.
                    Isotopes and Nuclear Properties:
 (Nuclear quadrupole moments (NQMom) in fm**2, nuclear magnetic moments (NMagM)
  in nuclear magnetons)

  Atom         1           2           3           4           5           6           7           8           9          10
 IAtWgt=          12          12          12          12           1          12          12           1          12          12
 AtmWgt=  12.0000000  12.0000000  12.0000000  12.0000000   1.0078250  12.0000000  12.0000000   1.0078250  12.0000000  12.0000000
 NucSpn=           0           0           0           0           1           0           0           1           0           0
 AtZEff=  -0.0000000  -0.0000000  -0.0000000  -0.0000000  -0.0000000  -0.0000000  -0.0000000  -0.0000000  -0.0000000  -0.0000000
 NQMom=    0.0000000   0.0000000   0.0000000   0.0000000   0.0000000   0.0000000   0.0000000   0.0000000   0.0000000   0.0000000
 NMagM=    0.0000000   0.0000000   0.0000000   0.0000000   2.7928460   0.0000000   0.0000000   2.7928460   0.0000000   0.0000000
 AtZNuc=   6.0000000   6.0000000   6.0000000   6.0000000   1.0000000   6.0000000   6.0000000   1.0000000   6.0000000   6.0000000

  Atom        11          12          13          14          15          16          17          18          19          20
 IAtWgt=           1          12           1           1           1          12          12          12          12           1
 AtmWgt=   1.0078250  12.0000000   1.0078250   1.0078250   1.0078250  12.0000000  12.0000000  12.0000000  12.0000000   1.0078250
 NucSpn=           1           0           1           1           1           0           0           0           0           1
 AtZEff=  -0.0000000  -0.0000000  -0.0000000  -0.0000000  -0.0000000  -0.0000000  -0.0000000  -0.0000000  -0.0000000  -0.0000000
 NQMom=    0.0000000   0.0000000   0.0000000   0.0000000   0.0000000   0.0000000   0.0000000   0.0000000   0.0000000   0.0000000
 NMagM=    2.7928460   0.0000000   2.7928460   2.7928460   2.7928460   0.0000000   0.0000000   0.0000000   0.0000000   2.7928460
 AtZNuc=   1.0000000   6.0000000   1.0000000   1.0000000   1.0000000   6.0000000   6.0000000   6.0000000   6.0000000   1.0000000

  Atom        21          22          23          24          25          26          27          28          29          30
 IAtWgt=          12          12           1          12          12           1          12           1           1          12
 AtmWgt=  12.0000000  12.0000000   1.0078250  12.0000000  12.0000000   1.0078250  12.0000000   1.0078250   1.0078250  12.0000000
 NucSpn=           0           0           1           0           0           1           0           1           1           0
 AtZEff=  -0.0000000  -0.0000000  -0.0000000  -0.0000000  -0.0000000  -0.0000000  -0.0000000  -0.0000000  -0.0000000  -0.0000000
 NQMom=    0.0000000   0.0000000   0.0000000   0.0000000   0.0000000   0.0000000   0.0000000   0.0000000   0.0000000   0.0000000
 NMagM=    0.0000000   0.0000000   2.7928460   0.0000000   0.0000000   2.7928460   0.0000000   2.7928460   2.7928460   0.0000000
 AtZNuc=   6.0000000   6.0000000   1.0000000   6.0000000   6.0000000   1.0000000   6.0000000   1.0000000   1.0000000   6.0000000

  Atom        31          32          33          34          35          36          37          38          39          40
 IAtWgt=          12          12          12           1          12          12           1          12          12           1
 AtmWgt=  12.0000000  12.0000000  12.0000000   1.0078250  12.0000000  12.0000000   1.0078250  12.0000000  12.0000000   1.0078250
 NucSpn=           0           0           0           1           0           0           1           0           0           1
 AtZEff=  -0.0000000  -0.0000000  -0.0000000  -0.0000000  -0.0000000  -0.0000000  -0.0000000  -0.0000000  -0.0000000  -0.0000000
 NQMom=    0.0000000   0.0000000   0.0000000   0.0000000   0.0000000   0.0000000   0.0000000   0.0000000   0.0000000   0.0000000
 NMagM=    0.0000000   0.0000000   0.0000000   2.7928460   0.0000000   0.0000000   2.7928460   0.0000000   0.0000000   2.7928460
 AtZNuc=   6.0000000   6.0000000   6.0000000   1.0000000   6.0000000   6.0000000   1.0000000   6.0000000   6.0000000   1.0000000

  Atom        41          42          43          44          45          46          47          48          49          50
 IAtWgt=          12           1           1          12          12          14           1          14           1          12
 AtmWgt=  12.0000000   1.0078250   1.0078250  12.0000000  12.0000000  14.0030740   1.0078250  14.0030740   1.0078250  12.0000000
 NucSpn=           0           1           1           0           0           2           1           2           1           0
 AtZEff=  -0.0000000  -0.0000000  -0.0000000  -0.0000000  -0.0000000  -0.0000000  -0.0000000  -0.0000000  -0.0000000  -0.0000000
 NQMom=    0.0000000   0.0000000   0.0000000   0.0000000   0.0000000   2.0440000   0.0000000   2.0440000   0.0000000   0.0000000
 NMagM=    0.0000000   2.7928460   2.7928460   0.0000000   0.0000000   0.4037610   2.7928460   0.4037610   2.7928460   0.0000000
 AtZNuc=   6.0000000   1.0000000   1.0000000   6.0000000   6.0000000   7.0000000   1.0000000   7.0000000   1.0000000   6.0000000

  Atom        51          52          53          54          55          56          57          58          59          60
 IAtWgt=          12          14           1          14           1          12          12          14           1          14
 AtmWgt=  12.0000000  14.0030740   1.0078250  14.0030740   1.0078250  12.0000000  12.0000000  14.0030740   1.0078250  14.0030740
 NucSpn=           0           2           1           2           1           0           0           2           1           2
 AtZEff=  -0.0000000  -0.0000000  -0.0000000  -0.0000000  -0.0000000  -0.0000000  -0.0000000  -0.0000000  -0.0000000  -0.0000000
 NQMom=    0.0000000   2.0440000   0.0000000   2.0440000   0.0000000   0.0000000   0.0000000   2.0440000   0.0000000   2.0440000
 NMagM=    0.0000000   0.4037610   2.7928460   0.4037610   2.7928460   0.0000000   0.0000000   0.4037610   2.7928460   0.4037610
 AtZNuc=   6.0000000   7.0000000   1.0000000   7.0000000   1.0000000   6.0000000   6.0000000   7.0000000   1.0000000   7.0000000

  Atom        61          62          63          64          65          66          67          68          69          70
 IAtWgt=           1          12          12          14           1          14           1          12          12          14
 AtmWgt=   1.0078250  12.0000000  12.0000000  14.0030740   1.0078250  14.0030740   1.0078250  12.0000000  12.0000000  14.0030740
 NucSpn=           1           0           0           2           1           2           1           0           0           2
 AtZEff=  -0.0000000  -0.0000000  -0.0000000  -0.0000000  -0.0000000  -0.0000000  -0.0000000  -0.0000000  -0.0000000  -0.0000000
 NQMom=    0.0000000   0.0000000   0.0000000   2.0440000   0.0000000   2.0440000   0.0000000   0.0000000   0.0000000   2.0440000
 NMagM=    2.7928460   0.0000000   0.0000000   0.4037610   2.7928460   0.4037610   2.7928460   0.0000000   0.0000000   0.4037610
 AtZNuc=   1.0000000   6.0000000   6.0000000   7.0000000   1.0000000   7.0000000   1.0000000   6.0000000   6.0000000   7.0000000

  Atom        71          72          73          74          75          76          77          78          79          80
 IAtWgt=           1          14           1           1           1           1           1           1           1           1
 AtmWgt=   1.0078250  14.0030740   1.0078250   1.0078250   1.0078250   1.0078250   1.0078250   1.0078250   1.0078250   1.0078250
 NucSpn=           1           2           1           1           1           1           1           1           1           1
 AtZEff=  -0.0000000  -0.0000000  -0.0000000  -0.0000000  -0.0000000  -0.0000000  -0.0000000  -0.0000000  -0.0000000  -0.0000000
 NQMom=    0.0000000   2.0440000   0.0000000   0.0000000   0.0000000   0.0000000   0.0000000   0.0000000   0.0000000   0.0000000
 NMagM=    2.7928460   0.4037610   2.7928460   2.7928460   2.7928460   2.7928460   2.7928460   2.7928460   2.7928460   2.7928460
 AtZNuc=   1.0000000   7.0000000   1.0000000   1.0000000   1.0000000   1.0000000   1.0000000   1.0000000   1.0000000   1.0000000

  Atom        81          82          83          84          85          86          87
 IAtWgt=           1           1           1           1           1           1           1
 AtmWgt=   1.0078250   1.0078250   1.0078250   1.0078250   1.0078250   1.0078250   1.0078250
 NucSpn=           1           1           1           1           1           1           1
 AtZEff=  -0.0000000  -0.0000000  -0.0000000  -0.0000000  -0.0000000  -0.0000000  -0.0000000
 NQMom=    0.0000000   0.0000000   0.0000000   0.0000000   0.0000000   0.0000000   0.0000000
 NMagM=    2.7928460   2.7928460   2.7928460   2.7928460   2.7928460   2.7928460   2.7928460
 AtZNuc=   1.0000000   1.0000000   1.0000000   1.0000000   1.0000000   1.0000000   1.0000000
 Leave Link  101 at Mon Oct 18 10:22:44 2021, MaxMem=  7864320000 cpu:               2.2 elap:               0.1
 (Enter /apps/gaussian/g16-c01-avx/g16/l202.exe)
 Stoichiometry    C37H40N10
 Framework group  C1[X(C37H40N10)]
 Deg. of freedom   255
 Full point group                 C1      NOp   1
 Largest Abelian subgroup         C1      NOp   1
 Largest concise Abelian subgroup C1      NOp   1
                         Standard orientation:                         
 ---------------------------------------------------------------------
 Center     Atomic      Atomic             Coordinates (Angstroms)
 Number     Number       Type             X           Y           Z
 ---------------------------------------------------------------------
      1          6           0       -3.628169    0.731694    0.920461
      2          6           0       -4.725921   -0.205862    0.741725
      3          6           0       -3.464524    1.828222    0.074437
      4          6           0       -2.372433    2.674959    0.223261
      5          1           0       -4.206531    2.003528   -0.689418
      6          6           0       -1.406112    2.386315    1.185809
      7          6           0       -1.537809    1.276481    2.011883
      8          1           0       -0.545865    3.032935    1.258690
      9          6           0       -2.671719    0.474360    1.896263
     10          6           0       -0.455950    0.895617    2.907566
     11          1           0       -2.767891   -0.372786    2.557233
     12          6           0       -2.179996    3.812769   -0.668722
     13          1           0        0.502416    1.407481    2.730081
     14          1           0       -4.812195   -0.980260    1.518384
     15          1           0       -2.681365    3.746678   -1.646756
     16          6           0        2.946338    0.853174    0.426078
     17          6           0        3.490341    0.158061    1.646917
     18          6           0        2.951591    0.198253   -0.794403
     19          6           0        2.443572    0.814754   -1.937577
     20          1           0        3.327773   -0.809291   -0.862952
     21          6           0        1.940648    2.106951   -1.849319
     22          6           0        1.964971    2.790687   -0.636838
     23          1           0        1.535068    2.610435   -2.713416
     24          6           0        2.464189    2.151316    0.497601
     25          6           0        1.438646    4.141915   -0.531796
     26          1           0        2.480031    2.676669    1.443123
     27          6           0        2.396802    0.093304   -3.201474
     28          1           0        1.467732    4.584977    0.476384
     29          1           0        1.695591    0.491651   -3.951958
     30          6           0       -2.083128   -2.667242   -1.001532
     31          6           0       -3.424032   -2.499710   -1.546166
     32          6           0       -1.880275   -2.636960    0.377096
     33          6           0       -0.595545   -2.662179    0.911087
     34          1           0       -2.745761   -2.561011    1.016347
     35          6           0        0.496969   -2.781436    0.052571
     36          6           0        0.304935   -2.868178   -1.322896
     37          1           0        1.492635   -2.798663    0.467169
     38          6           0       -0.985180   -2.784477   -1.846204
     39          6           0        1.457540   -3.018387   -2.198099
     40          1           0       -1.106742   -2.822451   -2.918094
     41          6           0       -0.438404   -2.516385    2.349137
     42          1           0        2.428015   -3.086756   -1.687373
     43          1           0       -1.367535   -2.607625    2.928929
     44          6           0       -5.741986   -2.300139   -1.370336
     45          6           0       -6.406136   -1.266191   -0.433102
     46          7           0       -4.457852   -2.620411   -0.834835
     47          1           0       -5.682913   -1.895273   -2.392893
     48          7           0       -5.495215   -0.176891   -0.258912
     49          1           0       -6.644072   -1.764225    0.518892
     50          6           0        5.326380   -0.833366    2.580294
     51          6           0        4.336393   -1.966783    2.235696
     52          7           0        4.938429    0.280334    1.728406
     53          1           0        6.368761   -1.104756    2.424646
     54          7           0        3.209942   -1.280668    1.610588
     55          1           0        4.047104   -2.540185    3.120491
     56          6           0       -1.178644    5.835259   -1.270369
     57          6           0        0.350776    6.039163   -1.289522
     58          7           0       -1.464912    4.794320   -0.336245
     59          1           0       -1.543398    5.604503   -2.283499
     60          7           0        0.966961    4.769735   -1.520127
     61          1           0        0.656487    6.480629   -0.327940
     62          6           0        0.542045   -0.458994    4.522715
     63          6           0        0.648540   -1.986839    4.320516
     64          7           0       -0.589938    0.001633    3.786496
     65          1           0        1.478683    0.029418    4.207709
     66          7           0        0.664269   -2.263769    2.914145
     67          1           0       -0.207150   -2.460981    4.822062
     68          6           0        2.940669   -1.672171   -4.622153
     69          6           0        2.553846   -3.114878   -4.233122
     70          7           0        3.106440   -0.925688   -3.417965
     71          1           0        2.169925   -1.245858   -5.284512
     72          7           0        1.353603   -3.070358   -3.455824
     73          1           0        3.393681   -3.555914   -3.676137
     74          1           0       -3.471376   -2.227814   -2.612024
     75          1           0        2.319209   -1.511821    2.044885
     76          1           0        3.079219    0.638182    2.556806
     77          1           0        5.324579    0.149182    0.796788
     78          1           0       -6.355936   -3.205433   -1.374608
     79          1           0       -7.320269   -0.893687   -0.899449
     80          1           0        5.194396   -0.519022    3.620712
     81          1           0        4.778804   -2.658683    1.507832
     82          1           0       -1.647377    6.759940   -0.920596
     83          1           0        0.613237    6.712491   -2.108464
     84          1           0        0.374660   -0.263745    5.585676
     85          1           0        1.581847   -2.344336    4.761344
     86          1           0        3.898434   -1.702348   -5.149195
     87          1           0        2.360628   -3.691912   -5.139864
 ---------------------------------------------------------------------
 Rotational constants (GHZ):           0.0709132           0.0606593           0.0532027
 Leave Link  202 at Mon Oct 18 10:22:44 2021, MaxMem=  7864320000 cpu:               0.1 elap:               0.0
 (Enter /apps/gaussian/g16-c01-avx/g16/l301.exe)
 Standard basis: def2TZVP (5D, 7F)
 Ernie: Thresh=  0.10000D-02 Tol=  0.10000D-05 Strict=F.
 There are  1932 symmetry adapted cartesian basis functions of A   symmetry.
 There are  1697 symmetry adapted basis functions of A   symmetry.
  1697 basis functions,  2717 primitive gaussians,  1932 cartesian basis functions
   166 alpha electrons      166 beta electrons
       nuclear repulsion energy      6004.1257277682 Hartrees.
 IExCor= 1009 DFT=T Ex+Corr=PBE1PBE ExCW=0 ScaHFX=  0.250000
 ScaDFX=  0.750000  0.750000  1.000000  1.000000 ScalE2=  1.000000  1.000000
 IRadAn=      7 IRanWt=     -1 IRanGd=            0 ICorTp=0 IEmpDi=131
 NAtoms=   87 NActive=   87 NUniq=   87 SFac= 1.00D+00 NAtFMM=   60 NAOKFM=T Big=T
 Integral buffers will be    131072 words long.
 Raffenetti 2 integral format.
 Two-electron integral symmetry is turned on.
 R6Disp:  Grimme-D3 Dispersion energy=       -0.0757889214 Hartrees.
 Nuclear repulsion after empirical dispersion term =     6004.0499388468 Hartrees.
 ------------------------------------------------------------------------------
 Polarizable Continuum Model (PCM)
 =================================
 Model                : PCM.
 Atomic radii         : UFF (Universal Force Field).
 Polarization charges : Total charges.
 Charge compensation  : None.
 Solution method      : On-the-fly selection.
 Cavity type          : Scaled VdW (van der Waals Surface) (Alpha=1.100).
 Cavity algorithm     : GePol (No added spheres)
                        Default sphere list used, NSphG=   87.
                        Lebedev-Laikov grids with approx.  5.0 points / Ang**2.
                        Smoothing algorithm: York/Karplus (Gamma=1.0000).
                        Polarization charges: spherical gaussians, with
                                              point-specific exponents (IZeta= 3).
                        Self-potential: point-specific (ISelfS= 7).
                        Self-field    : sphere-specific E.n sum rule (ISelfD= 2).
 Solvent              : Dichloromethane, Eps=   8.930000 Eps(inf)=   2.028346
 ------------------------------------------------------------------------------
 GePol: Number of generator spheres                  =      87
 GePol: Total number of spheres                      =      87
 GePol: Number of exposed spheres                    =      87 (100.00%)
 GePol: Number of points                             =    5354
 GePol: Average weight of points                     =       0.12
 GePol: Minimum weight of points                     =   0.11D-10
 GePol: Maximum weight of points                     =    0.20577
 GePol: Number of points with low weight             =     485
 GePol: Fraction of low-weight points (<1% of avg)   =       9.06%
 GePol: Cavity surface area                          =    668.401 Ang**2
 GePol: Cavity volume                                =    853.515 Ang**3
 Leave Link  301 at Mon Oct 18 10:22:44 2021, MaxMem=  7864320000 cpu:               1.2 elap:               0.0
 (Enter /apps/gaussian/g16-c01-avx/g16/l302.exe)
 NPDir=0 NMtPBC=     1 NCelOv=     1 NCel=       1 NClECP=     1 NCelD=      1
         NCelK=      1 NCelE2=     1 NClLst=     1 CellRange=     0.0.
 One-electron integrals computed using PRISM.
 One-electron integral symmetry used in STVInt
   1 Symmetry operations used in ECPInt.
 ECPInt:  NShTT=  229503 NPrTT=  697944 LenC2=  174213 LenP2D=  346346.
 LDataN:  DoStor=T MaxTD1= 6 Len=  172
 NBasis=  1697 RedAO= T EigKep=  4.34D-06  NBF=  1697
 NBsUse=  1697 1.00D-06 EigRej= -1.00D+00 NBFU=  1697
 Precomputing XC quadrature grid using
 IXCGrd= 4 IRadAn=           7 IRanWt=          -1 IRanGd=           0 AccXCQ= 0.00D+00.
 Generated NRdTot=       0 NPtTot=           0 NUsed=           0 NTot=          32
 NSgBfM=  1798  1766  1777  1778  1798 MxSgAt=    87 MxSgA2=    87.
 Leave Link  302 at Mon Oct 18 10:22:49 2021, MaxMem=  7864320000 cpu:             172.7 elap:               5.4
 (Enter /apps/gaussian/g16-c01-avx/g16/l303.exe)
 DipDrv:  MaxL=1.
 Leave Link  303 at Mon Oct 18 10:22:50 2021, MaxMem=  7864320000 cpu:              11.0 elap:               0.5
 (Enter /apps/gaussian/g16-c01-avx/g16/l401.exe)
 ExpMin= 9.52D-02 ExpMax= 1.97D+04 ExpMxC= 6.73D+02 IAcc=3 IRadAn=         7 AccDes= 0.00D+00
 Harris functional with IExCor= 1009 and IRadAn=       7 diagonalized for initial guess.
 HarFok:  IExCor= 1009 AccDes= 0.00D+00 IRadAn=         7 IDoV= 1 UseB2=F ITyADJ=14
 ICtDFT=  3500011 ScaDFX=  1.000000  1.000000  1.000000  1.000000
 FoFCou: FMM=F IPFlag=           0 FMFlag=      100000 FMFlg1=        2001
         NFxFlg=           0 DoJE=T BraDBF=F KetDBF=T FulRan=T
         wScrn=  0.000000 ICntrl=       500 IOpCl=  0 I1Cent=   200000004 NGrid=           0
         NMat0=    1 NMatS0=      1 NMatT0=    0 NMatD0=    1 NMtDS0=    0 NMtDT0=    0
 Petite list used in FoFCou.
 Harris En= -1980.30036648308    
 JPrj=0 DoOrth=F DoCkMO=F.
 Leave Link  401 at Mon Oct 18 10:23:12 2021, MaxMem=  7864320000 cpu:             702.5 elap:              22.1
 (Enter /apps/gaussian/g16-c01-avx/g16/l508.exe)
 Integral symmetry usage will be decided dynamically.
 Tight linear equation convergence will be used.
 RPBE1PBE wavefunction.
 Linear searches until partial convergence.
 Full line searches.
 Fock matrices will be formed incrementally for  20 cycles.
 Inv3:  Mode=1 IEnd=    85995948.
 Iteration    1 A*A^-1 deviation from unit magnitude is 7.66D-15 for   5315.
 Iteration    1 A*A^-1 deviation from orthogonality  is 3.10D-15 for   5339   5321.
 Iteration    1 A^-1*A deviation from unit magnitude is 7.66D-15 for   5315.
 Iteration    1 A^-1*A deviation from orthogonality  is 6.06D-15 for   3261   3237.
 FoFJK:  IHMeth= 1 ICntrl=       0 DoSepK=F KAlg= 0 I1Cent=           0 FoldK=F
 IRaf= 750000000 NMat=       1 IRICut=       1 DoRegI=T DoRafI=F ISym2E= 1 IDoP0=0 IntGTp=1.
 Iteration   1 EE= -1979.08976935125                                    Grad=1.349D+00 Max rot=    1.8460 deg.
 Gradient too large for Newton-Raphson -- use scaled steepest descent instead.
 Alpha Gap=     0.146 HL deriv= 2.46D-04
     ILin= 1 X=0.000D+00 Y=-1.979089769351D+03 DE= 0.00D+00 F= -3.05D+00
 RMSU=  6.53D-04    CP:  1.01D+00
     ILin= 2 X=3.000D-01 Y=-1.979726319329D+03 DE=-6.37D-01 F= -1.18D+00 OKLS=F
 RMSU=  1.16D-04    CP:  1.02D+00  1.76D+00
     ILin= 3 X=5.000D-01 Y=-1.979836591732D+03 DE=-7.47D-01 F=  8.33D-02
 RMSU=  4.28D-04    CP:  1.05D+00  3.00D+00  3.00D+00
     ILin= 4 X=9.000D-01 Y=-1.979292158578D+03 DE=-2.02D-01 F=  2.64D+00
     An  expanding polynomial of degree  4 produced  0.4871
     Minimum is close to point  3 DX= -1.29D-02 DF= -5.29D-04 DXR=  2.65D-02 DFR=  7.08D-04 which will be used.
 Iteration   2 EE= -1979.83659173165     Delta-E=       -0.746822380404 Grad=4.124D-01 Max rot=    1.3297 deg.
 Gradient too large for Newton-Raphson -- use scaled steepest descent instead.
 Alpha Gap=     0.182 HL deriv= 9.47D-04
     ILin= 1 X=0.000D+00 Y=-1.979836591732D+03 DE= 0.00D+00 F= -1.83D-01
 RMSU=  1.73D-04    CP:  1.02D+00  1.86D+00  1.17D+00  3.25D-04
     ILin= 2 X=4.000D-01 Y=-1.979877510574D+03 DE=-4.09D-02 F= -2.17D-02 OKLS=F
 RMSU=  1.02D-05    CP:  1.01D+00  1.94D+00  1.36D+00  5.71D-04  1.75D+00
     ILin= 3 X=7.000D-01 Y=-1.979865970022D+03 DE=-2.94D-02 F=  9.84D-02
     An  expanding polynomial of degree  3 produced  0.4544
 RMSU=  2.06D-09    CP:  1.02D+00  1.88D+00  1.20D+00  3.70D-04  1.14D+00
                    CP:  1.18D-01
 Iteration   3 EE= -1979.87809494934     Delta-E=       -0.041503217689 Grad=1.937D-01 Max rot=    0.6074 deg.
 Gradient too large for Newton-Raphson -- use scaled steepest descent instead.
 Alpha Gap=     0.161 HL deriv= 9.59D-04
     ILin= 1 X=0.000D+00 Y=-1.979878094949D+03 DE= 0.00D+00 F= -3.19D-02
 RMSU=  7.51D-05    CP:  1.02D+00  2.16D+00  1.92D+00  5.20D-04  1.59D+00
                    CP:  5.56D-01 -3.00D+00
     ILin= 2 X=5.000D-01 Y=-1.979885582729D+03 DE=-7.49D-03 F=  1.99D-03 OKLS=T
     Accept linear search using points  1 and  2.
     An  expanding polynomial of degree  2 produced  0.3413
 RMSU=  6.84D-07    CP:  1.02D+00  2.07D+00  1.67D+00  4.71D-04  1.45D+00
                    CP:  3.64D-01 -3.00D+00  6.80D-01
 Iteration   4 EE= -1979.88504403708     Delta-E=       -0.006949087735 Grad=1.153D-01 Max rot=    0.4042 deg.
 Gradient too large for Newton-Raphson -- use scaled steepest descent instead.
 Alpha Gap=     0.166 HL deriv= 3.55D-05
     ILin= 1 X=0.000D+00 Y=-1.979885044037D+03 DE= 0.00D+00 F= -6.65D-03
 RMSU=  1.61D-05    CP:  1.02D+00  2.18D+00  1.95D+00  5.51D-04  1.73D+00
                    CP:  9.05D-01 -3.00D+00  9.77D-01  1.99D+00
     ILin= 2 X=4.000D-01 Y=-1.979887087909D+03 DE=-2.04D-03 F= -3.57D-03 OKLS=F
 RMSU=  7.25D-07    CP:  1.02D+00  2.28D+00  2.25D+00  6.34D-04  2.01D+00
                    CP:  1.62D+00 -3.00D+00  1.27D+00  1.56D+00  2.01D+00
     ILin= 3 X=8.000D-01 Y=-1.979887900135D+03 DE=-2.86D-03 F= -4.91D-04
 RMSU=  1.86D-05    CP:  1.02D+00  2.51D+00  2.93D+00  8.05D-04  2.59D+00
                    CP:  3.00D+00 -3.00D+00  1.88D+00 -3.00D+00  3.00D+00
                    CP:  3.00D+00
     ILin= 4 X=1.600D+00 Y=-1.979885831059D+03 DE=-7.87D-04 F=  5.66D-03
     An  expanding polynomial of degree  4 produced  0.8638
     Minimum is close to point  3 DX=  6.38D-02 DF= -1.57D-05 DXR=  7.39D-02 DFR=  5.49D-03 which will be used.
 Iteration   5 EE= -1979.88790013531     Delta-E=       -0.002856098227 Grad=2.518D-02 Max rot=    0.0734 deg.
 Gradient too large for Newton-Raphson -- use scaled steepest descent instead.
 Alpha Gap=     0.167 HL deriv= 1.88D-04
     ILin= 1 X=0.000D+00 Y=-1.979887900135D+03 DE= 0.00D+00 F= -7.58D-04
 RMSU=  1.16D-05    CP:  1.02D+00  2.34D+00  2.44D+00  6.64D-04  2.10D+00
                    CP:  1.81D+00 -3.00D+00  1.53D+00 -3.00D+00  2.45D+00
                    CP:  1.40D+00  2.37D-04
     ILin= 2 X=5.000D-01 Y=-1.979888031093D+03 DE=-1.31D-04 F=  2.34D-04 OKLS=T
     Accept linear search using points  1 and  2.
     An  expanding polynomial of degree  2 produced  0.2873
 RMSU=  1.24D-07    CP:  1.02D+00  2.32D+00  2.36D+00  6.51D-04  2.06D+00
                    CP:  1.72D+00 -3.00D+00  1.42D+00 -1.18D+00  2.26D+00
                    CP:  1.21D+00 -3.20D-06  5.74D-01
 Iteration   6 EE= -1979.88803594596     Delta-E=       -0.000135810657 Grad=1.506D-02 Max rot=    0.0469 deg.
 Gradient too large for Newton-Raphson -- use scaled steepest descent instead.
 Alpha Gap=     0.167 HL deriv= 1.78D-05
     ILin= 1 X=0.000D+00 Y=-1.979888035946D+03 DE= 0.00D+00 F= -1.12D-04
 RMSU=  2.89D-06    CP:  1.02D+00  2.38D+00  2.55D+00  6.83D-04  2.18D+00
                    CP:  2.10D+00 -3.00D+00  1.66D+00 -3.00D+00  3.00D+00
                    CP:  2.49D+00  2.03D-01  1.58D+00 -3.00D+00
     ILin= 2 X=9.000D-01 Y=-1.979888091210D+03 DE=-5.53D-05 F= -1.04D-05 OKLS=T
     Reject lnstep IMin12=  1  2 Big=T Turn=F Min= 1.049D+00 FVal=-1.979888092048D+03 Lims=  0.00D+00  9.00D-01
 RMSU=  3.18D-06    CP:  1.02D+00  2.43D+00  2.73D+00  7.12D-04  2.29D+00
                    CP:  2.46D+00 -3.00D+00  1.87D+00 -3.00D+00  3.00D+00
                    CP:  3.00D+00  9.33D-01  2.48D+00 -3.00D+00  2.54D+00
     ILin= 3 X=1.700D+00 Y=-1.979888063224D+03 DE=-2.73D-05 F=  8.03D-05
     An  expanding polynomial of degree  3 produced  0.9915
     Minimum is close to point  2 DX=  9.15D-02 DF= -4.75D-07 DXR=  9.23D-02 DFR=  8.59D-03 which will be used.
 Iteration   7 EE= -1979.88809121036     Delta-E=       -0.000055264397 Grad=2.691D-03 Max rot=    0.0076 deg.
 SCF Done:  E(RPBE1PBE) =  -1979.88809121     a.u. after    7 cycles
            Convg  =    0.2691D-02                    16 Fock formations.
              S**2 =  0.0000                  -V/T =  2.0045
 Leave Link  508 at Mon Oct 18 10:58:43 2021, MaxMem=  7864320000 cpu:           67558.0 elap:            2131.0
 (Enter /apps/gaussian/g16-c01-avx/g16/l502.exe)
 Integral symmetry usage will be decided dynamically.
 Closed shell SCF:
 Using DIIS extrapolation, IDIIS=  1040.
 NGot=  7864320000 LenX=  7856774098 LenY=  7853039542
 Requested convergence on RMS density matrix=1.00D-08 within 128 cycles.
 Requested convergence on MAX density matrix=1.00D-06.
 Requested convergence on             energy=1.00D-06.
 No special actions if energy rises.
 Fock matrices will be formed incrementally for  20 cycles.

 Cycle   1  Pass 1  IDiag  1:
 FoFJK:  IHMeth= 1 ICntrl=       0 DoSepK=F KAlg= 0 I1Cent=           0 FoldK=F
 IRaf= 750000000 NMat=       1 IRICut=       1 DoRegI=T DoRafI=F ISym2E= 0 IDoP0=0 IntGTp=1.
 FoFCou: FMM=T IPFlag=           0 FMFlag=      100000 FMFlg1=        2001
         NFxFlg=           0 DoJE=F BraDBF=F KetDBF=F FulRan=T
         wScrn=  0.000000 ICntrl=         0 IOpCl=  0 I1Cent=           0 NGrid=           0
         NMat0=    1 NMatS0=      1 NMatT0=    0 NMatD0=    1 NMtDS0=    0 NMtDT0=    0
 Symmetry not used in FoFCou.
 FMM levels:  10  Number of levels for PrismC:   9
 E= -1979.88809121037    
 DIIS: error= 2.13D-05 at cycle   1 NSaved=   1.
 NSaved= 1 IEnMin= 1 EnMin= -1979.88809121037     IErMin= 1 ErrMin= 2.13D-05
 ErrMax= 2.13D-05  0.00D+00 EMaxC= 1.00D-01 BMatC= 3.62D-06 BMatP= 3.62D-06
 IDIUse=1 WtCom= 1.00D+00 WtEn= 0.00D+00
 Coeff-Com:  0.100D+01
 Coeff:      0.100D+01
 Gap=     0.167 Goal=   None    Shift=    0.000
 RMSDP=1.37D-05 MaxDP=2.64D-03              OVMax= 7.21D-04

 Cycle   2  Pass 1  IDiag  1:
 RMSU=  1.30D-05    CP:  1.00D+00
 E= -1979.88808936647     Delta-E=        0.000001843900 Rises=F Damp=F
 DIIS: error= 2.51D-05 at cycle   2 NSaved=   2.
 NSaved= 2 IEnMin= 1 EnMin= -1979.88809121037     IErMin= 1 ErrMin= 2.13D-05
 ErrMax= 2.51D-05  0.00D+00 EMaxC= 1.00D-01 BMatC= 6.49D-06 BMatP= 3.62D-06
 IDIUse=1 WtCom= 1.00D+00 WtEn= 0.00D+00
 Coeff-Com:  0.586D+00 0.414D+00
 Coeff:      0.586D+00 0.414D+00
 Gap=     0.160 Goal=   None    Shift=    0.000
 RMSDP=5.61D-06 MaxDP=1.47D-03 DE= 1.84D-06 OVMax= 5.27D-04

 Cycle   3  Pass 1  IDiag  1:
 RMSU=  4.53D-06    CP:  1.00D+00  1.18D+00
 E= -1979.88809481636     Delta-E=       -0.000005449895 Rises=F Damp=F
 DIIS: error= 7.63D-06 at cycle   3 NSaved=   3.
 NSaved= 3 IEnMin= 3 EnMin= -1979.88809481636     IErMin= 3 ErrMin= 7.63D-06
 ErrMax= 7.63D-06  0.00D+00 EMaxC= 1.00D-01 BMatC= 4.48D-07 BMatP= 3.62D-06
 IDIUse=1 WtCom= 1.00D+00 WtEn= 0.00D+00
 Coeff-Com:  0.471D-01 0.207D+00 0.746D+00
 Coeff:      0.471D-01 0.207D+00 0.746D+00
 Gap=     0.160 Goal=   None    Shift=    0.000
 RMSDP=9.27D-07 MaxDP=2.27D-04 DE=-5.45D-06 OVMax= 1.24D-04

 Cycle   4  Pass 1  IDiag  1:
 RMSU=  5.97D-07    CP:  1.00D+00  1.20D+00  8.65D-01
 E= -1979.88809517396     Delta-E=       -0.000000357601 Rises=F Damp=F
 DIIS: error= 2.76D-06 at cycle   4 NSaved=   4.
 NSaved= 4 IEnMin= 4 EnMin= -1979.88809517396     IErMin= 4 ErrMin= 2.76D-06
 ErrMax= 2.76D-06  0.00D+00 EMaxC= 1.00D-01 BMatC= 6.61D-08 BMatP= 4.48D-07
 IDIUse=1 WtCom= 1.00D+00 WtEn= 0.00D+00
 Coeff-Com: -0.169D-01 0.843D-01 0.418D+00 0.515D+00
 Coeff:     -0.169D-01 0.843D-01 0.418D+00 0.515D+00
 Gap=     0.160 Goal=   None    Shift=    0.000
 RMSDP=2.81D-07 MaxDP=8.82D-05 DE=-3.58D-07 OVMax= 3.31D-05

 Cycle   5  Pass 1  IDiag  1:
 RMSU=  1.81D-07    CP:  1.00D+00  1.21D+00  8.59D-01  7.50D-01
 E= -1979.88809523282     Delta-E=       -0.000000058853 Rises=F Damp=F
 DIIS: error= 5.82D-07 at cycle   5 NSaved=   5.
 NSaved= 5 IEnMin= 5 EnMin= -1979.88809523282     IErMin= 5 ErrMin= 5.82D-07
 ErrMax= 5.82D-07  0.00D+00 EMaxC= 1.00D-01 BMatC= 2.33D-09 BMatP= 6.61D-08
 IDIUse=1 WtCom= 1.00D+00 WtEn= 0.00D+00
 Coeff-Com: -0.103D-01 0.233D-01 0.135D+00 0.231D+00 0.621D+00
 Coeff:     -0.103D-01 0.233D-01 0.135D+00 0.231D+00 0.621D+00
 Gap=     0.160 Goal=   None    Shift=    0.000
 RMSDP=6.41D-08 MaxDP=9.59D-06 DE=-5.89D-08 OVMax= 6.37D-06

 Cycle   6  Pass 1  IDiag  1:
 RMSU=  4.83D-08    CP:  1.00D+00  1.21D+00  8.64D-01  7.85D-01  9.69D-01
 E= -1979.88809523481     Delta-E=       -0.000000001995 Rises=F Damp=F
 DIIS: error= 1.62D-07 at cycle   6 NSaved=   6.
 NSaved= 6 IEnMin= 6 EnMin= -1979.88809523481     IErMin= 6 ErrMin= 1.62D-07
 ErrMax= 1.62D-07  0.00D+00 EMaxC= 1.00D-01 BMatC= 1.51D-10 BMatP= 2.33D-09
 IDIUse=1 WtCom= 1.00D+00 WtEn= 0.00D+00
 Coeff-Com: -0.317D-02 0.403D-02 0.296D-01 0.635D-01 0.252D+00 0.654D+00
 Coeff:     -0.317D-02 0.403D-02 0.296D-01 0.635D-01 0.252D+00 0.654D+00
 Gap=     0.160 Goal=   None    Shift=    0.000
 RMSDP=2.08D-08 MaxDP=3.49D-06 DE=-2.00D-09 OVMax= 2.94D-06

 Cycle   7  Pass 1  IDiag  1:
 RMSU=  1.58D-08    CP:  1.00D+00  1.21D+00  8.63D-01  7.94D-01  1.00D+00
                    CP:  8.31D-01
 E= -1979.88809523494     Delta-E=       -0.000000000129 Rises=F Damp=F
 DIIS: error= 1.20D-07 at cycle   7 NSaved=   7.
 NSaved= 7 IEnMin= 7 EnMin= -1979.88809523494     IErMin= 7 ErrMin= 1.20D-07
 ErrMax= 1.20D-07  0.00D+00 EMaxC= 1.00D-01 BMatC= 7.87D-11 BMatP= 1.51D-10
 IDIUse=1 WtCom= 1.00D+00 WtEn= 0.00D+00
 Coeff-Com:  0.149D-03-0.251D-02-0.953D-02-0.784D-02 0.322D-01 0.443D+00
 Coeff-Com:  0.544D+00
 Coeff:      0.149D-03-0.251D-02-0.953D-02-0.784D-02 0.322D-01 0.443D+00
 Coeff:      0.544D+00
 Gap=     0.160 Goal=   None    Shift=    0.000
 RMSDP=1.15D-08 MaxDP=2.90D-06 DE=-1.29D-10 OVMax= 1.80D-06

 Cycle   8  Pass 1  IDiag  1:
 RMSU=  6.46D-09    CP:  1.00D+00  1.21D+00  8.64D-01  7.99D-01  1.01D+00
                    CP:  9.21D-01  6.53D-01
 E= -1979.88809523509     Delta-E=       -0.000000000144 Rises=F Damp=F
 DIIS: error= 2.29D-08 at cycle   8 NSaved=   8.
 NSaved= 8 IEnMin= 8 EnMin= -1979.88809523509     IErMin= 8 ErrMin= 2.29D-08
 ErrMax= 2.29D-08  0.00D+00 EMaxC= 1.00D-01 BMatC= 4.45D-12 BMatP= 7.87D-11
 IDIUse=1 WtCom= 1.00D+00 WtEn= 0.00D+00
 Coeff-Com:  0.318D-03-0.167D-02-0.734D-02-0.933D-02-0.488D-02 0.173D+00
 Coeff-Com:  0.283D+00 0.568D+00
 Coeff:      0.318D-03-0.167D-02-0.734D-02-0.933D-02-0.488D-02 0.173D+00
 Coeff:      0.283D+00 0.568D+00
 Gap=     0.160 Goal=   None    Shift=    0.000
 RMSDP=4.02D-09 MaxDP=9.36D-07 DE=-1.44D-10 OVMax= 4.86D-07

 Error on total polarization charges =  0.02263
 SCF Done:  E(RPBE1PBE) =  -1979.88809524     A.U. after    8 cycles
            NFock=  8  Conv=0.40D-08     -V/T= 2.0045
 KE= 1.970988907275D+03 PE=-1.661436039461D+04 EE= 6.659433453255D+03
 Leave Link  502 at Mon Oct 18 11:17:23 2021, MaxMem=  7864320000 cpu:           35555.6 elap:            1120.3
 (Enter /apps/gaussian/g16-c01-avx/g16/l508.exe)
 QCSCF skips out because SCF is already converged.
 Leave Link  508 at Mon Oct 18 11:17:23 2021, MaxMem=  7864320000 cpu:               0.0 elap:               0.0
 (Enter /apps/gaussian/g16-c01-avx/g16/l601.exe)
 Copying SCF densities to generalized density rwf, IOpCl= 0 IROHF=0.

 **********************************************************************

            Population analysis using the SCF Density.

 **********************************************************************

 Orbital symmetries:
       Occupied  (A) (A) (A) (A) (A) (A) (A) (A) (A) (A) (A) (A)
                 (A) (A) (A) (A) (A) (A) (A) (A) (A) (A) (A) (A)
                 (A) (A) (A) (A) (A) (A) (A) (A) (A) (A) (A) (A)
                 (A) (A) (A) (A) (A) (A) (A) (A) (A) (A) (A) (A)
                 (A) (A) (A) (A) (A) (A) (A) (A) (A) (A) (A) (A)
                 (A) (A) (A) (A) (A) (A) (A) (A) (A) (A) (A) (A)
                 (A) (A) (A) (A) (A) (A) (A) (A) (A) (A) (A) (A)
                 (A) (A) (A) (A) (A) (A) (A) (A) (A) (A) (A) (A)
                 (A) (A) (A) (A) (A) (A) (A) (A) (A) (A) (A) (A)
                 (A) (A) (A) (A) (A) (A) (A) (A) (A) (A) (A) (A)
                 (A) (A) (A) (A) (A) (A) (A) (A) (A) (A) (A) (A)
                 (A) (A) (A) (A) (A) (A) (A) (A) (A) (A) (A) (A)
                 (A) (A) (A) (A) (A) (A) (A) (A) (A) (A) (A) (A)
                 (A) (A) (A) (A) (A) (A) (A) (A) (A) (A)
       Virtual   (A) (A) (A) (A) (A) (A) (A) (A) (A) (A) (A) (A)
                 (A) (A) (A) (A) (A) (A) (A) (A) (A) (A) (A) (A)
                 (A) (A) (A) (A) (A) (A) (A) (A) (A) (A) (A) (A)
                 (A) (A) (A) (A) (A) (A) (A) (A) (A) (A) (A) (A)
                 (A) (A) (A) (A) (A) (A) (A) (A) (A) (A) (A) (A)
                 (A) (A) (A) (A) (A) (A) (A) (A) (A) (A) (A) (A)
                 (A) (A) (A) (A) (A) (A) (A) (A) (A) (A) (A) (A)
                 (A) (A) (A) (A) (A) (A) (A) (A) (A) (A) (A) (A)
                 (A) (A) (A) (A) (A) (A) (A) (A) (A) (A) (A) (A)
                 (A) (A) (A) (A) (A) (A) (A) (A) (A) (A) (A) (A)
                 (A) (A) (A) (A) (A) (A) (A) (A) (A) (A) (A) (A)
                 (A) (A) (A) (A) (A) (A) (A) (A) (A) (A) (A) (A)
                 (A) (A) (A) (A) (A) (A) (A) (A) (A) (A) (A) (A)
                 (A) (A) (A) (A) (A) (A) (A) (A) (A) (A) (A) (A)
                 (A) (A) (A) (A) (A) (A) (A) (A) (A) (A) (A) (A)
                 (A) (A) (A) (A) (A) (A) (A) (A) (A) (A) (A) (A)
                 (A) (A) (A) (A) (A) (A) (A) (A) (A) (A) (A) (A)
                 (A) (A) (A) (A) (A) (A) (A) (A) (A) (A) (A) (A)
                 (A) (A) (A) (A) (A) (A) (A) (A) (A) (A) (A) (A)
                 (A) (A) (A) (A) (A) (A) (A) (A) (A) (A) (A) (A)
                 (A) (A) (A) (A) (A) (A) (A) (A) (A) (A) (A) (A)
                 (A) (A) (A) (A) (A) (A) (A) (A) (A) (A) (A) (A)
                 (A) (A) (A) (A) (A) (A) (A) (A) (A) (A) (A) (A)
                 (A) (A) (A) (A) (A) (A) (A) (A) (A) (A) (A) (A)
                 (A) (A) (A) (A) (A) (A) (A) (A) (A) (A) (A) (A)
                 (A) (A) (A) (A) (A) (A) (A) (A) (A) (A) (A) (A)
                 (A) (A) (A) (A) (A) (A) (A) (A) (A) (A) (A) (A)
                 (A) (A) (A) (A) (A) (A) (A) (A) (A) (A) (A) (A)
                 (A) (A) (A) (A) (A) (A) (A) (A) (A) (A) (A) (A)
                 (A) (A) (A) (A) (A) (A) (A) (A) (A) (A) (A) (A)
                 (A) (A) (A) (A) (A) (A) (A) (A) (A) (A) (A) (A)
                 (A) (A) (A) (A) (A) (A) (A) (A) (A) (A) (A) (A)
                 (A) (A) (A) (A) (A) (A) (A) (A) (A) (A) (A) (A)
                 (A) (A) (A) (A) (A) (A) (A) (A) (A) (A) (A) (A)
                 (A) (A) (A) (A) (A) (A) (A) (A) (A) (A) (A) (A)
                 (A) (A) (A) (A) (A) (A) (A) (A) (A) (A) (A) (A)
                 (A) (A) (A) (A) (A) (A) (A) (A) (A) (A) (A) (A)
                 (A) (A) (A) (A) (A) (A) (A) (A) (A) (A) (A) (A)
                 (A) (A) (A) (A) (A) (A) (A) (A) (A) (A) (A) (A)
                 (A) (A) (A) (A) (A) (A) (A) (A) (A) (A) (A) (A)
                 (A) (A) (A) (A) (A) (A) (A) (A) (A) (A) (A) (A)
                 (A) (A) (A) (A) (A) (A) (A) (A) (A) (A) (A) (A)
                 (A) (A) (A) (A) (A) (A) (A) (A) (A) (A) (A) (A)
                 (A) (A) (A) (A) (A) (A) (A) (A) (A) (A) (A) (A)
                 (A) (A) (A) (A) (A) (A) (A) (A) (A) (A) (A) (A)
                 (A) (A) (A) (A) (A) (A) (A) (A) (A) (A) (A) (A)
                 (A) (A) (A) (A) (A) (A) (A) (A) (A) (A) (A) (A)
                 (A) (A) (A) (A) (A) (A) (A) (A) (A) (A) (A) (A)
                 (A) (A) (A) (A) (A) (A) (A) (A) (A) (A) (A) (A)
                 (A) (A) (A) (A) (A) (A) (A) (A) (A) (A) (A) (A)
                 (A) (A) (A) (A) (A) (A) (A) (A) (A) (A) (A) (A)
                 (A) (A) (A) (A) (A) (A) (A) (A) (A) (A) (A) (A)
                 (A) (A) (A) (A) (A) (A) (A) (A) (A) (A) (A) (A)
                 (A) (A) (A) (A) (A) (A) (A) (A) (A) (A) (A) (A)
                 (A) (A) (A) (A) (A) (A) (A) (A) (A) (A) (A) (A)
                 (A) (A) (A) (A) (A) (A) (A) (A) (A) (A) (A) (A)
                 (A) (A) (A) (A) (A) (A) (A) (A) (A) (A) (A) (A)
                 (A) (A) (A) (A) (A) (A) (A) (A) (A) (A) (A) (A)
                 (A) (A) (A) (A) (A) (A) (A) (A) (A) (A) (A) (A)
                 (A) (A) (A) (A) (A) (A) (A) (A) (A) (A) (A) (A)
                 (A) (A) (A) (A) (A) (A) (A) (A) (A) (A) (A) (A)
                 (A) (A) (A) (A) (A) (A) (A) (A) (A) (A) (A) (A)
                 (A) (A) (A) (A) (A) (A) (A) (A) (A) (A) (A) (A)
                 (A) (A) (A) (A) (A) (A) (A) (A) (A) (A) (A) (A)
                 (A) (A) (A) (A) (A) (A) (A) (A) (A) (A) (A) (A)
                 (A) (A) (A) (A) (A) (A) (A) (A) (A) (A) (A) (A)
                 (A) (A) (A) (A) (A) (A) (A) (A) (A) (A) (A) (A)
                 (A) (A) (A) (A) (A) (A) (A) (A) (A) (A) (A) (A)
                 (A) (A) (A) (A) (A) (A) (A) (A) (A) (A) (A) (A)
                 (A) (A) (A) (A) (A) (A) (A) (A) (A) (A) (A) (A)
                 (A) (A) (A) (A) (A) (A) (A) (A) (A) (A) (A) (A)
                 (A) (A) (A) (A) (A) (A) (A) (A) (A) (A) (A) (A)
                 (A) (A) (A) (A) (A) (A) (A) (A) (A) (A) (A) (A)
                 (A) (A) (A) (A) (A) (A) (A) (A) (A) (A) (A) (A)
                 (A) (A) (A) (A) (A) (A) (A) (A) (A) (A) (A) (A)
                 (A) (A) (A) (A) (A) (A) (A) (A) (A) (A) (A) (A)
                 (A) (A) (A) (A) (A) (A) (A) (A) (A) (A) (A) (A)
                 (A) (A) (A) (A) (A) (A) (A) (A) (A) (A) (A) (A)
                 (A) (A) (A) (A) (A) (A) (A) (A) (A) (A) (A) (A)
                 (A) (A) (A) (A) (A) (A) (A) (A) (A) (A) (A) (A)
                 (A) (A) (A) (A) (A) (A) (A) (A) (A) (A) (A) (A)
                 (A) (A) (A) (A) (A) (A) (A) (A) (A) (A) (A) (A)
                 (A) (A) (A) (A) (A) (A) (A) (A) (A) (A) (A) (A)
                 (A) (A) (A) (A) (A) (A) (A) (A) (A) (A) (A) (A)
                 (A) (A) (A) (A) (A) (A) (A) (A) (A) (A) (A) (A)
                 (A) (A) (A) (A) (A) (A) (A) (A) (A) (A) (A) (A)
                 (A) (A) (A) (A) (A) (A) (A) (A) (A) (A) (A) (A)
                 (A) (A) (A) (A) (A) (A) (A) (A) (A) (A) (A) (A)
                 (A) (A) (A) (A) (A) (A) (A) (A) (A) (A) (A) (A)
                 (A) (A) (A) (A) (A) (A) (A) (A) (A) (A) (A) (A)
                 (A) (A) (A) (A) (A) (A) (A) (A) (A) (A) (A) (A)
                 (A) (A) (A) (A) (A) (A) (A) (A) (A) (A) (A) (A)
                 (A) (A) (A) (A) (A) (A) (A) (A) (A) (A) (A) (A)
                 (A) (A) (A) (A) (A) (A) (A) (A) (A) (A) (A) (A)
                 (A) (A) (A) (A) (A) (A) (A) (A) (A) (A) (A) (A)
                 (A) (A) (A) (A) (A) (A) (A) (A) (A) (A) (A) (A)
                 (A) (A) (A) (A) (A) (A) (A) (A) (A) (A) (A) (A)
                 (A) (A) (A) (A) (A) (A) (A) (A) (A) (A) (A) (A)
                 (A) (A) (A) (A) (A) (A) (A) (A) (A) (A) (A) (A)
                 (A) (A) (A) (A) (A) (A) (A) (A) (A) (A) (A) (A)
                 (A) (A) (A) (A) (A) (A) (A) (A) (A) (A) (A) (A)
                 (A) (A) (A) (A) (A) (A) (A) (A) (A) (A) (A) (A)
                 (A) (A) (A) (A) (A) (A) (A) (A) (A) (A) (A) (A)
                 (A) (A) (A) (A) (A) (A) (A) (A) (A) (A) (A) (A)
                 (A) (A) (A) (A) (A) (A) (A) (A) (A) (A) (A) (A)
                 (A) (A) (A) (A) (A) (A) (A) (A) (A) (A) (A) (A)
                 (A) (A) (A) (A) (A) (A) (A) (A) (A) (A) (A) (A)
                 (A) (A) (A) (A) (A) (A) (A) (A) (A) (A) (A) (A)
                 (A) (A) (A) (A) (A) (A) (A) (A) (A) (A) (A) (A)
                 (A) (A) (A) (A) (A) (A) (A) (A) (A) (A) (A) (A)
                 (A) (A) (A) (A) (A) (A) (A) (A) (A) (A) (A) (A)
                 (A) (A) (A) (A) (A) (A) (A) (A) (A) (A) (A) (A)
                 (A) (A) (A) (A) (A) (A) (A) (A) (A) (A) (A) (A)
                 (A) (A) (A) (A) (A) (A) (A) (A) (A) (A) (A) (A)
                 (A) (A) (A) (A) (A) (A) (A) (A) (A) (A) (A) (A)
                 (A) (A) (A) (A) (A) (A) (A) (A) (A) (A) (A) (A)
                 (A) (A) (A) (A) (A) (A) (A) (A) (A) (A) (A) (A)
                 (A) (A) (A) (A) (A) (A) (A) (A) (A) (A) (A) (A)
                 (A) (A) (A) (A) (A) (A) (A) (A) (A) (A) (A) (A)
                 (A) (A) (A) (A) (A) (A) (A) (A) (A) (A) (A) (A)
                 (A) (A) (A) (A) (A) (A) (A) (A) (A) (A) (A) (A)
                 (A) (A) (A) (A) (A) (A) (A) (A) (A) (A) (A) (A)
                 (A) (A) (A) (A) (A) (A) (A) (A) (A) (A) (A) (A)
                 (A) (A) (A) (A) (A) (A) (A) (A) (A) (A) (A) (A)
                 (A) (A) (A) (A) (A) (A) (A) (A) (A) (A) (A) (A)
                 (A) (A) (A) (A) (A) (A) (A) (A) (A) (A) (A) (A)
                 (A) (A) (A) (A) (A) (A) (A) (A) (A) (A) (A) (A)
                 (A) (A) (A) (A) (A) (A) (A)
 The electronic state is 1-A.
 Alpha  occ. eigenvalues --  -14.38473 -14.38370 -14.38218 -14.38179 -14.37888
 Alpha  occ. eigenvalues --  -14.37851 -14.37733 -14.37670 -14.37318 -14.35134
 Alpha  occ. eigenvalues --  -10.27568 -10.27218 -10.27168 -10.26989 -10.26905
 Alpha  occ. eigenvalues --  -10.26679 -10.26662 -10.26523 -10.26516 -10.25468
 Alpha  occ. eigenvalues --  -10.25244 -10.25163 -10.25055 -10.24974 -10.24854
 Alpha  occ. eigenvalues --  -10.24736 -10.24723 -10.24657 -10.24619 -10.24598
 Alpha  occ. eigenvalues --  -10.24590 -10.24571 -10.24454 -10.24194 -10.24154
 Alpha  occ. eigenvalues --  -10.24142 -10.24136 -10.24113 -10.24045 -10.24042
 Alpha  occ. eigenvalues --  -10.24003 -10.23989 -10.23744 -10.23672 -10.23479
 Alpha  occ. eigenvalues --  -10.23374 -10.22938  -0.98768  -0.98141  -0.97794
 Alpha  occ. eigenvalues --   -0.97645  -0.97570  -0.95594  -0.95135  -0.95089
 Alpha  occ. eigenvalues --   -0.94854  -0.90553  -0.89916  -0.89669  -0.86941
 Alpha  occ. eigenvalues --   -0.82686  -0.82291  -0.82146  -0.81002  -0.80729
 Alpha  occ. eigenvalues --   -0.80382  -0.78016  -0.76539  -0.76091  -0.76054
 Alpha  occ. eigenvalues --   -0.74312  -0.70096  -0.69904  -0.69807  -0.69606
 Alpha  occ. eigenvalues --   -0.66976  -0.66611  -0.66124  -0.65162  -0.63805
 Alpha  occ. eigenvalues --   -0.63168  -0.62749  -0.62299  -0.61144  -0.60782
 Alpha  occ. eigenvalues --   -0.58820  -0.56965  -0.56899  -0.56214  -0.56121
 Alpha  occ. eigenvalues --   -0.55849  -0.54379  -0.54152  -0.53819  -0.52835
 Alpha  occ. eigenvalues --   -0.52681  -0.52085  -0.51554  -0.51007  -0.50844
 Alpha  occ. eigenvalues --   -0.50632  -0.50431  -0.49867  -0.49536  -0.49372
 Alpha  occ. eigenvalues --   -0.49018  -0.48198  -0.47258  -0.47061  -0.46864
 Alpha  occ. eigenvalues --   -0.46652  -0.46538  -0.46438  -0.45839  -0.45323
 Alpha  occ. eigenvalues --   -0.45136  -0.44970  -0.44345  -0.44073  -0.43831
 Alpha  occ. eigenvalues --   -0.43574  -0.42192  -0.41974  -0.41784  -0.41089
 Alpha  occ. eigenvalues --   -0.40941  -0.40736  -0.40245  -0.40187  -0.39864
 Alpha  occ. eigenvalues --   -0.39573  -0.39313  -0.39098  -0.38972  -0.38397
 Alpha  occ. eigenvalues --   -0.37228  -0.37178  -0.36763  -0.36622  -0.36444
 Alpha  occ. eigenvalues --   -0.35821  -0.35639  -0.35441  -0.35264  -0.35217
 Alpha  occ. eigenvalues --   -0.34995  -0.34854  -0.32094  -0.31295  -0.30793
 Alpha  occ. eigenvalues --   -0.28361  -0.27746  -0.27708  -0.27623  -0.27532
 Alpha  occ. eigenvalues --   -0.27307  -0.27262  -0.27124  -0.26504  -0.26392
 Alpha  occ. eigenvalues --   -0.26217  -0.26052  -0.25992  -0.25785  -0.25341
 Alpha  occ. eigenvalues --   -0.22816
 Alpha virt. eigenvalues --   -0.06812  -0.06593  -0.05962  -0.05652  -0.05590
 Alpha virt. eigenvalues --   -0.04417  -0.02822  -0.01646   0.01684   0.03978
 Alpha virt. eigenvalues --    0.04506   0.04693   0.05025   0.05191   0.05472
 Alpha virt. eigenvalues --    0.05632   0.05903   0.06169   0.06682   0.07161
 Alpha virt. eigenvalues --    0.07222   0.07469   0.07711   0.07982   0.08240
 Alpha virt. eigenvalues --    0.08315   0.08740   0.08992   0.09736   0.10079
 Alpha virt. eigenvalues --    0.10332   0.10397   0.10701   0.10935   0.11054
 Alpha virt. eigenvalues --    0.11295   0.11515   0.11636   0.12053   0.12072
 Alpha virt. eigenvalues --    0.12259   0.12480   0.12620   0.12759   0.13414
 Alpha virt. eigenvalues --    0.13565   0.13871   0.13984   0.14102   0.14716
 Alpha virt. eigenvalues --    0.14819   0.15002   0.15128   0.15486   0.15627
 Alpha virt. eigenvalues --    0.16041   0.16371   0.16479   0.16547   0.16981
 Alpha virt. eigenvalues --    0.17013   0.17231   0.17419   0.17549   0.17694
 Alpha virt. eigenvalues --    0.17966   0.18177   0.18585   0.18666   0.18909
 Alpha virt. eigenvalues --    0.19412   0.19442   0.19556   0.20054   0.20145
 Alpha virt. eigenvalues --    0.20415   0.20502   0.20828   0.21114   0.21447
 Alpha virt. eigenvalues --    0.21833   0.22103   0.22197   0.22517   0.22640
 Alpha virt. eigenvalues --    0.22948   0.23167   0.23380   0.23713   0.24021
 Alpha virt. eigenvalues --    0.24162   0.24265   0.24665   0.25021   0.25129
 Alpha virt. eigenvalues --    0.25531   0.25578   0.25930   0.26332   0.26544
 Alpha virt. eigenvalues --    0.26710   0.26925   0.27079   0.27212   0.27398
 Alpha virt. eigenvalues --    0.27547   0.27995   0.28181   0.28370   0.28519
 Alpha virt. eigenvalues --    0.28882   0.29049   0.29126   0.29315   0.29891
 Alpha virt. eigenvalues --    0.30034   0.30339   0.30353   0.30805   0.31248
 Alpha virt. eigenvalues --    0.31380   0.31617   0.31794   0.32323   0.32552
 Alpha virt. eigenvalues --    0.32745   0.32895   0.33171   0.33325   0.33710
 Alpha virt. eigenvalues --    0.34035   0.34239   0.34651   0.34830   0.35021
 Alpha virt. eigenvalues --    0.35434   0.35621   0.35835   0.36010   0.36271
 Alpha virt. eigenvalues --    0.36587   0.36762   0.36770   0.36979   0.37296
 Alpha virt. eigenvalues --    0.37396   0.37616   0.37739   0.37953   0.38325
 Alpha virt. eigenvalues --    0.38592   0.38743   0.38976   0.39067   0.39271
 Alpha virt. eigenvalues --    0.39437   0.39944   0.40193   0.40361   0.40462
 Alpha virt. eigenvalues --    0.40750   0.40965   0.41047   0.41215   0.41512
 Alpha virt. eigenvalues --    0.41775   0.41989   0.42057   0.42230   0.42333
 Alpha virt. eigenvalues --    0.42552   0.42649   0.42917   0.42961   0.43129
 Alpha virt. eigenvalues --    0.43376   0.43610   0.43768   0.43912   0.43947
 Alpha virt. eigenvalues --    0.44185   0.44317   0.44397   0.44676   0.44807
 Alpha virt. eigenvalues --    0.45139   0.45458   0.45500   0.45627   0.45901
 Alpha virt. eigenvalues --    0.46056   0.46329   0.46556   0.46636   0.46776
 Alpha virt. eigenvalues --    0.47077   0.47129   0.47538   0.47627   0.47996
 Alpha virt. eigenvalues --    0.48327   0.48606   0.48787   0.49008   0.49339
 Alpha virt. eigenvalues --    0.49573   0.49755   0.50032   0.50118   0.50213
 Alpha virt. eigenvalues --    0.50392   0.50813   0.50841   0.51182   0.51357
 Alpha virt. eigenvalues --    0.51520   0.51760   0.51946   0.52102   0.52380
 Alpha virt. eigenvalues --    0.52424   0.52668   0.53029   0.53224   0.53693
 Alpha virt. eigenvalues --    0.53808   0.54196   0.54364   0.54498   0.54676
 Alpha virt. eigenvalues --    0.54930   0.55280   0.55656   0.55924   0.56018
 Alpha virt. eigenvalues --    0.56325   0.56356   0.56487   0.56795   0.57274
 Alpha virt. eigenvalues --    0.57560   0.57690   0.57865   0.58175   0.58384
 Alpha virt. eigenvalues --    0.58783   0.58868   0.59105   0.59624   0.59661
 Alpha virt. eigenvalues --    0.60611   0.60762   0.60922   0.61124   0.61524
 Alpha virt. eigenvalues --    0.61771   0.62042   0.62278   0.62566   0.62715
 Alpha virt. eigenvalues --    0.62927   0.63314   0.63543   0.63795   0.64166
 Alpha virt. eigenvalues --    0.64333   0.64891   0.65110   0.65282   0.65850
 Alpha virt. eigenvalues --    0.66060   0.66205   0.66483   0.66828   0.66845
 Alpha virt. eigenvalues --    0.66942   0.67183   0.67496   0.67931   0.68156
 Alpha virt. eigenvalues --    0.68295   0.68724   0.68923   0.69127   0.69212
 Alpha virt. eigenvalues --    0.69546   0.69646   0.69890   0.70132   0.70456
 Alpha virt. eigenvalues --    0.70600   0.71106   0.71354   0.71467   0.71549
 Alpha virt. eigenvalues --    0.71961   0.72245   0.72528   0.72875   0.73141
 Alpha virt. eigenvalues --    0.73533   0.73642   0.73890   0.74212   0.74310
 Alpha virt. eigenvalues --    0.74898   0.75167   0.75343   0.75684   0.75913
 Alpha virt. eigenvalues --    0.76175   0.76483   0.76940   0.77055   0.77351
 Alpha virt. eigenvalues --    0.77477   0.78327   0.78756   0.78920   0.79070
 Alpha virt. eigenvalues --    0.79497   0.79552   0.79940   0.80527   0.80710
 Alpha virt. eigenvalues --    0.80939   0.81069   0.81461   0.81698   0.81848
 Alpha virt. eigenvalues --    0.82121   0.82771   0.83015   0.83172   0.83547
 Alpha virt. eigenvalues --    0.83770   0.84013   0.84324   0.84734   0.84820
 Alpha virt. eigenvalues --    0.85066   0.85472   0.85803   0.85973   0.86223
 Alpha virt. eigenvalues --    0.86593   0.86937   0.87110   0.87843   0.87951
 Alpha virt. eigenvalues --    0.88071   0.88142   0.88677   0.88751   0.89061
 Alpha virt. eigenvalues --    0.89259   0.89748   0.90351   0.90447   0.90913
 Alpha virt. eigenvalues --    0.91039   0.91334   0.91806   0.91923   0.92403
 Alpha virt. eigenvalues --    0.92641   0.92954   0.93383   0.93753   0.94046
 Alpha virt. eigenvalues --    0.94302   0.94556   0.95151   0.95702   0.95783
 Alpha virt. eigenvalues --    0.96363   0.96720   0.96968   0.97081   0.97599
 Alpha virt. eigenvalues --    0.97832   0.98061   0.98377   0.98981   0.99315
 Alpha virt. eigenvalues --    1.00227   1.00517   1.00834   1.01032   1.01378
 Alpha virt. eigenvalues --    1.02072   1.02551   1.02922   1.03071   1.03434
 Alpha virt. eigenvalues --    1.03679   1.04052   1.04315   1.04515   1.04813
 Alpha virt. eigenvalues --    1.05194   1.05346   1.05906   1.06185   1.06371
 Alpha virt. eigenvalues --    1.06595   1.06824   1.07171   1.08043   1.08551
 Alpha virt. eigenvalues --    1.09134   1.09236   1.09424   1.09722   1.10373
 Alpha virt. eigenvalues --    1.10670   1.11085   1.11779   1.11905   1.12354
 Alpha virt. eigenvalues --    1.13121   1.13794   1.13940   1.14282   1.14536
 Alpha virt. eigenvalues --    1.15008   1.15259   1.16094   1.16143   1.16449
 Alpha virt. eigenvalues --    1.16954   1.17183   1.17537   1.17823   1.18240
 Alpha virt. eigenvalues --    1.18598   1.18830   1.19585   1.19990   1.20297
 Alpha virt. eigenvalues --    1.20557   1.20947   1.21258   1.21776   1.22148
 Alpha virt. eigenvalues --    1.22448   1.22720   1.23146   1.23243   1.23712
 Alpha virt. eigenvalues --    1.24003   1.24164   1.24396   1.24736   1.25240
 Alpha virt. eigenvalues --    1.25859   1.26074   1.26262   1.26546   1.26868
 Alpha virt. eigenvalues --    1.26981   1.27323   1.27413   1.27899   1.28449
 Alpha virt. eigenvalues --    1.28750   1.29703   1.29959   1.30165   1.30660
 Alpha virt. eigenvalues --    1.31159   1.31492   1.31773   1.31894   1.32880
 Alpha virt. eigenvalues --    1.33351   1.33487   1.33677   1.34120   1.34577
 Alpha virt. eigenvalues --    1.34828   1.35513   1.35853   1.36390   1.36845
 Alpha virt. eigenvalues --    1.37241   1.37496   1.37818   1.38344   1.38886
 Alpha virt. eigenvalues --    1.39094   1.39555   1.39812   1.40110   1.40868
 Alpha virt. eigenvalues --    1.41106   1.41537   1.41765   1.42414   1.42677
 Alpha virt. eigenvalues --    1.43472   1.43603   1.43962   1.44074   1.44310
 Alpha virt. eigenvalues --    1.44396   1.45115   1.45432   1.45633   1.46096
 Alpha virt. eigenvalues --    1.46508   1.47151   1.47608   1.47980   1.48142
 Alpha virt. eigenvalues --    1.48339   1.48775   1.49248   1.49512   1.49916
 Alpha virt. eigenvalues --    1.50214   1.50484   1.50595   1.50934   1.51088
 Alpha virt. eigenvalues --    1.51531   1.51994   1.52274   1.52746   1.53123
 Alpha virt. eigenvalues --    1.53475   1.53780   1.54205   1.54291   1.54829
 Alpha virt. eigenvalues --    1.55303   1.55702   1.55976   1.56036   1.56237
 Alpha virt. eigenvalues --    1.56386   1.56944   1.57201   1.57834   1.57946
 Alpha virt. eigenvalues --    1.58272   1.58411   1.58626   1.58831   1.59178
 Alpha virt. eigenvalues --    1.59480   1.59886   1.60275   1.60546   1.60901
 Alpha virt. eigenvalues --    1.61073   1.61326   1.61922   1.62119   1.62325
 Alpha virt. eigenvalues --    1.62699   1.63317   1.63820   1.63850   1.64154
 Alpha virt. eigenvalues --    1.64985   1.65204   1.65432   1.65653   1.66069
 Alpha virt. eigenvalues --    1.66233   1.66728   1.66983   1.67111   1.67457
 Alpha virt. eigenvalues --    1.67625   1.67962   1.68229   1.68872   1.69116
 Alpha virt. eigenvalues --    1.69152   1.69646   1.69790   1.70175   1.70326
 Alpha virt. eigenvalues --    1.70568   1.70735   1.71409   1.71650   1.71696
 Alpha virt. eigenvalues --    1.72036   1.72238   1.72575   1.73075   1.73151
 Alpha virt. eigenvalues --    1.73359   1.73837   1.74358   1.74589   1.74645
 Alpha virt. eigenvalues --    1.74960   1.75342   1.75640   1.75898   1.76066
 Alpha virt. eigenvalues --    1.76578   1.77154   1.77472   1.77523   1.77915
 Alpha virt. eigenvalues --    1.78277   1.78409   1.78666   1.79136   1.79623
 Alpha virt. eigenvalues --    1.79840   1.80125   1.80509   1.80918   1.81507
 Alpha virt. eigenvalues --    1.81637   1.82059   1.82481   1.82541   1.82831
 Alpha virt. eigenvalues --    1.83444   1.84096   1.84320   1.84931   1.85359
 Alpha virt. eigenvalues --    1.85938   1.86086   1.86549   1.87281   1.87533
 Alpha virt. eigenvalues --    1.87759   1.88200   1.88336   1.89076   1.89132
 Alpha virt. eigenvalues --    1.89427   1.89657   1.90184   1.90880   1.91562
 Alpha virt. eigenvalues --    1.91949   1.92181   1.92762   1.92850   1.93446
 Alpha virt. eigenvalues --    1.93902   1.94076   1.94652   1.95523   1.95996
 Alpha virt. eigenvalues --    1.96060   1.96560   1.97101   1.97634   1.97828
 Alpha virt. eigenvalues --    1.98658   1.98715   1.98990   1.99420   1.99734
 Alpha virt. eigenvalues --    2.00061   2.00520   2.00737   2.01233   2.01712
 Alpha virt. eigenvalues --    2.01852   2.02115   2.02344   2.02632   2.03287
 Alpha virt. eigenvalues --    2.03459   2.04125   2.04809   2.05133   2.05341
 Alpha virt. eigenvalues --    2.05628   2.06341   2.06795   2.07416   2.08219
 Alpha virt. eigenvalues --    2.08652   2.09025   2.09211   2.09516   2.10105
 Alpha virt. eigenvalues --    2.10758   2.10987   2.11588   2.11853   2.11987
 Alpha virt. eigenvalues --    2.12384   2.12782   2.13068   2.13574   2.14359
 Alpha virt. eigenvalues --    2.15054   2.15277   2.15454   2.16389   2.17054
 Alpha virt. eigenvalues --    2.17406   2.17677   2.18508   2.18931   2.19441
 Alpha virt. eigenvalues --    2.19581   2.20000   2.20644   2.21006   2.21480
 Alpha virt. eigenvalues --    2.21815   2.21919   2.22459   2.23073   2.23561
 Alpha virt. eigenvalues --    2.23908   2.24246   2.24461   2.25185   2.25520
 Alpha virt. eigenvalues --    2.26025   2.26794   2.27045   2.27394   2.28077
 Alpha virt. eigenvalues --    2.28573   2.29489   2.29575   2.30091   2.30439
 Alpha virt. eigenvalues --    2.30921   2.31366   2.31432   2.31784   2.32274
 Alpha virt. eigenvalues --    2.32824   2.33159   2.33616   2.33851   2.34369
 Alpha virt. eigenvalues --    2.34639   2.35380   2.35803   2.36031   2.36661
 Alpha virt. eigenvalues --    2.37158   2.37617   2.38262   2.38718   2.38961
 Alpha virt. eigenvalues --    2.39509   2.39617   2.40113   2.40261   2.40756
 Alpha virt. eigenvalues --    2.41023   2.41452   2.41650   2.42899   2.43171
 Alpha virt. eigenvalues --    2.43260   2.43551   2.44345   2.44879   2.45163
 Alpha virt. eigenvalues --    2.45713   2.46051   2.46246   2.46364   2.46833
 Alpha virt. eigenvalues --    2.47276   2.47623   2.47946   2.48858   2.49170
 Alpha virt. eigenvalues --    2.49676   2.50158   2.50672   2.51027   2.51092
 Alpha virt. eigenvalues --    2.51352   2.51595   2.52002   2.52344   2.53242
 Alpha virt. eigenvalues --    2.53436   2.53553   2.54137   2.54411   2.54942
 Alpha virt. eigenvalues --    2.55451   2.55658   2.56088   2.56195   2.56552
 Alpha virt. eigenvalues --    2.57015   2.57288   2.57639   2.58067   2.58596
 Alpha virt. eigenvalues --    2.58824   2.59130   2.59339   2.59908   2.60077
 Alpha virt. eigenvalues --    2.60827   2.60889   2.61155   2.61238   2.61584
 Alpha virt. eigenvalues --    2.62282   2.62560   2.62693   2.63097   2.63185
 Alpha virt. eigenvalues --    2.63643   2.64174   2.64203   2.64691   2.64793
 Alpha virt. eigenvalues --    2.65344   2.65523   2.65971   2.66302   2.66458
 Alpha virt. eigenvalues --    2.66519   2.67150   2.67264   2.67513   2.67780
 Alpha virt. eigenvalues --    2.68084   2.68263   2.68710   2.68834   2.69262
 Alpha virt. eigenvalues --    2.69759   2.70134   2.70511   2.70632   2.70999
 Alpha virt. eigenvalues --    2.71220   2.71405   2.71724   2.71863   2.72207
 Alpha virt. eigenvalues --    2.72670   2.72916   2.73388   2.73665   2.73907
 Alpha virt. eigenvalues --    2.74203   2.74430   2.75280   2.75813   2.75915
 Alpha virt. eigenvalues --    2.76032   2.76544   2.76937   2.77069   2.77099
 Alpha virt. eigenvalues --    2.77677   2.77747   2.78175   2.78468   2.78624
 Alpha virt. eigenvalues --    2.78797   2.79066   2.79450   2.80099   2.80168
 Alpha virt. eigenvalues --    2.80813   2.81265   2.81526   2.81769   2.82199
 Alpha virt. eigenvalues --    2.82418   2.82883   2.83074   2.83604   2.83725
 Alpha virt. eigenvalues --    2.84059   2.84429   2.84798   2.85198   2.85540
 Alpha virt. eigenvalues --    2.85635   2.85894   2.86395   2.86561   2.87147
 Alpha virt. eigenvalues --    2.87446   2.87756   2.87979   2.88139   2.88626
 Alpha virt. eigenvalues --    2.89413   2.89915   2.90057   2.90323   2.90608
 Alpha virt. eigenvalues --    2.91109   2.91723   2.92555   2.92685   2.92960
 Alpha virt. eigenvalues --    2.93227   2.93554   2.93893   2.94193   2.94480
 Alpha virt. eigenvalues --    2.94890   2.95052   2.95541   2.95609   2.96262
 Alpha virt. eigenvalues --    2.96657   2.97260   2.97684   2.98264   2.98405
 Alpha virt. eigenvalues --    2.98901   2.99005   2.99566   2.99945   3.00277
 Alpha virt. eigenvalues --    3.00551   3.01211   3.01457   3.01590   3.01913
 Alpha virt. eigenvalues --    3.02327   3.02970   3.03571   3.03771   3.04064
 Alpha virt. eigenvalues --    3.04438   3.04665   3.05395   3.05804   3.06334
 Alpha virt. eigenvalues --    3.06681   3.06967   3.07200   3.08101   3.08582
 Alpha virt. eigenvalues --    3.08921   3.09251   3.09598   3.09777   3.10339
 Alpha virt. eigenvalues --    3.10767   3.11078   3.11215   3.11377   3.11573
 Alpha virt. eigenvalues --    3.12101   3.12559   3.12870   3.13264   3.13307
 Alpha virt. eigenvalues --    3.13544   3.13890   3.14031   3.14561   3.14638
 Alpha virt. eigenvalues --    3.15082   3.15357   3.15409   3.15523   3.15805
 Alpha virt. eigenvalues --    3.16071   3.16397   3.17017   3.17318   3.17605
 Alpha virt. eigenvalues --    3.17954   3.18192   3.18435   3.18620   3.18763
 Alpha virt. eigenvalues --    3.19049   3.19511   3.20146   3.20165   3.20455
 Alpha virt. eigenvalues --    3.21002   3.21323   3.21619   3.21847   3.22131
 Alpha virt. eigenvalues --    3.22479   3.22790   3.23017   3.23266   3.23432
 Alpha virt. eigenvalues --    3.23711   3.23811   3.24409   3.24484   3.24823
 Alpha virt. eigenvalues --    3.25411   3.25438   3.25484   3.26019   3.26336
 Alpha virt. eigenvalues --    3.26351   3.26745   3.26860   3.27259   3.27492
 Alpha virt. eigenvalues --    3.28069   3.28108   3.28277   3.28677   3.28761
 Alpha virt. eigenvalues --    3.28970   3.29352   3.29722   3.30065   3.30179
 Alpha virt. eigenvalues --    3.30514   3.30636   3.31232   3.31310   3.31539
 Alpha virt. eigenvalues --    3.32008   3.32227   3.32650   3.32725   3.32940
 Alpha virt. eigenvalues --    3.33261   3.33712   3.34094   3.34265   3.34448
 Alpha virt. eigenvalues --    3.34793   3.34897   3.35147   3.35401   3.35808
 Alpha virt. eigenvalues --    3.35962   3.36275   3.36553   3.36570   3.37095
 Alpha virt. eigenvalues --    3.37408   3.37744   3.38007   3.38138   3.38223
 Alpha virt. eigenvalues --    3.38480   3.38765   3.39173   3.39405   3.39668
 Alpha virt. eigenvalues --    3.40139   3.40283   3.40682   3.41280   3.41427
 Alpha virt. eigenvalues --    3.41984   3.42181   3.42374   3.42833   3.43140
 Alpha virt. eigenvalues --    3.43367   3.44040   3.44201   3.44266   3.44873
 Alpha virt. eigenvalues --    3.44949   3.45305   3.45481   3.45704   3.45909
 Alpha virt. eigenvalues --    3.46172   3.46333   3.46848   3.47439   3.47612
 Alpha virt. eigenvalues --    3.47851   3.48294   3.48666   3.48873   3.48994
 Alpha virt. eigenvalues --    3.49265   3.49388   3.50007   3.50306   3.50840
 Alpha virt. eigenvalues --    3.51329   3.52303   3.52560   3.52862   3.53519
 Alpha virt. eigenvalues --    3.53662   3.54188   3.54510   3.54871   3.55138
 Alpha virt. eigenvalues --    3.55563   3.55968   3.56486   3.56634   3.56977
 Alpha virt. eigenvalues --    3.57397   3.57883   3.58119   3.58404   3.59144
 Alpha virt. eigenvalues --    3.59490   3.59908   3.60330   3.60819   3.61071
 Alpha virt. eigenvalues --    3.61573   3.62160   3.62400   3.62457   3.62695
 Alpha virt. eigenvalues --    3.62910   3.63767   3.64237   3.64493   3.64606
 Alpha virt. eigenvalues --    3.64905   3.65743   3.66236   3.66495   3.66745
 Alpha virt. eigenvalues --    3.67325   3.67966   3.69471   3.69991   3.70238
 Alpha virt. eigenvalues --    3.70641   3.70959   3.71478   3.72132   3.72679
 Alpha virt. eigenvalues --    3.72869   3.73521   3.74117   3.74896   3.75219
 Alpha virt. eigenvalues --    3.75336   3.75550   3.75660   3.76195   3.76867
 Alpha virt. eigenvalues --    3.77465   3.77709   3.77817   3.78133   3.78741
 Alpha virt. eigenvalues --    3.78957   3.79076   3.79728   3.79800   3.80154
 Alpha virt. eigenvalues --    3.80667   3.80839   3.81300   3.81780   3.82104
 Alpha virt. eigenvalues --    3.82379   3.82868   3.83271   3.83651   3.83946
 Alpha virt. eigenvalues --    3.84479   3.84753   3.84996   3.85794   3.86070
 Alpha virt. eigenvalues --    3.86698   3.87199   3.87551   3.87921   3.88283
 Alpha virt. eigenvalues --    3.88635   3.88712   3.89451   3.90448   3.90827
 Alpha virt. eigenvalues --    3.91372   3.91924   3.92161   3.92863   3.93042
 Alpha virt. eigenvalues --    3.93372   3.94043   3.94768   3.96166   3.96690
 Alpha virt. eigenvalues --    3.97709   3.98281   3.98331   3.98772   3.99494
 Alpha virt. eigenvalues --    3.99873   4.00074   4.00578   4.00999   4.01798
 Alpha virt. eigenvalues --    4.02068   4.02467   4.02978   4.04072   4.04149
 Alpha virt. eigenvalues --    4.04644   4.05315   4.05699   4.05882   4.06745
 Alpha virt. eigenvalues --    4.07046   4.07559   4.08699   4.09865   4.10130
 Alpha virt. eigenvalues --    4.10336   4.11011   4.11471   4.11880   4.12611
 Alpha virt. eigenvalues --    4.12702   4.12983   4.13656   4.14202   4.14515
 Alpha virt. eigenvalues --    4.14725   4.15228   4.15548   4.15965   4.16355
 Alpha virt. eigenvalues --    4.17085   4.17700   4.18156   4.18543   4.18738
 Alpha virt. eigenvalues --    4.19963   4.20615   4.21308   4.21591   4.22392
 Alpha virt. eigenvalues --    4.22817   4.22996   4.23401   4.23835   4.24105
 Alpha virt. eigenvalues --    4.24603   4.25037   4.25534   4.25565   4.25833
 Alpha virt. eigenvalues --    4.26903   4.27681   4.28118   4.28431   4.29197
 Alpha virt. eigenvalues --    4.29463   4.30054   4.30317   4.30776   4.31194
 Alpha virt. eigenvalues --    4.31509   4.32967   4.33924   4.34301   4.34413
 Alpha virt. eigenvalues --    4.35100   4.35980   4.36315   4.36685   4.37291
 Alpha virt. eigenvalues --    4.37561   4.38283   4.38988   4.39420   4.39538
 Alpha virt. eigenvalues --    4.40408   4.40644   4.41618   4.42216   4.42790
 Alpha virt. eigenvalues --    4.43149   4.43665   4.44839   4.47328   4.49913
 Alpha virt. eigenvalues --    4.50820   4.51365   4.51736   4.52940   4.53598
 Alpha virt. eigenvalues --    4.54168   4.54508   4.55786   4.56094   4.56173
 Alpha virt. eigenvalues --    4.56548   4.57820   4.58490   4.58988   4.59807
 Alpha virt. eigenvalues --    4.60481   4.61155   4.62252   4.62927   4.64056
 Alpha virt. eigenvalues --    4.64921   4.65890   4.66078   4.66459   4.67014
 Alpha virt. eigenvalues --    4.67526   4.67871   4.68675   4.69339   4.69698
 Alpha virt. eigenvalues --    4.70114   4.70517   4.71073   4.72699   4.73568
 Alpha virt. eigenvalues --    4.75015   4.76209   4.77330   4.77576   4.79344
 Alpha virt. eigenvalues --    4.80442   4.80936   4.81755   4.83092   4.83755
 Alpha virt. eigenvalues --    4.83975   4.84073   4.85516   4.86258   4.87175
 Alpha virt. eigenvalues --    4.87466   4.87895   4.89005   4.89432   4.91536
 Alpha virt. eigenvalues --    4.91833   4.92306   4.92719   4.93545   4.94595
 Alpha virt. eigenvalues --    4.94740   4.95206   4.96489   4.97044   4.97640
 Alpha virt. eigenvalues --    4.98025   4.98859   5.00269   5.00769   5.01488
 Alpha virt. eigenvalues --    5.02496   5.03056   5.03390   5.04197   5.04325
 Alpha virt. eigenvalues --    5.05092   5.05520   5.05902   5.06691   5.06915
 Alpha virt. eigenvalues --    5.07812   5.07937   5.08840   5.10207   5.10290
 Alpha virt. eigenvalues --    5.11968   5.12855   5.13172   5.14124   5.15328
 Alpha virt. eigenvalues --    5.16194   5.16767   5.17680   5.18103   5.19403
 Alpha virt. eigenvalues --    5.20981   5.21684   5.21761   5.22145   5.22563
 Alpha virt. eigenvalues --    5.22858   5.23008   5.23516   5.23580   5.24500
 Alpha virt. eigenvalues --    5.25437   5.26872   5.27511   5.27963   5.29366
 Alpha virt. eigenvalues --    5.30000   5.30868   5.31254   5.32106   5.32213
 Alpha virt. eigenvalues --    5.35077   5.35746   5.36538   5.36920   5.37154
 Alpha virt. eigenvalues --    5.37424   5.38116   5.38696   5.39230   5.39701
 Alpha virt. eigenvalues --    5.39844   5.40844   5.41536   5.41773   5.42882
 Alpha virt. eigenvalues --    5.43618   5.44615   5.44709   5.44989   5.45368
 Alpha virt. eigenvalues --    5.45908   5.46577   5.47319   5.48370   5.48605
 Alpha virt. eigenvalues --    5.49069   5.49285   5.50614   5.51424   5.53516
 Alpha virt. eigenvalues --    5.56585   5.57226   5.58885   5.61312   5.61609
 Alpha virt. eigenvalues --    5.63103   5.63443   5.64636   5.65114   5.65411
 Alpha virt. eigenvalues --    5.65617   5.67232   5.68807   5.70032   5.70902
 Alpha virt. eigenvalues --    5.72078   5.72216   5.72717   5.73980   5.74257
 Alpha virt. eigenvalues --    5.75337   5.76833   5.77466   5.78069   5.78671
 Alpha virt. eigenvalues --    5.80506   5.88839   5.89492   5.90150   5.90762
 Alpha virt. eigenvalues --    5.92090   5.93117   5.93483   5.94155   5.95016
 Alpha virt. eigenvalues --    5.95808   5.96370   5.96844   5.98434   5.99058
 Alpha virt. eigenvalues --    6.08000   6.09415   6.10983   6.12518  22.42415
 Alpha virt. eigenvalues --   22.45693  22.49359  22.55700  22.60643  22.62280
 Alpha virt. eigenvalues --   22.62639  22.62994  22.64435  22.66062  22.66418
 Alpha virt. eigenvalues --   22.67165  22.69161  22.84679  22.88215  22.89175
 Alpha virt. eigenvalues --   22.89291  22.91720  22.93055  22.96512  23.02078
 Alpha virt. eigenvalues --   23.05458  23.08586  23.13525  23.13941  23.14643
 Alpha virt. eigenvalues --   23.15261  23.15756  23.16119  23.16629  23.17653
 Alpha virt. eigenvalues --   23.17871  23.19380  23.20562  23.51326  23.52454
 Alpha virt. eigenvalues --   23.54307  32.48760  32.58306  32.59814  32.62808
 Alpha virt. eigenvalues --   32.65250  32.70559  32.72093  32.74228  32.75155
 Alpha virt. eigenvalues --   32.77596
          Condensed to atoms (all electrons):
 Mulliken charges:
               1
     1  C    0.380848
     2  C   -0.171741
     3  C   -0.389822
     4  C    0.349339
     5  H    0.124414
     6  C   -0.317435
     7  C    0.297256
     8  H    0.127517
     9  C   -0.309223
    10  C   -0.120146
    11  H    0.138046
    12  C   -0.150528
    13  H    0.073646
    14  H    0.095990
    15  H    0.092754
    16  C    0.364501
    17  C   -0.085976
    18  C   -0.340581
    19  C    0.367619
    20  H    0.131731
    21  C   -0.380965
    22  C    0.374454
    23  H    0.117805
    24  C   -0.441124
    25  C   -0.174139
    26  H    0.140561
    27  C   -0.172193
    28  H    0.086963
    29  H    0.086378
    30  C    0.323842
    31  C   -0.151596
    32  C   -0.299544
    33  C    0.355321
    34  H    0.135613
    35  C   -0.329486
    36  C    0.351804
    37  H    0.150724
    38  C   -0.376824
    39  C   -0.176118
    40  H    0.123237
    41  C   -0.147417
    42  H    0.096868
    43  H    0.111697
    44  C   -0.094094
    45  C   -0.071947
    46  N   -0.202732
    47  H    0.086201
    48  N   -0.202180
    49  H    0.091405
    50  C   -0.116159
    51  C   -0.133703
    52  N   -0.316461
    53  H    0.136999
    54  N   -0.309138
    55  H    0.105339
    56  C   -0.088311
    57  C   -0.067782
    58  N   -0.207663
    59  H    0.086230
    60  N   -0.193565
    61  H    0.085625
    62  C   -0.112685
    63  C   -0.047319
    64  N   -0.199218
    65  H    0.086148
    66  N   -0.264707
    67  H    0.102419
    68  C   -0.086133
    69  C   -0.072085
    70  N   -0.200170
    71  H    0.082446
    72  N   -0.199499
    73  H    0.090127
    74  H    0.089720
    75  H    0.208755
    76  H    0.070141
    77  H    0.214105
    78  H    0.127961
    79  H    0.125118
    80  H    0.084945
    81  H    0.084928
    82  H    0.127394
    83  H    0.124884
    84  H    0.132066
    85  H    0.126682
    86  H    0.126597
    87  H    0.125245
 Sum of Mulliken charges =   0.00000
 Mulliken charges with hydrogens summed into heavy atoms:
               1
     1  C    0.380848
     2  C   -0.075751
     3  C   -0.265408
     4  C    0.349339
     6  C   -0.189918
     7  C    0.297256
     9  C   -0.171177
    10  C   -0.046501
    12  C   -0.057774
    16  C    0.364501
    17  C   -0.015835
    18  C   -0.208850
    19  C    0.367619
    21  C   -0.263159
    22  C    0.374454
    24  C   -0.300563
    25  C   -0.087175
    27  C   -0.085815
    30  C    0.323842
    31  C   -0.061875
    32  C   -0.163930
    33  C    0.355321
    35  C   -0.178761
    36  C    0.351804
    38  C   -0.253587
    39  C   -0.079249
    41  C   -0.035720
    44  C    0.120068
    45  C    0.144575
    46  N   -0.202732
    48  N   -0.202180
    50  C    0.105785
    51  C    0.056564
    52  N   -0.102356
    54  N   -0.100383
    56  C    0.125313
    57  C    0.142727
    58  N   -0.207663
    60  N   -0.193565
    62  C    0.105528
    63  C    0.181781
    64  N   -0.199218
    66  N   -0.264707
    68  C    0.122910
    69  C    0.143286
    70  N   -0.200170
    72  N   -0.199499
 Electronic spatial extent (au):  <R**2>=          24918.4645
 Charge=              0.0000 electrons
 Dipole moment (field-independent basis, Debye):
    X=             -0.8703    Y=             -0.8193    Z=              1.1845  Tot=              1.6828
 Quadrupole moment (field-independent basis, Debye-Ang):
   XX=           -267.9875   YY=           -269.6857   ZZ=           -252.4299
   XY=             -4.5118   XZ=              9.8459   YZ=             -6.8110
 Traceless Quadrupole moment (field-independent basis, Debye-Ang):
   XX=             -4.6198   YY=             -6.3180   ZZ=             10.9378
   XY=             -4.5118   XZ=              9.8459   YZ=             -6.8110
 Octapole moment (field-independent basis, Debye-Ang**2):
  XXX=            -71.7447  YYY=            116.2805  ZZZ=             11.2438  XYY=             -4.1700
  XXY=           -111.7255  XXZ=            -30.2502  XZZ=             36.9073  YZZ=            -44.7355
  YYZ=            -14.5530  XYZ=             21.0300
 Hexadecapole moment (field-independent basis, Debye-Ang**3):
 XXXX=         -13867.3417 YYYY=         -10791.0721 ZZZZ=          -7661.1192 XXXY=             20.6615
 XXXZ=            158.2663 YYYX=           -168.4691 YYYZ=           -202.0391 ZZZX=             35.0694
 ZZZY=            -61.4409 XXYY=          -4259.2198 XXZZ=          -3648.1416 YYZZ=          -3207.4175
 XXYZ=             -5.0228 YYXZ=            102.8741 ZZXY=            -93.7344
 N-N= 6.004049938847D+03 E-N=-1.661436045486D+04  KE= 1.970988907275D+03
 No NMR shielding tensors so no spin-rotation constants.
 Leave Link  601 at Mon Oct 18 11:17:25 2021, MaxMem=  7864320000 cpu:              52.4 elap:               2.0
 (Enter /apps/gaussian/g16-c01-avx/g16/l9999.exe)
 Unable to Open any file for archive entry.
 1\1\GINC-CX3-5-26\SP\RPBE1PBE\def2TZVP\C37H40N10\ATARZIA\18-Oct-2021\0
 \\#P PBE1PBE/Def2TZVP SP SCF=(YQC,MaxCycle=900) int=(Grid=Superfinegri
 d) EmpiricalDispersion=GD3 SCRF=(PCM,Solvent=Dichloromethane)\\_3_alde
 1_5_ami4_1_opt_dcm\\0,1\C,0,-3.9795,-1.5977,-0.6956\C,0,-4.8736,-0.657
 4,-0.038\C,0,-3.6026,-2.792,-0.082\C,0,-2.6968,-3.6456,-0.7006\H,0,-4.
 0347,-3.0364,0.8763\C,0,-2.1184,-3.2713,-1.9126\C,0,-2.4575,-2.0671,-2
 .5179\H,0,-1.3877,-3.9288,-2.3567\C,0,-3.4172,-1.2526,-1.9195\C,0,-1.7
 412,-1.6126,-3.7003\H,0,-3.6828,-0.3299,-2.4113\C,0,-2.2796,-4.8872,-0
 .059\H,0,-0.8206,-2.1692,-3.9341\H,0,-5.1762,0.2067,-0.648\H,0,-2.3944
 ,-4.9246,1.0354\C,0,2.3153,-1.9652,-2.6253\C,0,2.4366,-1.1445,-3.8828\
 C,0,2.8,-1.4618,-1.4294\C,0,2.6901,-2.1962,-0.2489\H,0,3.2453,-0.4809,
 -1.3994\C,0,2.0998,-3.4536,-0.2803\C,0,1.6435,-3.9874,-1.4824\H,0,1.99
 4,-4.0453,0.616\C,0,1.7499,-3.2311,-2.6493\C,0,1.0213,-5.3007,-1.5269\
 H,0,1.3917,-3.6395,-3.5848\C,0,3.1464,-1.6305,1.0128\H,0,0.6589,-5.620
 3,-2.5169\H,0,2.732,-2.0958,1.9213\C,0,-1.6187,1.5007,0.873\C,0,-2.686
 4,1.3074,1.8453\C,0,-1.9221,1.6302,-0.4812\C,0,-0.9129,1.6826,-1.4378\
 H,0,-2.9614,1.6562,-0.7687\C,0,0.419,1.6668,-1.0247\C,0,0.7353,1.5934,
 0.3284\H,0,1.2007,1.7052,-1.767\C,0,-0.2868,1.4844,1.2711\C,0,2.1313,1
 .6046,0.7384\H,0,-0.0162,1.397,2.3124\C,0,-1.2881,1.7059,-2.8423\H,0,2
 .8589,1.706,-0.0787\H,0,-2.3539,1.8925,-3.0347\C,0,-4.9232,1.1966,2.49
 96\C,0,-5.9477,0.3019,1.7658\N,0,-3.8945,1.542,1.5718\H,0,-4.5327,0.67
 05,3.3849\N,0,-5.2367,-0.7842,1.1645\H,0,-6.4733,0.9171,1.02\C,0,3.885
 ,-0.1011,-5.3106\C,0,3.164,1.0106,-4.5183\N,0,3.7487,-1.2974,-4.494\H,
 0,4.9308,0.1198,-5.5154\N,0,2.2886,0.2869,-3.6016\H,0,2.6197,1.694,-5.
 1756\C,0,-1.2735,-6.995,-0.0687\C,0,0.1445,-7.2433,-0.6243\N,0,-1.7999
 ,-5.8418,-0.7253\H,0,-1.237,-6.8771,1.0256\N,0,0.8894,-6.0288,-0.5042\
 H,0,0.0566,-7.5748,-1.6709\C,0,-1.291,-0.1031,-5.4203\C,0,-1.0132,1.38
 58,-5.1161\N,0,-2.1163,-0.6162,-4.3757\H,0,-0.3401,-0.6523,-5.5164\N,0
 ,-0.479,1.4915,-3.7901\H,0,-1.956,1.9409,-5.2236\C,0,4.2818,-0.0644,2.
 3125\C,0,3.8836,1.425,2.2383\N,0,3.9559,-0.6655,1.0606\H,0,3.7693,-0.5
 449,3.1616\N,0,2.4854,1.5083,1.947\H,0,4.499,1.9055,1.4634\H,0,-2.3704
 ,0.9111,2.8227\H,0,1.3201,0.5938,-3.6588\H,0,1.6963,-1.5001,-4.6264\H,
 0,4.4491,-1.29,-3.7567\H,0,-5.4307,2.112,2.8174\H,0,-6.6598,-0.0976,2.
 4905\H,0,3.37,-0.2845,-6.2592\H,0,3.8835,1.5973,-3.9332\H,0,-1.8993,-7
 .8573,-0.3175\H,0,0.6334,-8.0172,-0.0285\H,0,-1.8387,-0.1646,-6.3649\H
 ,0,-0.2752,1.7668,-5.8256\H,0,5.364,-0.125,2.458\H,0,4.0663,1.8944,3.2
 072\\Version=ES64L-G16RevC.01\State=1-A\HF=-1979.8880952\RMSD=4.025e-0
 9\Dipole=-0.4623717,0.3855333,-0.27548\Quadrupole=-6.645792,-3.5465042
 ,10.1922961,1.6624906,-1.8560574,-7.345263\PG=C01 [X(C37H40N10)]\\@
 The archive entry for this job was punched.


 ABOVE ALL I AM AN OPTIMIST FOR NUMBER THEORY,
 AND I HOLD THE HOPE THAT WE MAY NOT BE FAR FROM
 A TIME WHEN IRREFUTABLE ARITHMETIC WILL CELEBRATE
 ITS TRIUMPHS IN PHYSICS AND CHEMISTRY.
   -- HERMANN MINKOWSKI, 1905
 Job cpu time:       1 days  4 hours 54 minutes 24.7 seconds.
 Elapsed time:       0 days  0 hours 54 minutes 41.7 seconds.
 File lengths (MBytes):  RWF=   2224 Int=      0 D2E=      0 Chk=    176 Scr=     16
 Normal termination of Gaussian 16 at Mon Oct 18 11:17:26 2021.
