 Entering Gaussian System, Link 0=g16
 Initial command:
 /apps/gaussian/g16-c01-avx/g16/l1.exe "/rds/general/ephemeral/user/atarzia/ephemeral/xtb_spe_DFT/Gau-2445335.inp" -scrdir="/rds/general/ephemeral/user/atarzia/ephemeral/xtb_spe_DFT/"
 Entering Link 1 = /apps/gaussian/g16-c01-avx/g16/l1.exe PID=   2445336.
  
 Copyright (c) 1988-2019, Gaussian, Inc.  All Rights Reserved.
  
 This is part of the Gaussian(R) 16 program.  It is based on
 the Gaussian(R) 09 system (copyright 2009, Gaussian, Inc.),
 the Gaussian(R) 03 system (copyright 2003, Gaussian, Inc.),
 the Gaussian(R) 98 system (copyright 1998, Gaussian, Inc.),
 the Gaussian(R) 94 system (copyright 1995, Gaussian, Inc.),
 the Gaussian 92(TM) system (copyright 1992, Gaussian, Inc.),
 the Gaussian 90(TM) system (copyright 1990, Gaussian, Inc.),
 the Gaussian 88(TM) system (copyright 1988, Gaussian, Inc.),
 the Gaussian 86(TM) system (copyright 1986, Carnegie Mellon
 University), and the Gaussian 82(TM) system (copyright 1983,
 Carnegie Mellon University). Gaussian is a federally registered
 trademark of Gaussian, Inc.
  
 This software contains proprietary and confidential information,
 including trade secrets, belonging to Gaussian, Inc.
  
 This software is provided under written license and may be
 used, copied, transmitted, or stored only in accord with that
 written license.
  
 The following legend is applicable only to US Government
 contracts under FAR:
  
                    RESTRICTED RIGHTS LEGEND
  
 Use, reproduction and disclosure by the US Government is
 subject to restrictions as set forth in subparagraphs (a)
 and (c) of the Commercial Computer Software - Restricted
 Rights clause in FAR 52.227-19.
  
 Gaussian, Inc.
 340 Quinnipiac St., Bldg. 40, Wallingford CT 06492
  
  
 ---------------------------------------------------------------
 Warning -- This program may not be used in any manner that
 competes with the business of Gaussian, Inc. or will provide
 assistance to any competitor of Gaussian, Inc.  The licensee
 of this program is prohibited from giving any competitor of
 Gaussian, Inc. access to this program.  By using this program,
 the user acknowledges that Gaussian, Inc. is engaged in the
 business of creating and licensing software in the field of
 computational chemistry and represents and warrants to the
 licensee that it is not a competitor of Gaussian, Inc. and that
 it will not use this program in any manner prohibited above.
 ---------------------------------------------------------------
  

 Cite this work as:
 Gaussian 16, Revision C.01,
 M. J. Frisch, G. W. Trucks, H. B. Schlegel, G. E. Scuseria, 
 M. A. Robb, J. R. Cheeseman, G. Scalmani, V. Barone, 
 G. A. Petersson, H. Nakatsuji, X. Li, M. Caricato, A. V. Marenich, 
 J. Bloino, B. G. Janesko, R. Gomperts, B. Mennucci, H. P. Hratchian, 
 J. V. Ortiz, A. F. Izmaylov, J. L. Sonnenberg, D. Williams-Young, 
 F. Ding, F. Lipparini, F. Egidi, J. Goings, B. Peng, A. Petrone, 
 T. Henderson, D. Ranasinghe, V. G. Zakrzewski, J. Gao, N. Rega, 
 G. Zheng, W. Liang, M. Hada, M. Ehara, K. Toyota, R. Fukuda, 
 J. Hasegawa, M. Ishida, T. Nakajima, Y. Honda, O. Kitao, H. Nakai, 
 T. Vreven, K. Throssell, J. A. Montgomery, Jr., J. E. Peralta, 
 F. Ogliaro, M. J. Bearpark, J. J. Heyd, E. N. Brothers, K. N. Kudin, 
 V. N. Staroverov, T. A. Keith, R. Kobayashi, J. Normand, 
 K. Raghavachari, A. P. Rendell, J. C. Burant, S. S. Iyengar, 
 J. Tomasi, M. Cossi, J. M. Millam, M. Klene, C. Adamo, R. Cammi, 
 J. W. Ochterski, R. L. Martin, K. Morokuma, O. Farkas, 
 J. B. Foresman, and D. J. Fox, Gaussian, Inc., Wallingford CT, 2019.
 
 ******************************************
 Gaussian 16:  ES64L-G16RevC.01  3-Jul-2019
                26-Oct-2021 
 ******************************************
 %chk=_3_alde1_6_ami2_1_opt_cfm_mp2.chk
 %mem=60000mb
 %nprocshared=32
 Will use up to   32 processors via shared memory.
 ----------------------------------------------------------------------
 #P MP2/aug-cc-pVDZ SP SCF=(YQC,MaxCycle=900) int=(Grid=Superfinegrid) 
 SCRF=(PCM,Solvent=Chloroform)
 ----------------------------------------------------------------------
 1/38=1,172=1/1;
 2/12=2,17=6,18=5,40=1/2;
 3/5=16,7=10,11=9,25=1,30=1,70=2201,72=7,75=-7/1,2,3;
 4//1;
 5/5=2,7=900,8=4,13=1,38=1,53=7/8,2,8;
 8/10=1/1;
 9/16=-3/6;
 6/7=2,8=2,9=2,10=2/1;
 99/5=1,9=1/99;
 Leave Link    1 at Tue Oct 26 20:55:16 2021, MaxMem=  7864320000 cpu:               9.4 elap:               0.3
 (Enter /apps/gaussian/g16-c01-avx/g16/l101.exe)
 -----------------------------
 _3_alde1_6_ami2_1_opt_cfm_mp2
 -----------------------------
 Symbolic Z-matrix:
 Charge =  0 Multiplicity = 1
 C                    -3.9845   -1.337     0.0777 
 C                    -4.6071   -2.0069    1.2762 
 C                    -3.1511   -2.0606   -0.7595 
 C                    -2.5702   -1.4688   -1.8805 
 H                    -2.9213   -3.0951   -0.5601 
 C                    -2.8237   -0.1289   -2.15 
 C                    -3.6465    0.6143   -1.3094 
 H                    -2.3889    0.3625   -3.0072 
 C                    -4.2208    0.0016   -0.1971 
 C                    -3.8931    2.0294   -1.566 
 H                    -4.8662    0.577     0.4523 
 C                    -1.7339   -2.2553   -2.7812 
 H                    -4.2554    2.5907   -0.6968 
 H                    -1.272    -1.686    -3.5964 
 C                     4.0834   -1.5185    0.6948 
 C                     4.4814   -1.2991    2.1261 
 C                     4.6836   -0.8197   -0.3401 
 C                     4.2498   -0.9914   -1.6563 
 H                     5.4943   -0.1359   -0.1463 
 C                     3.2256   -1.8895   -1.9268 
 C                     2.6541   -2.641    -0.9025 
 H                     2.8714   -2.0412   -2.9349 
 C                     3.0857   -2.4411    0.4063 
 C                     1.6316   -3.6362   -1.1895 
 H                     2.6543   -3.0076    1.2174 
 C                     4.8247   -0.2087   -2.7441 
 H                     1.2064   -4.1546   -0.3161 
 H                     4.2279   -0.212    -3.6643 
 C                     1.1378    2.1664    0.2509 
 C                     0.7395    1.6341    1.6106 
 C                     0.1999    2.6348   -0.6535 
 C                     0.5922    3.0525   -1.9258 
 H                    -0.8427    2.676    -0.3843 
 C                     1.9344    3.0146   -2.2817 
 C                     2.8923    2.5962   -1.3615 
 H                     2.2636    3.3354   -3.2582 
 C                     2.4797    2.1632   -0.104 
 C                     4.3087    2.5907   -1.6831 
 H                     3.2184    1.8172    0.6057 
 C                    -0.4085    3.5061   -2.885 
 H                     4.9745    2.3075   -0.8542 
 H                    -0.1471    3.3687   -3.9471 
 C                    -5.4204   -4.0057    2.0583 
 C                    -3.9981   -3.8612    2.66 
 N                    -5.4504   -3.1267    0.9028 
 H                    -5.6667   -5.0287    1.7815 
 N                    -3.5601   -2.5514    2.1617 
 C                    -4.015    -3.9195    4.1853 
 C                    -3.056    -4.9347    2.1036 
 C                     3.8559   -0.8461    4.2683 
 C                     4.8483    0.2776    3.8159 
 N                     3.3624   -1.468     3.0528 
 H                     3.037    -0.4585    4.8723 
 N                     5.0541    0.0212    2.3851 
 C                     6.1902    0.155     4.5382 
 C                     4.2505    1.6644    4.0404 
 C                    -0.2101   -0.5073    2.0429 
 C                    -1.2863    0.5184    1.62 
 N                     1.0455    0.1877    1.7125 
 C                    -0.3541   -1.8279    1.3024 
 C                    -0.2485   -0.7484    3.5562 
 N                    -0.6823    1.8167    1.868 
 H                    -2.2269    0.4089    2.1554 
 C                    -0.8519   -4.3641   -3.4794 
 C                     0.3091   -4.9197   -2.6181 
 N                    -1.6086   -3.4983   -2.617 
 C                    -1.7961   -5.521    -3.8345 
 C                    -0.2877   -3.7366   -4.7572 
 N                     1.2829   -3.9098   -2.3702 
 H                     0.8033   -5.7116   -3.19 
 H                     0.2005   -4.5058   -5.3493 
 C                    -3.8673    3.9244   -3.0087 
 C                    -2.4723    4.4013   -3.4875 
 N                    -3.6985    2.5275   -2.7054 
 C                    -4.858     4.0095   -4.1753 
 C                    -4.3297    4.8191   -1.854 
 N                    -1.4941    4.0265   -2.5177 
 H                    -2.4867    5.4932   -3.5596 
 H                    -5.2804    4.4734   -1.4523 
 C                     6.4429    1.3022   -3.6051 
 C                     6.1611    2.7338   -3.0491 
 N                     5.9134    0.4125   -2.6103 
 C                     7.957     1.0762   -3.6458 
 C                     5.8503    1.1867   -5.0135 
 N                     4.7602    2.8899   -2.8254 
 H                     6.4789    3.4663   -3.7934 
 H                     2.5664   -0.9356    2.6938 
 H                     5.2462   -2.0416    2.4114 
 H                     4.5504    0.7134    1.8379 
 H                    -0.8302    2.0879    2.8334 
 H                     1.3961   -0.1476    0.8188 
 H                     1.3238    2.1722    2.3736 
 H                    -3.3495   -1.9117    2.9169 
 H                    -5.0464   -3.5942    0.0968 
 H                    -5.2417   -1.2809    1.8157 
 H                     4.3938   -1.6039    4.8465 
 H                     4.1436    1.8622    5.1047 
 H                     3.2681    1.7341    3.5739 
 H                     4.8969    2.4277    3.6108 
 H                    -6.1655   -3.645     2.7758 
 H                    -3.0708   -4.9258    1.0166 
 H                    -3.3551   -5.9202    2.4525 
 H                    -2.0381   -4.7377    2.4306 
 H                    -1.4781    0.4205    0.5472 
 H                    -0.1679    0.1902    4.101 
 H                     0.5819   -1.3856    3.8497 
 H                    -1.1791   -1.2377    3.8323 
 H                    -0.104    -5.3478   -1.6901 
 H                    -1.087    -3.2957   -5.3501 
 H                     0.4485   -2.9765   -4.5108 
 H                    -2.2532    3.9837   -4.483 
 H                    -4.4632    5.8348   -2.2176 
 H                    -3.5795    4.8269   -1.0672 
 H                     6.7456    2.8562   -2.1257 
 H                     6.8625    0.9417    4.2058 
 H                     6.6482   -0.8039    4.3113 
 H                     6.0515    0.2372    5.6136 
 H                    -3.0065   -3.8048    4.5781 
 H                    -4.409    -4.8764    4.5194 
 H                    -4.6426   -3.1283    4.5935 
 H                     0.3953   -2.5327    1.6529 
 H                    -0.2302   -1.6865    0.2294 
 H                    -1.3451   -2.2397    1.482 
 H                    -1.2677   -6.286    -4.3974 
 H                    -2.623    -5.1485   -4.4348 
 H                    -2.201    -5.9609   -2.9271 
 H                     5.902     0.1572   -5.364 
 H                     6.4201    1.8133   -5.6946 
 H                     4.8166    1.523    -5.0213 
 H                     8.3553    1.066    -2.635 
 H                     8.4462    1.8613   -4.2167 
 H                     8.1713    0.116    -4.1092 
 H                    -4.8849    5.0194   -4.5769 
 H                    -5.8544    3.7378   -3.8342 
 H                    -4.5641    3.319    -4.9613 
 
 ITRead=  0  0  0  0  0  0  0  0  0  0  0  0  0  0  0  0  0  0  0  0
 ITRead=  0  0  0  0  0  0  0  0  0  0  0  0  0  0  0  0  0  0  0  0
 ITRead=  0  0  0  0  0  0  0  0  0  0  0  0  0  0  0  0  0  0  0  0
 ITRead=  0  0  0  0  0  0  0  0  0  0  0  0  0  0  0  0  0  0  0  0
 ITRead=  0  0  0  0  0  0  0  0  0  0  0  0  0  0  0  0  0  0  0  0
 ITRead=  0  0  0  0  0  0  0  0  0  0  0  0  0  0  0  0  0  0  0  0
 ITRead=  0  0  0  0  0  0  0  0  0  0  0  0  0  0  0
 MicOpt= -1 -1 -1 -1 -1 -1 -1 -1 -1 -1 -1 -1 -1 -1 -1 -1 -1 -1 -1 -1
 MicOpt= -1 -1 -1 -1 -1 -1 -1 -1 -1 -1 -1 -1 -1 -1 -1 -1 -1 -1 -1 -1
 MicOpt= -1 -1 -1 -1 -1 -1 -1 -1 -1 -1 -1 -1 -1 -1 -1 -1 -1 -1 -1 -1
 MicOpt= -1 -1 -1 -1 -1 -1 -1 -1 -1 -1 -1 -1 -1 -1 -1 -1 -1 -1 -1 -1
 MicOpt= -1 -1 -1 -1 -1 -1 -1 -1 -1 -1 -1 -1 -1 -1 -1 -1 -1 -1 -1 -1
 MicOpt= -1 -1 -1 -1 -1 -1 -1 -1 -1 -1 -1 -1 -1 -1 -1 -1 -1 -1 -1 -1
 MicOpt= -1 -1 -1 -1 -1 -1 -1 -1 -1 -1 -1 -1 -1 -1 -1
 NAtoms=    135 NQM=      135 NQMF=       0 NMMI=      0 NMMIF=      0
                NMic=       0 NMicF=      0.
                    Isotopes and Nuclear Properties:
 (Nuclear quadrupole moments (NQMom) in fm**2, nuclear magnetic moments (NMagM)
  in nuclear magnetons)

  Atom         1           2           3           4           5           6           7           8           9          10
 IAtWgt=          12          12          12          12           1          12          12           1          12          12
 AtmWgt=  12.0000000  12.0000000  12.0000000  12.0000000   1.0078250  12.0000000  12.0000000   1.0078250  12.0000000  12.0000000
 NucSpn=           0           0           0           0           1           0           0           1           0           0
 AtZEff=  -0.0000000  -0.0000000  -0.0000000  -0.0000000  -0.0000000  -0.0000000  -0.0000000  -0.0000000  -0.0000000  -0.0000000
 NQMom=    0.0000000   0.0000000   0.0000000   0.0000000   0.0000000   0.0000000   0.0000000   0.0000000   0.0000000   0.0000000
 NMagM=    0.0000000   0.0000000   0.0000000   0.0000000   2.7928460   0.0000000   0.0000000   2.7928460   0.0000000   0.0000000
 AtZNuc=   6.0000000   6.0000000   6.0000000   6.0000000   1.0000000   6.0000000   6.0000000   1.0000000   6.0000000   6.0000000

  Atom        11          12          13          14          15          16          17          18          19          20
 IAtWgt=           1          12           1           1          12          12          12          12           1          12
 AtmWgt=   1.0078250  12.0000000   1.0078250   1.0078250  12.0000000  12.0000000  12.0000000  12.0000000   1.0078250  12.0000000
 NucSpn=           1           0           1           1           0           0           0           0           1           0
 AtZEff=  -0.0000000  -0.0000000  -0.0000000  -0.0000000  -0.0000000  -0.0000000  -0.0000000  -0.0000000  -0.0000000  -0.0000000
 NQMom=    0.0000000   0.0000000   0.0000000   0.0000000   0.0000000   0.0000000   0.0000000   0.0000000   0.0000000   0.0000000
 NMagM=    2.7928460   0.0000000   2.7928460   2.7928460   0.0000000   0.0000000   0.0000000   0.0000000   2.7928460   0.0000000
 AtZNuc=   1.0000000   6.0000000   1.0000000   1.0000000   6.0000000   6.0000000   6.0000000   6.0000000   1.0000000   6.0000000

  Atom        21          22          23          24          25          26          27          28          29          30
 IAtWgt=          12           1          12          12           1          12           1           1          12          12
 AtmWgt=  12.0000000   1.0078250  12.0000000  12.0000000   1.0078250  12.0000000   1.0078250   1.0078250  12.0000000  12.0000000
 NucSpn=           0           1           0           0           1           0           1           1           0           0
 AtZEff=  -0.0000000  -0.0000000  -0.0000000  -0.0000000  -0.0000000  -0.0000000  -0.0000000  -0.0000000  -0.0000000  -0.0000000
 NQMom=    0.0000000   0.0000000   0.0000000   0.0000000   0.0000000   0.0000000   0.0000000   0.0000000   0.0000000   0.0000000
 NMagM=    0.0000000   2.7928460   0.0000000   0.0000000   2.7928460   0.0000000   2.7928460   2.7928460   0.0000000   0.0000000
 AtZNuc=   6.0000000   1.0000000   6.0000000   6.0000000   1.0000000   6.0000000   1.0000000   1.0000000   6.0000000   6.0000000

  Atom        31          32          33          34          35          36          37          38          39          40
 IAtWgt=          12          12           1          12          12           1          12          12           1          12
 AtmWgt=  12.0000000  12.0000000   1.0078250  12.0000000  12.0000000   1.0078250  12.0000000  12.0000000   1.0078250  12.0000000
 NucSpn=           0           0           1           0           0           1           0           0           1           0
 AtZEff=  -0.0000000  -0.0000000  -0.0000000  -0.0000000  -0.0000000  -0.0000000  -0.0000000  -0.0000000  -0.0000000  -0.0000000
 NQMom=    0.0000000   0.0000000   0.0000000   0.0000000   0.0000000   0.0000000   0.0000000   0.0000000   0.0000000   0.0000000
 NMagM=    0.0000000   0.0000000   2.7928460   0.0000000   0.0000000   2.7928460   0.0000000   0.0000000   2.7928460   0.0000000
 AtZNuc=   6.0000000   6.0000000   1.0000000   6.0000000   6.0000000   1.0000000   6.0000000   6.0000000   1.0000000   6.0000000

  Atom        41          42          43          44          45          46          47          48          49          50
 IAtWgt=           1           1          12          12          14           1          14          12          12          12
 AtmWgt=   1.0078250   1.0078250  12.0000000  12.0000000  14.0030740   1.0078250  14.0030740  12.0000000  12.0000000  12.0000000
 NucSpn=           1           1           0           0           2           1           2           0           0           0
 AtZEff=  -0.0000000  -0.0000000  -0.0000000  -0.0000000  -0.0000000  -0.0000000  -0.0000000  -0.0000000  -0.0000000  -0.0000000
 NQMom=    0.0000000   0.0000000   0.0000000   0.0000000   2.0440000   0.0000000   2.0440000   0.0000000   0.0000000   0.0000000
 NMagM=    2.7928460   2.7928460   0.0000000   0.0000000   0.4037610   2.7928460   0.4037610   0.0000000   0.0000000   0.0000000
 AtZNuc=   1.0000000   1.0000000   6.0000000   6.0000000   7.0000000   1.0000000   7.0000000   6.0000000   6.0000000   6.0000000

  Atom        51          52          53          54          55          56          57          58          59          60
 IAtWgt=          12          14           1          14          12          12          12          12          14          12
 AtmWgt=  12.0000000  14.0030740   1.0078250  14.0030740  12.0000000  12.0000000  12.0000000  12.0000000  14.0030740  12.0000000
 NucSpn=           0           2           1           2           0           0           0           0           2           0
 AtZEff=  -0.0000000  -0.0000000  -0.0000000  -0.0000000  -0.0000000  -0.0000000  -0.0000000  -0.0000000  -0.0000000  -0.0000000
 NQMom=    0.0000000   2.0440000   0.0000000   2.0440000   0.0000000   0.0000000   0.0000000   0.0000000   2.0440000   0.0000000
 NMagM=    0.0000000   0.4037610   2.7928460   0.4037610   0.0000000   0.0000000   0.0000000   0.0000000   0.4037610   0.0000000
 AtZNuc=   6.0000000   7.0000000   1.0000000   7.0000000   6.0000000   6.0000000   6.0000000   6.0000000   7.0000000   6.0000000

  Atom        61          62          63          64          65          66          67          68          69          70
 IAtWgt=          12          14           1          12          12          14          12          12          14           1
 AtmWgt=  12.0000000  14.0030740   1.0078250  12.0000000  12.0000000  14.0030740  12.0000000  12.0000000  14.0030740   1.0078250
 NucSpn=           0           2           1           0           0           2           0           0           2           1
 AtZEff=  -0.0000000  -0.0000000  -0.0000000  -0.0000000  -0.0000000  -0.0000000  -0.0000000  -0.0000000  -0.0000000  -0.0000000
 NQMom=    0.0000000   2.0440000   0.0000000   0.0000000   0.0000000   2.0440000   0.0000000   0.0000000   2.0440000   0.0000000
 NMagM=    0.0000000   0.4037610   2.7928460   0.0000000   0.0000000   0.4037610   0.0000000   0.0000000   0.4037610   2.7928460
 AtZNuc=   6.0000000   7.0000000   1.0000000   6.0000000   6.0000000   7.0000000   6.0000000   6.0000000   7.0000000   1.0000000

  Atom        71          72          73          74          75          76          77          78          79          80
 IAtWgt=           1          12          12          14          12          12          14           1           1          12
 AtmWgt=   1.0078250  12.0000000  12.0000000  14.0030740  12.0000000  12.0000000  14.0030740   1.0078250   1.0078250  12.0000000
 NucSpn=           1           0           0           2           0           0           2           1           1           0
 AtZEff=  -0.0000000  -0.0000000  -0.0000000  -0.0000000  -0.0000000  -0.0000000  -0.0000000  -0.0000000  -0.0000000  -0.0000000
 NQMom=    0.0000000   0.0000000   0.0000000   2.0440000   0.0000000   0.0000000   2.0440000   0.0000000   0.0000000   0.0000000
 NMagM=    2.7928460   0.0000000   0.0000000   0.4037610   0.0000000   0.0000000   0.4037610   2.7928460   2.7928460   0.0000000
 AtZNuc=   1.0000000   6.0000000   6.0000000   7.0000000   6.0000000   6.0000000   7.0000000   1.0000000   1.0000000   6.0000000

  Atom        81          82          83          84          85          86          87          88          89          90
 IAtWgt=          12          14          12          12          14           1           1           1           1           1
 AtmWgt=  12.0000000  14.0030740  12.0000000  12.0000000  14.0030740   1.0078250   1.0078250   1.0078250   1.0078250   1.0078250
 NucSpn=           0           2           0           0           2           1           1           1           1           1
 AtZEff=  -0.0000000  -0.0000000  -0.0000000  -0.0000000  -0.0000000  -0.0000000  -0.0000000  -0.0000000  -0.0000000  -0.0000000
 NQMom=    0.0000000   2.0440000   0.0000000   0.0000000   2.0440000   0.0000000   0.0000000   0.0000000   0.0000000   0.0000000
 NMagM=    0.0000000   0.4037610   0.0000000   0.0000000   0.4037610   2.7928460   2.7928460   2.7928460   2.7928460   2.7928460
 AtZNuc=   6.0000000   7.0000000   6.0000000   6.0000000   7.0000000   1.0000000   1.0000000   1.0000000   1.0000000   1.0000000

  Atom        91          92          93          94          95          96          97          98          99         100
 IAtWgt=           1           1           1           1           1           1           1           1           1           1
 AtmWgt=   1.0078250   1.0078250   1.0078250   1.0078250   1.0078250   1.0078250   1.0078250   1.0078250   1.0078250   1.0078250
 NucSpn=           1           1           1           1           1           1           1           1           1           1
 AtZEff=  -0.0000000  -0.0000000  -0.0000000  -0.0000000  -0.0000000  -0.0000000  -0.0000000  -0.0000000  -0.0000000  -0.0000000
 NQMom=    0.0000000   0.0000000   0.0000000   0.0000000   0.0000000   0.0000000   0.0000000   0.0000000   0.0000000   0.0000000
 NMagM=    2.7928460   2.7928460   2.7928460   2.7928460   2.7928460   2.7928460   2.7928460   2.7928460   2.7928460   2.7928460
 AtZNuc=   1.0000000   1.0000000   1.0000000   1.0000000   1.0000000   1.0000000   1.0000000   1.0000000   1.0000000   1.0000000

  Atom       101         102         103         104         105         106         107         108         109         110
 IAtWgt=           1           1           1           1           1           1           1           1           1           1
 AtmWgt=   1.0078250   1.0078250   1.0078250   1.0078250   1.0078250   1.0078250   1.0078250   1.0078250   1.0078250   1.0078250
 NucSpn=           1           1           1           1           1           1           1           1           1           1
 AtZEff=  -0.0000000  -0.0000000  -0.0000000  -0.0000000  -0.0000000  -0.0000000  -0.0000000  -0.0000000  -0.0000000  -0.0000000
 NQMom=    0.0000000   0.0000000   0.0000000   0.0000000   0.0000000   0.0000000   0.0000000   0.0000000   0.0000000   0.0000000
 NMagM=    2.7928460   2.7928460   2.7928460   2.7928460   2.7928460   2.7928460   2.7928460   2.7928460   2.7928460   2.7928460
 AtZNuc=   1.0000000   1.0000000   1.0000000   1.0000000   1.0000000   1.0000000   1.0000000   1.0000000   1.0000000   1.0000000

  Atom       111         112         113         114         115         116         117         118         119         120
 IAtWgt=           1           1           1           1           1           1           1           1           1           1
 AtmWgt=   1.0078250   1.0078250   1.0078250   1.0078250   1.0078250   1.0078250   1.0078250   1.0078250   1.0078250   1.0078250
 NucSpn=           1           1           1           1           1           1           1           1           1           1
 AtZEff=  -0.0000000  -0.0000000  -0.0000000  -0.0000000  -0.0000000  -0.0000000  -0.0000000  -0.0000000  -0.0000000  -0.0000000
 NQMom=    0.0000000   0.0000000   0.0000000   0.0000000   0.0000000   0.0000000   0.0000000   0.0000000   0.0000000   0.0000000
 NMagM=    2.7928460   2.7928460   2.7928460   2.7928460   2.7928460   2.7928460   2.7928460   2.7928460   2.7928460   2.7928460
 AtZNuc=   1.0000000   1.0000000   1.0000000   1.0000000   1.0000000   1.0000000   1.0000000   1.0000000   1.0000000   1.0000000

  Atom       121         122         123         124         125         126         127         128         129         130
 IAtWgt=           1           1           1           1           1           1           1           1           1           1
 AtmWgt=   1.0078250   1.0078250   1.0078250   1.0078250   1.0078250   1.0078250   1.0078250   1.0078250   1.0078250   1.0078250
 NucSpn=           1           1           1           1           1           1           1           1           1           1
 AtZEff=  -0.0000000  -0.0000000  -0.0000000  -0.0000000  -0.0000000  -0.0000000  -0.0000000  -0.0000000  -0.0000000  -0.0000000
 NQMom=    0.0000000   0.0000000   0.0000000   0.0000000   0.0000000   0.0000000   0.0000000   0.0000000   0.0000000   0.0000000
 NMagM=    2.7928460   2.7928460   2.7928460   2.7928460   2.7928460   2.7928460   2.7928460   2.7928460   2.7928460   2.7928460
 AtZNuc=   1.0000000   1.0000000   1.0000000   1.0000000   1.0000000   1.0000000   1.0000000   1.0000000   1.0000000   1.0000000

  Atom       131         132         133         134         135
 IAtWgt=           1           1           1           1           1
 AtmWgt=   1.0078250   1.0078250   1.0078250   1.0078250   1.0078250
 NucSpn=           1           1           1           1           1
 AtZEff=  -0.0000000  -0.0000000  -0.0000000  -0.0000000  -0.0000000
 NQMom=    0.0000000   0.0000000   0.0000000   0.0000000   0.0000000
 NMagM=    2.7928460   2.7928460   2.7928460   2.7928460   2.7928460
 AtZNuc=   1.0000000   1.0000000   1.0000000   1.0000000   1.0000000
 Leave Link  101 at Tue Oct 26 20:55:17 2021, MaxMem=  7864320000 cpu:               5.2 elap:               0.2
 (Enter /apps/gaussian/g16-c01-avx/g16/l202.exe)
 Stoichiometry    C51H72N12
 Framework group  C1[X(C51H72N12)]
 Deg. of freedom   399
 Full point group                 C1      NOp   1
 Largest Abelian subgroup         C1      NOp   1
 Largest concise Abelian subgroup C1      NOp   1
                         Standard orientation:                         
 ---------------------------------------------------------------------
 Center     Atomic      Atomic             Coordinates (Angstroms)
 Number     Number       Type             X           Y           Z
 ---------------------------------------------------------------------
      1          6           0        4.601102   -0.057915   -0.219484
      2          6           0        5.467600   -1.197569   -0.691892
      3          6           0        3.919302   -0.163855    0.981758
      4          6           0        3.119191    0.878888    1.447400
      5          1           0        3.980413   -1.058114    1.581195
      6          6           0        2.996649    2.034451    0.684588
      7          6           0        3.663455    2.148776   -0.531246
      8          1           0        2.383855    2.860374    1.012689
      9          6           0        4.461916    1.096360   -0.975447
     10          6           0        3.515894    3.344655   -1.354205
     11          1           0        4.986122    1.187848   -1.916821
     12          6           0        2.445824    0.773847    2.737665
     13          1           0        3.788394    3.206178   -2.407009
     14          1           0        1.790149    1.616851    2.985539
     15          6           0       -3.072860   -2.532000    0.483351
     16          6           0       -3.400176   -3.474390   -0.639113
     17          6           0       -3.912377   -1.481303    0.816258
     18          6           0       -3.553836   -0.578186    1.819190
     19          1           0       -4.854140   -1.346100    0.309132
     20          6           0       -2.357251   -0.754312    2.501761
     21          6           0       -1.532617   -1.840165    2.216351
     22          1           0       -2.056299   -0.071050    3.281067
     23          6           0       -1.896892   -2.718505    1.198992
     24          6           0       -0.313930   -2.070985    2.977812
     25          1           0       -1.271632   -3.564023    0.955965
     26          6           0       -4.394780    0.572188    2.128854
     27          1           0        0.297854   -2.928759    2.657963
     28          1           0       -3.891561    1.352575    2.712563
     29          6           0       -1.221279    0.974591   -2.110405
     30          6           0       -0.593584   -0.237480   -2.764358
     31          6           0       -0.509963    2.144740   -1.906013
     32          6           0       -1.095461    3.219780   -1.236238
     33          1           0        0.504586    2.233608   -2.258111
     34          6           0       -2.406187    3.122133   -0.786723
     35          6           0       -3.148412    1.970091   -1.034317
     36          1           0       -2.882683    3.940684   -0.269264
     37          6           0       -2.540584    0.899823   -1.685550
     38          6           0       -4.536250    1.852844   -0.622241
     39          1           0       -3.106938   -0.004455   -1.860454
     40          6           0       -0.324162    4.433004   -0.990463
     41          1           0       -5.039223    0.925502   -0.934687
     42          1           0       -0.623957    5.016912   -0.104778
     43          6           0        6.827639   -2.902136    0.024405
     44          6           0        5.468030   -3.561817   -0.325089
     45          7           0        6.539053   -1.495335    0.239696
     46          1           0        7.306826   -3.343764    0.895700
     47          7           0        4.669358   -2.432097   -0.816595
     48          6           0        5.619247   -4.658917   -1.375674
     49          6           0        4.793845   -4.126100    0.930536
     50          6           0       -2.746218   -4.509567   -2.559068
     51          6           0       -4.027179   -3.669901   -2.885146
     52          7           0       -2.206194   -3.967271   -1.325362
     53          1           0       -2.010083   -4.472366   -3.360546
     54          7           0       -4.271735   -2.896735   -1.661344
     55          6           0       -5.231015   -4.575296   -3.146833
     56          6           0       -3.791421   -2.744395   -4.076296
     57          6           0        0.906978   -1.762709   -1.717360
     58          6           0        1.645637   -0.517254   -2.258041
     59          7           0       -0.507316   -1.361035   -1.801927
     60          6           0        1.327929   -2.107544   -0.297166
     61          6           0        1.125088   -2.970159   -2.636148
     62          7           0        0.748744    0.045701   -3.253314
     63          1           0        2.621744   -0.740039   -2.683426
     64          6           0        2.085302   -0.378707    4.800209
     65          6           0        1.178239   -1.631062    4.714813
     66          7           0        2.658558   -0.212253    3.492689
     67          6           0        3.264925   -0.690308    5.731564
     68          6           0        1.279741    0.801331    5.351057
     69          7           0       -0.000414   -1.351471    3.964984
     70          1           0        0.861551   -1.887129    5.730957
     71          1           0        0.961389    0.576129    6.365220
     72          6           0        2.889036    5.626269   -1.626898
     73          6           0        1.385070    5.950296   -1.437691
     74          7           0        3.110496    4.428745   -0.859627
     75          6           0        3.729413    6.731854   -0.977949
     76          6           0        3.194413    5.538756   -3.125804
     77          7           0        0.615954    4.788430   -1.748162
     78          1           0        1.111740    6.743528   -2.140346
     79          1           0        4.230637    5.251439   -3.294304
     80          6           0       -6.410332    1.809470    1.906605
     81          6           0       -6.464368    2.459326    0.487875
     82          7           0       -5.592830    0.640534    1.742766
     83          6           0       -7.813318    1.324081    2.282450
     84          6           0       -5.920608    2.852651    2.916579
     85          7           0       -5.137983    2.743034    0.043868
     86          1           0       -7.017781    3.397851    0.554520
     87          1           0       -1.605151   -3.167177   -1.536413
     88          1           0       -3.922797   -4.358073   -0.234645
     89          1           0       -4.008169   -1.927027   -1.811284
     90          1           0        0.897140   -0.407305   -4.147845
     91          1           0       -0.828745   -1.049633   -0.888823
     92          1           0       -1.235014   -0.543218   -3.605916
     93          1           0        4.360986   -2.574577   -1.769748
     94          1           0        6.207181   -1.347241    1.188030
     95          1           0        5.933936   -0.930150   -1.657227
     96          1           0       -3.023367   -5.553433   -2.381740
     97          1           0       -3.655808   -3.325721   -4.985667
     98          1           0       -2.900029   -2.138501   -3.915357
     99          1           0       -4.644472   -2.082311   -4.214005
    100          1           0        7.508565   -2.979732   -0.830232
    101          1           0        4.720348   -3.359976    1.698337
    102          1           0        5.363398   -4.965248    1.322764
    103          1           0        3.788535   -4.462702    0.689889
    104          1           0        1.771241    0.208802   -1.449129
    105          1           0        0.848298   -2.732768   -3.661480
    106          1           0        0.512790   -3.803847   -2.301803
    107          1           0        2.169106   -3.272114   -2.613533
    108          1           0        1.759382   -2.468555    4.295308
    109          1           0        1.889166    1.703030    5.369567
    110          1           0        0.394182    0.969351    4.744418
    111          1           0        1.203490    6.308125   -0.411825
    112          1           0        3.032506    6.511630   -3.582944
    113          1           0        2.531824    4.817729   -3.598044
    114          1           0       -6.986199    1.760316   -0.181727
    115          1           0       -6.107400   -3.971183   -3.366769
    116          1           0       -5.442664   -5.175987   -2.266429
    117          1           0       -5.034101   -5.235077   -3.988494
    118          1           0        4.649382   -5.094825   -1.607766
    119          1           0        6.271650   -5.445787   -1.004565
    120          1           0        6.051709   -4.257613   -2.291337
    121          1           0        0.815544   -3.007402    0.032850
    122          1           0        1.087804   -1.294449    0.386858
    123          1           0        2.402543   -2.275451   -0.266696
    124          1           0        2.909074   -0.942563    6.727066
    125          1           0        3.917982    0.176784    5.798999
    126          1           0        3.839594   -1.523409    5.335926
    127          1           0       -5.732509    2.386939    3.882563
    128          1           0       -6.684420    3.615432    3.042884
    129          1           0       -5.012492    3.332088    2.559984
    130          1           0       -8.114781    0.518769    1.618329
    131          1           0       -8.531717    2.136721    2.210728
    132          1           0       -7.808544    0.945162    3.301786
    133          1           0        3.463359    7.701857   -1.390519
    134          1           0        4.785801    6.547726   -1.159951
    135          1           0        3.562634    6.741198    0.095858
 ---------------------------------------------------------------------
 Rotational constants (GHZ):           0.0432158           0.0306400           0.0265339
 Leave Link  202 at Tue Oct 26 20:55:17 2021, MaxMem=  7864320000 cpu:               0.2 elap:               0.0
 (Enter /apps/gaussian/g16-c01-avx/g16/l301.exe)
 Standard basis: Aug-CC-pVDZ (5D, 7F)
 Ernie: Thresh=  0.10000D-02 Tol=  0.10000D-05 Strict=F.
 Ernie:  126 primitive shells out of 2079 were deleted.
 There are  2223 symmetry adapted cartesian basis functions of A   symmetry.
 There are  2097 symmetry adapted basis functions of A   symmetry.
  2097 basis functions,  3501 primitive gaussians,  2223 cartesian basis functions
   231 alpha electrons      231 beta electrons
       nuclear repulsion energy     10192.1247483392 Hartrees.
 IExCor=    0 DFT=F Ex=HF Corr=None ExCW=0 ScaHFX=  1.000000
 ScaDFX=  1.000000  1.000000  1.000000  1.000000 ScalE2=  1.000000  1.000000
 IRadAn=      7 IRanWt=     -1 IRanGd=            0 ICorTp=0 IEmpDi=  4
 NAtoms=  135 NActive=  135 NUniq=  135 SFac= 1.00D+00 NAtFMM=   60 NAOKFM=T Big=T
 Integral buffers will be    131072 words long.
 Raffenetti 1 integral format.
 Two-electron integral symmetry is turned on.
 ------------------------------------------------------------------------------
 Polarizable Continuum Model (PCM)
 =================================
 Model                : PCM.
 Atomic radii         : UFF (Universal Force Field).
 Polarization charges : Total charges.
 Charge compensation  : None.
 Solution method      : On-the-fly selection.
 Cavity type          : Scaled VdW (van der Waals Surface) (Alpha=1.100).
 Cavity algorithm     : GePol (No added spheres)
                        Default sphere list used, NSphG=  135.
                        Lebedev-Laikov grids with approx.  5.0 points / Ang**2.
                        Smoothing algorithm: York/Karplus (Gamma=1.0000).
                        Polarization charges: spherical gaussians, with
                                              point-specific exponents (IZeta= 3).
                        Self-potential: point-specific (ISelfS= 7).
                        Self-field    : sphere-specific E.n sum rule (ISelfD= 2).
 Solvent              : Chloroform, Eps=   4.711300 Eps(inf)=   2.090627
 ------------------------------------------------------------------------------
 GePol: Number of generator spheres                  =     135
 GePol: Total number of spheres                      =     135
 GePol: Number of exposed spheres                    =     135 (100.00%)
 GePol: Number of points                             =    7302
 GePol: Average weight of points                     =       0.13
 GePol: Minimum weight of points                     =   0.76D-11
 GePol: Maximum weight of points                     =    0.20577
 GePol: Number of points with low weight             =     603
 GePol: Fraction of low-weight points (<1% of avg)   =       8.26%
 GePol: Cavity surface area                          =    935.398 Ang**2
 GePol: Cavity volume                                =   1226.585 Ang**3
 Leave Link  301 at Tue Oct 26 20:55:17 2021, MaxMem=  7864320000 cpu:               1.9 elap:               0.1
 (Enter /apps/gaussian/g16-c01-avx/g16/l302.exe)
 NPDir=0 NMtPBC=     1 NCelOv=     1 NCel=       1 NClECP=     1 NCelD=      1
         NCelK=      1 NCelE2=     1 NClLst=     1 CellRange=     0.0.
 One-electron integrals computed using PRISM.
 One-electron integral symmetry used in STVInt
 NBasis=  2097 RedAO= T EigKep=  1.07D-06  NBF=  2097
 NBsUse=  2069 1.00D-06 EigRej=  9.83D-07 NBFU=  2069
 Leave Link  302 at Tue Oct 26 20:55:43 2021, MaxMem=  7864320000 cpu:             834.9 elap:              26.3
 (Enter /apps/gaussian/g16-c01-avx/g16/l303.exe)
 DipDrv:  MaxL=1.
 Leave Link  303 at Tue Oct 26 20:55:44 2021, MaxMem=  7864320000 cpu:              30.4 elap:               1.2
 (Enter /apps/gaussian/g16-c01-avx/g16/l401.exe)
 ExpMin= 2.97D-02 ExpMax= 9.05D+03 ExpMxC= 3.09D+02 IAcc=3 IRadAn=         7 AccDes= 0.00D+00
 Harris functional with IExCor=  205 and IRadAn=       7 diagonalized for initial guess.
 HarFok:  IExCor=  205 AccDes= 0.00D+00 IRadAn=         7 IDoV= 1 UseB2=F ITyADJ=14
 ICtDFT=  3500011 ScaDFX=  1.000000  1.000000  1.000000  1.000000
 FoFCou: FMM=F IPFlag=           0 FMFlag=      100000 FMFlg1=        2001
         NFxFlg=           0 DoJE=T BraDBF=F KetDBF=T FulRan=T
         wScrn=  0.000000 ICntrl=       500 IOpCl=  0 I1Cent=   200000004 NGrid=           0
         NMat0=    1 NMatS0=      1 NMatT0=    0 NMatD0=    1 NMtDS0=    0 NMtDT0=    0
 Petite list used in FoFCou.
 Harris En= -2630.92085514789    
 JPrj=0 DoOrth=F DoCkMO=F.
 Leave Link  401 at Tue Oct 26 20:56:41 2021, MaxMem=  7864320000 cpu:            1777.6 elap:              56.0
 (Enter /apps/gaussian/g16-c01-avx/g16/l508.exe)
 Integral symmetry usage will be decided dynamically.
 Tight linear equation convergence will be used.
 RHF wavefunction.
 Linear searches until partial convergence.
 Full line searches.
 Fock matrices will be formed incrementally for  20 cycles.
 Inv3:  Mode=1 IEnd=   159957612.
 Iteration    1 A*A^-1 deviation from unit magnitude is 3.33D-14 for   7299.
 Iteration    1 A*A^-1 deviation from orthogonality  is 5.84D-15 for   7299   7271.
 Iteration    1 A^-1*A deviation from unit magnitude is 3.33D-14 for   7299.
 Iteration    1 A^-1*A deviation from orthogonality  is 3.33D-15 for   5907   4416.
 FoFJK:  IHMeth= 1 ICntrl=       0 DoSepK=F KAlg= 0 I1Cent=           0 FoldK=F
 IRaf= 980000000 NMat=       1 IRICut=       1 DoRegI=T DoRafI=F ISym2E= 1 IDoP0=0 IntGTp=1.
 Iteration   1 EE= -2624.30899292868                                    Grad=2.511D+00 Max rot=    1.9508 deg.
 Gradient too large for Newton-Raphson -- use scaled steepest descent instead.
 Alpha Gap=     0.441 HL deriv= 9.77D-04
     ILin= 1 X=0.000D+00 Y=-2.624308992929D+03 DE= 0.00D+00 F= -7.57D+00
 RMSU=  7.21D-03    CP:  7.81D-01
     ILin= 2 X=3.000D-01 Y=-2.626027506271D+03 DE=-1.72D+00 F= -3.88D+00 OKLS=F
 RMSU=  3.12D-03    CP:  6.22D-01  1.77D+00
     ILin= 3 X=6.000D-01 Y=-2.626637213542D+03 DE=-2.33D+00 F= -1.85D-01
 RMSU=  2.74D-03    CP:  5.04D-01  2.43D+00  3.00D+00
     ILin= 4 X=1.000D+00 Y=-2.625735913934D+03 DE=-1.43D+00 F=  4.67D+00
     An  expanding polynomial of degree  4 produced  0.6156
     Minimum is close to point  3 DX=  1.56D-02 DF= -1.49D-03 DXR=  2.53D-02 DFR=  6.40D-04 which will be used.
 Iteration   2 EE= -2626.63721354219     Delta-E=       -2.328220613505 Grad=8.180D-01 Max rot=    0.9874 deg.
 Gradient too large for Newton-Raphson -- use scaled steepest descent instead.
 Alpha Gap=     0.468 HL deriv= 6.85D-04
     ILin= 1 X=0.000D+00 Y=-2.626637213542D+03 DE= 0.00D+00 F= -3.39D-01
 RMSU=  1.73D-03    CP:  5.65D-01  1.90D+00  1.58D+00  4.32D-03
     ILin= 2 X=4.000D-01 Y=-2.626743027661D+03 DE=-1.06D-01 F= -1.90D-01 OKLS=F
 RMSU=  4.68D-04    CP:  5.11D-01  2.03D+00  2.52D+00  8.87D-03  2.13D+00
     ILin= 3 X=9.000D-01 Y=-2.626791486555D+03 DE=-1.54D-01 F= -3.97D-03
     Reject lnstep IMin12=  2  3 Big=T Turn=F Min= 1.011D+00 FVal=-2.626792107588D+03 Lims=  4.00D-01  9.00D-01
 RMSU=  1.46D-03    CP:  4.63D-01  2.11D+00  3.00D+00  1.73D+00  3.00D+00
                    CP:  3.00D+00
     ILin= 4 X=1.700D+00 Y=-2.626676064396D+03 DE=-3.89D-02 F=  2.92D-01
     An  expanding polynomial of degree  4 produced  0.9107
     Minimum is close to point  3 DX=  1.07D-02 DF= -2.14D-05 DXR=  1.18D-02 DFR=  1.39D-04 which will be used.
 Iteration   3 EE= -2626.79148655472     Delta-E=       -0.154273012527 Grad=1.877D-01 Max rot=    0.3158 deg.
 Gradient too large for Newton-Raphson -- use scaled steepest descent instead.
 Alpha Gap=     0.452 HL deriv= 4.09D-04
     ILin= 1 X=0.000D+00 Y=-2.626791486555D+03 DE= 0.00D+00 F= -4.38D-02
 RMSU=  8.95D-04    CP:  4.94D-01  2.00D+00  2.69D+00  8.18D-03  2.20D+00
                    CP:  1.54D+00  5.11D-03
     ILin= 2 X=7.000D-01 Y=-2.626806187054D+03 DE=-1.47D-02 F=  1.82D-03 OKLS=T
     Accept linear search using points  1 and  2.
     An  expanding polynomial of degree  2 produced  0.6200
 RMSU=  3.24D-06    CP:  4.96D-01  2.00D+00  2.67D+00  8.26D-03  2.19D+00
                    CP:  1.48D+00  4.58D-03  8.87D-01
 Iteration   4 EE= -2626.80612436467     Delta-E=       -0.014637809953 Grad=6.967D-02 Max rot=    0.1381 deg.
 Gradient too large for Newton-Raphson -- use scaled steepest descent instead.
 Alpha Gap=     0.462 HL deriv= 2.77D-05
     ILin= 1 X=0.000D+00 Y=-2.626806124365D+03 DE= 0.00D+00 F= -4.98D-03
 RMSU=  2.66D-04    CP:  4.85D-01  1.97D+00  2.72D+00  8.91D-03  2.33D+00
                    CP:  1.85D+00  3.63D-03  1.27D+00 -3.00D+00
     ILin= 2 X=8.000D-01 Y=-2.626808606507D+03 DE=-2.48D-03 F= -1.23D-03 OKLS=T
     Reject lnstep IMin12=  1  2 Big=T Turn=F Min= 1.884D+00 FVal=-2.626809886332D+03 Lims=  0.00D+00  8.00D-01
 RMSU=  2.51D-05    CP:  4.76D-01  1.94D+00  2.77D+00  9.48D-03  2.44D+00
                    CP:  2.18D+00  2.65D-03  1.59D+00 -3.00D+00  1.87D+00
     ILin= 3 X=1.500D+00 Y=-2.626808322892D+03 DE=-2.20D-03 F=  2.04D-03
     An  expanding polynomial of degree  3 produced  1.0634
 RMSU=  5.69D-07    CP:  4.82D-01  1.95D+00  2.74D+00  9.12D-03  2.37D+00
                    CP:  1.97D+00  3.28D-03  1.39D+00 -3.00D+00  1.33D+00
                    CP:  3.10D-01
 Iteration   5 EE= -2626.80876842553     Delta-E=       -0.002644060862 Grad=2.769D-02 Max rot=    0.0939 deg.
 Gradient too large for Newton-Raphson -- use scaled steepest descent instead.
 Alpha Gap=     0.461 HL deriv= 4.52D-05
     ILin= 1 X=0.000D+00 Y=-2.626808768426D+03 DE= 0.00D+00 F= -1.41D-03
 RMSU=  1.00D-04    CP:  4.80D-01  1.95D+00  2.74D+00  9.14D-03  2.38D+00
                    CP:  2.06D+00  3.33D-03  1.55D+00 -3.00D+00  1.35D+00
                    CP:  3.89D-01  3.00D+00
     ILin= 2 X=8.000D-01 Y=-2.626809117983D+03 DE=-3.50D-04 F=  5.34D-04 OKLS=T
     Accept linear search using points  1 and  2.
     An  expanding polynomial of degree  2 produced  0.5327
 RMSU=  4.36D-07    CP:  4.81D-01  1.95D+00  2.74D+00  9.13D-03  2.38D+00
                    CP:  2.03D+00  3.31D-03  1.50D+00 -3.00D+00  1.35D+00
                    CP:  3.57D-01  3.00D+00  6.66D-01
 Iteration   6 EE= -2626.80917402914     Delta-E=       -0.000405603612 Grad=8.258D-03 Max rot=    0.0303 deg.
 SCF Done:  E(RHF) =  -2626.80917403     a.u. after    6 cycles
            Convg  =    0.8258D-02                    14 Fock formations.
              S**2 =  0.0000                  -V/T =  2.0002
 Leave Link  508 at Wed Oct 27 00:21:33 2021, MaxMem=  7864320000 cpu:          389284.5 elap:           12292.3
 (Enter /apps/gaussian/g16-c01-avx/g16/l502.exe)
 Integral symmetry usage will be decided dynamically.
 Closed shell SCF:
 Using DIIS extrapolation, IDIIS=  1040.
 NGot=  7864320000 LenX=  7854341588 LenY=  7849397636
 Requested convergence on RMS density matrix=1.00D-08 within 128 cycles.
 Requested convergence on MAX density matrix=1.00D-06.
 Requested convergence on             energy=1.00D-06.
 No special actions if energy rises.
 Fock matrices will be formed incrementally for  20 cycles.

 Cycle   1  Pass 1  IDiag  1:
 FoFJK:  IHMeth= 1 ICntrl=       0 DoSepK=F KAlg= 0 I1Cent=           0 FoldK=F
 IRaf= 980000000 NMat=       1 IRICut=       1 DoRegI=T DoRafI=F ISym2E= 0 IDoP0=0 IntGTp=1.
 FoFCou: FMM=T IPFlag=           0 FMFlag=      100000 FMFlg1=        2001
         NFxFlg=           0 DoJE=F BraDBF=F KetDBF=F FulRan=T
         wScrn=  0.000000 ICntrl=         0 IOpCl=  0 I1Cent=           0 NGrid=           0
         NMat0=    1 NMatS0=      1 NMatT0=    0 NMatD0=    1 NMtDS0=    0 NMtDT0=    0
 Symmetry not used in FoFCou.
 FMM levels:  10  Number of levels for PrismC:   9
 E= -2626.80917400193    
 DIIS: error= 5.98D-05 at cycle   1 NSaved=   1.
 NSaved= 1 IEnMin= 1 EnMin= -2626.80917400193     IErMin= 1 ErrMin= 5.98D-05
 ErrMax= 5.98D-05  0.00D+00 EMaxC= 1.00D-01 BMatC= 3.41D-05 BMatP= 3.41D-05
 IDIUse=1 WtCom= 1.00D+00 WtEn= 0.00D+00
 Coeff-Com:  0.100D+01
 Coeff:      0.100D+01
 Gap=     0.463 Goal=   None    Shift=    0.000
 RMSDP=1.90D-04 MaxDP=3.59D-02              OVMax= 2.21D-03

 Cycle   2  Pass 1  IDiag  1:
 RMSU=  1.51D-04    CP:  9.97D-01
 E= -2626.80927770939     Delta-E=       -0.000103707463 Rises=F Damp=F
 DIIS: error= 2.18D-05 at cycle   2 NSaved=   2.
 NSaved= 2 IEnMin= 2 EnMin= -2626.80927770939     IErMin= 2 ErrMin= 2.18D-05
 ErrMax= 2.18D-05  0.00D+00 EMaxC= 1.00D-01 BMatC= 7.47D-06 BMatP= 3.41D-05
 IDIUse=1 WtCom= 1.00D+00 WtEn= 0.00D+00
 Coeff-Com: -0.490D-01 0.105D+01
 Coeff:     -0.490D-01 0.105D+01
 Gap=     0.346 Goal=   None    Shift=    0.000
 RMSDP=3.69D-05 MaxDP=5.39D-03 DE=-1.04D-04 OVMax= 1.15D-03

 Cycle   3  Pass 1  IDiag  1:
 RMSU=  1.93D-05    CP:  9.96D-01  1.18D+00
 E= -2626.80929563776     Delta-E=       -0.000017928365 Rises=F Damp=F
 DIIS: error= 1.20D-05 at cycle   3 NSaved=   3.
 NSaved= 3 IEnMin= 3 EnMin= -2626.80929563776     IErMin= 3 ErrMin= 1.20D-05
 ErrMax= 1.20D-05  0.00D+00 EMaxC= 1.00D-01 BMatC= 2.58D-06 BMatP= 7.47D-06
 IDIUse=1 WtCom= 1.00D+00 WtEn= 0.00D+00
 Coeff-Com: -0.226D+00 0.383D+00 0.843D+00
 Coeff:     -0.226D+00 0.383D+00 0.843D+00
 Gap=     0.346 Goal=   None    Shift=    0.000
 RMSDP=1.86D-05 MaxDP=3.24D-03 DE=-1.79D-05 OVMax= 7.15D-04

 Cycle   4  Pass 1  IDiag  1:
 RMSU=  8.28D-06    CP:  9.96D-01  1.26D+00  1.20D+00
 E= -2626.80930165975     Delta-E=       -0.000006021992 Rises=F Damp=F
 DIIS: error= 4.02D-06 at cycle   4 NSaved=   4.
 NSaved= 4 IEnMin= 4 EnMin= -2626.80930165975     IErMin= 4 ErrMin= 4.02D-06
 ErrMax= 4.02D-06  0.00D+00 EMaxC= 1.00D-01 BMatC= 2.40D-07 BMatP= 2.58D-06
 IDIUse=1 WtCom= 1.00D+00 WtEn= 0.00D+00
 Coeff-Com:  0.102D+00-0.272D+00-0.280D+00 0.145D+01
 Coeff:      0.102D+00-0.272D+00-0.280D+00 0.145D+01
 Gap=     0.346 Goal=   None    Shift=    0.000
 RMSDP=7.49D-06 MaxDP=9.12D-04 DE=-6.02D-06 OVMax= 4.83D-04

 Cycle   5  Pass 1  IDiag  1:
 RMSU=  4.70D-06    CP:  9.96D-01  1.24D+00  1.37D+00  1.26D+00
 E= -2626.80930301502     Delta-E=       -0.000001355265 Rises=F Damp=F
 DIIS: error= 1.73D-06 at cycle   5 NSaved=   5.
 NSaved= 5 IEnMin= 5 EnMin= -2626.80930301502     IErMin= 5 ErrMin= 1.73D-06
 ErrMax= 1.73D-06  0.00D+00 EMaxC= 1.00D-01 BMatC= 5.26D-08 BMatP= 2.40D-07
 IDIUse=1 WtCom= 1.00D+00 WtEn= 0.00D+00
 Coeff-Com:  0.415D-01-0.798D-01-0.134D+00-0.202D-01 0.119D+01
 Coeff:      0.415D-01-0.798D-01-0.134D+00-0.202D-01 0.119D+01
 Gap=     0.346 Goal=   None    Shift=    0.000
 RMSDP=3.13D-06 MaxDP=3.71D-04 DE=-1.36D-06 OVMax= 2.42D-04

 Cycle   6  Pass 1  IDiag  1:
 RMSU=  1.58D-06    CP:  9.96D-01  1.24D+00  1.40D+00  1.37D+00  1.48D+00
 E= -2626.80930333346     Delta-E=       -0.000000318440 Rises=F Damp=F
 DIIS: error= 9.01D-07 at cycle   6 NSaved=   6.
 NSaved= 6 IEnMin= 6 EnMin= -2626.80930333346     IErMin= 6 ErrMin= 9.01D-07
 ErrMax= 9.01D-07  0.00D+00 EMaxC= 1.00D-01 BMatC= 1.13D-08 BMatP= 5.26D-08
 IDIUse=1 WtCom= 1.00D+00 WtEn= 0.00D+00
 Coeff-Com: -0.248D-01 0.684D-01 0.770D-01-0.431D+00 0.920D-01 0.122D+01
 Coeff:     -0.248D-01 0.684D-01 0.770D-01-0.431D+00 0.920D-01 0.122D+01
 Gap=     0.346 Goal=   None    Shift=    0.000
 RMSDP=1.85D-06 MaxDP=1.48D-04 DE=-3.18D-07 OVMax= 1.53D-04

 Cycle   7  Pass 1  IDiag  1:
 RMSU=  9.02D-07    CP:  9.96D-01  1.24D+00  1.42D+00  1.37D+00  1.78D+00
                    CP:  1.41D+00
 E= -2626.80930340332     Delta-E=       -0.000000069869 Rises=F Damp=F
 DIIS: error= 2.49D-07 at cycle   7 NSaved=   7.
 NSaved= 7 IEnMin= 7 EnMin= -2626.80930340332     IErMin= 7 ErrMin= 2.49D-07
 ErrMax= 2.49D-07  0.00D+00 EMaxC= 1.00D-01 BMatC= 1.13D-09 BMatP= 1.13D-08
 IDIUse=1 WtCom= 1.00D+00 WtEn= 0.00D+00
 Coeff-Com: -0.888D-02 0.201D-01 0.301D-01-0.705D-01-0.133D+00 0.221D+00
 Coeff-Com:  0.941D+00
 Coeff:     -0.888D-02 0.201D-01 0.301D-01-0.705D-01-0.133D+00 0.221D+00
 Coeff:      0.941D+00
 Gap=     0.346 Goal=   None    Shift=    0.000
 RMSDP=4.57D-07 MaxDP=4.55D-05 DE=-6.99D-08 OVMax= 2.84D-05

 Cycle   8  Pass 1  IDiag  1:
 RMSU=  2.53D-07    CP:  9.96D-01  1.24D+00  1.42D+00  1.38D+00  1.82D+00
                    CP:  1.57D+00  1.20D+00
 E= -2626.80930340818     Delta-E=       -0.000000004859 Rises=F Damp=F
 DIIS: error= 1.00D-07 at cycle   8 NSaved=   8.
 NSaved= 8 IEnMin= 8 EnMin= -2626.80930340818     IErMin= 8 ErrMin= 1.00D-07
 ErrMax= 1.00D-07  0.00D+00 EMaxC= 1.00D-01 BMatC= 1.50D-10 BMatP= 1.13D-09
 IDIUse=1 WtCom= 1.00D+00 WtEn= 0.00D+00
 Coeff-Com:  0.276D-02-0.855D-02-0.754D-02 0.563D-01-0.332D-01-0.150D+00
 Coeff-Com:  0.119D+00 0.102D+01
 Coeff:      0.276D-02-0.855D-02-0.754D-02 0.563D-01-0.332D-01-0.150D+00
 Coeff:      0.119D+00 0.102D+01
 Gap=     0.346 Goal=   None    Shift=    0.000
 RMSDP=1.72D-07 MaxDP=1.89D-05 DE=-4.86D-09 OVMax= 1.02D-05

 Cycle   9  Pass 1  IDiag  1:
 RMSU=  9.06D-08    CP:  9.96D-01  1.24D+00  1.43D+00  1.38D+00  1.82D+00
                    CP:  1.60D+00  1.30D+00  1.17D+00
 E= -2626.80930340903     Delta-E=       -0.000000000846 Rises=F Damp=F
 DIIS: error= 4.06D-08 at cycle   9 NSaved=   9.
 NSaved= 9 IEnMin= 9 EnMin= -2626.80930340903     IErMin= 9 ErrMin= 4.06D-08
 ErrMax= 4.06D-08  0.00D+00 EMaxC= 1.00D-01 BMatC= 2.23D-11 BMatP= 1.50D-10
 IDIUse=1 WtCom= 1.00D+00 WtEn= 0.00D+00
 Coeff-Com:  0.125D-02-0.317D-02-0.356D-02 0.126D-01 0.109D-01-0.370D-01
 Coeff-Com: -0.934D-01 0.699D-01 0.104D+01
 Coeff:      0.125D-02-0.317D-02-0.356D-02 0.126D-01 0.109D-01-0.370D-01
 Coeff:     -0.934D-01 0.699D-01 0.104D+01
 Gap=     0.346 Goal=   None    Shift=    0.000
 RMSDP=5.29D-08 MaxDP=6.79D-06 DE=-8.46D-10 OVMax= 3.29D-06

 Cycle  10  Pass 1  IDiag  1:
 RMSU=  3.75D-08    CP:  9.96D-01  1.24D+00  1.43D+00  1.38D+00  1.82D+00
                    CP:  1.61D+00  1.32D+00  1.25D+00  1.21D+00
 E= -2626.80930340893     Delta-E=        0.000000000104 Rises=F Damp=F
 DIIS: error= 2.62D-08 at cycle  10 NSaved=  10.
 NSaved=10 IEnMin= 9 EnMin= -2626.80930340903     IErMin=10 ErrMin= 2.62D-08
 ErrMax= 2.62D-08  0.00D+00 EMaxC= 1.00D-01 BMatC= 5.88D-12 BMatP= 2.23D-11
 IDIUse=1 WtCom= 1.00D+00 WtEn= 0.00D+00
 Coeff-Com: -0.574D-03 0.174D-02 0.185D-02-0.124D-01 0.779D-02 0.330D-01
 Coeff-Com: -0.281D-01-0.230D+00 0.854D-01 0.114D+01
 Coeff:     -0.574D-03 0.174D-02 0.185D-02-0.124D-01 0.779D-02 0.330D-01
 Coeff:     -0.281D-01-0.230D+00 0.854D-01 0.114D+01
 Gap=     0.346 Goal=   None    Shift=    0.000
 RMSDP=3.62D-08 MaxDP=2.70D-06 DE= 1.04D-10 OVMax= 2.49D-06

 Cycle  11  Pass 1  IDiag  1:
 RMSU=  2.88D-08    CP:  9.96D-01  1.24D+00  1.43D+00  1.38D+00  1.82D+00
                    CP:  1.61D+00  1.31D+00  1.25D+00  1.38D+00  1.35D+00
 E= -2626.80930340900     Delta-E=       -0.000000000071 Rises=F Damp=F
 DIIS: error= 9.73D-09 at cycle  11 NSaved=  11.
 NSaved=11 IEnMin= 9 EnMin= -2626.80930340903     IErMin=11 ErrMin= 9.73D-09
 ErrMax= 9.73D-09  0.00D+00 EMaxC= 1.00D-01 BMatC= 1.07D-12 BMatP= 5.88D-12
 IDIUse=1 WtCom= 1.00D+00 WtEn= 0.00D+00
 Coeff-Com: -0.303D-03 0.765D-03 0.939D-03-0.333D-02-0.249D-02 0.942D-02
 Coeff-Com:  0.226D-01-0.259D-01-0.226D+00 0.318D-02 0.122D+01
 Coeff:     -0.303D-03 0.765D-03 0.939D-03-0.333D-02-0.249D-02 0.942D-02
 Coeff:      0.226D-01-0.259D-01-0.226D+00 0.318D-02 0.122D+01
 Gap=     0.346 Goal=   None    Shift=    0.000
 RMSDP=6.83D-08 MaxDP=7.58D-06 DE=-7.09D-11 OVMax= 1.30D-06

 Cycle  12  Pass 1  IDiag  1:
 RMSU=  6.16D-08    CP:  9.96D-01  1.24D+00  1.43D+00  1.38D+00  1.82D+00
                    CP:  1.61D+00  1.32D+00  1.25D+00  1.40D+00  1.92D+00
                    CP:  1.62D+00
 E= -2626.80930340881     Delta-E=        0.000000000186 Rises=F Damp=F
 DIIS: error= 5.16D-09 at cycle  12 NSaved=  12.
 NSaved=12 IEnMin= 9 EnMin= -2626.80930340903     IErMin=12 ErrMin= 5.16D-09
 ErrMax= 5.16D-09  0.00D+00 EMaxC= 1.00D-01 BMatC= 1.61D-13 BMatP= 1.07D-12
 IDIUse=1 WtCom= 1.00D+00 WtEn= 0.00D+00
 Coeff-Com:  0.488D-04-0.167D-03-0.161D-03 0.141D-02-0.133D-02-0.366D-02
 Coeff-Com:  0.675D-02 0.275D-01-0.322D-01-0.171D+00 0.129D+00 0.104D+01
 Coeff:      0.488D-04-0.167D-03-0.161D-03 0.141D-02-0.133D-02-0.366D-02
 Coeff:      0.675D-02 0.275D-01-0.322D-01-0.171D+00 0.129D+00 0.104D+01
 Gap=     0.346 Goal=   None    Shift=    0.000
 RMSDP=6.30D-08 MaxDP=6.14D-06 DE= 1.86D-10 OVMax= 4.18D-07

 Cycle  13  Pass 1  IDiag  1:
 RMSU=  3.44D-08    CP:  9.96D-01  1.24D+00  1.43D+00  1.38D+00  1.82D+00
                    CP:  1.61D+00  1.33D+00  1.25D+00  1.41D+00  2.08D+00
                    CP:  2.85D+00  1.61D+00
 E= -2626.80930340871     Delta-E=        0.000000000104 Rises=F Damp=F
 DIIS: error= 8.46D-09 at cycle  13 NSaved=  13.
 NSaved=13 IEnMin= 9 EnMin= -2626.80930340903     IErMin=12 ErrMin= 5.16D-09
 ErrMax= 8.46D-09  0.00D+00 EMaxC= 1.00D-01 BMatC= 6.94D-14 BMatP= 1.61D-13
 IDIUse=1 WtCom= 1.00D+00 WtEn= 0.00D+00
 Coeff-Com:  0.535D-04-0.151D-03-0.172D-03 0.920D-03-0.237D-03-0.245D-02
 Coeff-Com:  0.120D-03 0.130D-01 0.164D-01-0.649D-01-0.955D-01 0.399D+00
 Coeff-Com:  0.734D+00
 Coeff:      0.535D-04-0.151D-03-0.172D-03 0.920D-03-0.237D-03-0.245D-02
 Coeff:      0.120D-03 0.130D-01 0.164D-01-0.649D-01-0.955D-01 0.399D+00
 Coeff:      0.734D+00
 Gap=     0.346 Goal=   None    Shift=    0.000
 RMSDP=9.29D-08 MaxDP=1.04D-05 DE= 1.04D-10 OVMax= 8.81D-08

 Cycle  14  Pass 1  IDiag  1:
 RMSU=  4.07D-08    CP:  9.96D-01  1.24D+00  1.43D+00  1.38D+00  1.82D+00
                    CP:  1.61D+00  1.33D+00  1.24D+00  1.40D+00  2.45D+00
                    CP:  3.00D+00  2.88D+00  1.61D+00
 E= -2626.80930340765     Delta-E=        0.000000001060 Rises=F Damp=F
 DIIS: error= 1.15D-08 at cycle  14 NSaved=  14.
 NSaved=14 IEnMin= 9 EnMin= -2626.80930340903     IErMin=12 ErrMin= 5.16D-09
 ErrMax= 1.15D-08  0.00D+00 EMaxC= 1.00D-01 BMatC= 9.34D-14 BMatP= 6.94D-14
 IDIUse=1 WtCom= 1.00D+00 WtEn= 0.00D+00
 Coeff-Com:  0.804D-04-0.224D-03-0.257D-03 0.132D-02-0.231D-03-0.355D-02
 Coeff-Com: -0.548D-03 0.182D-01 0.288D-01-0.858D-01-0.163D+00 0.525D+00
 Coeff-Com:  0.118D+01-0.502D+00
 Coeff:      0.804D-04-0.224D-03-0.257D-03 0.132D-02-0.231D-03-0.355D-02
 Coeff:     -0.548D-03 0.182D-01 0.288D-01-0.858D-01-0.163D+00 0.525D+00
 Coeff:      0.118D+01-0.502D+00
 Gap=     0.346 Goal=   None    Shift=    0.000
 RMSDP=5.36D-08 MaxDP=5.32D-06 DE= 1.06D-09 OVMax= 1.26D-08

 Cycle  15  Pass 1  IDiag  1:
 RMSU=  1.31D-08    CP:  9.96D-01  1.24D+00  1.43D+00  1.38D+00  1.82D+00
                    CP:  1.61D+00  1.33D+00  1.25D+00  1.39D+00  2.32D+00
                    CP:  2.84D+00  2.36D+00  8.00D-01  3.48D-01
 E= -2626.80930340896     Delta-E=       -0.000000001317 Rises=F Damp=F
 DIIS: error= 7.42D-09 at cycle  15 NSaved=  15.
 NSaved=15 IEnMin= 9 EnMin= -2626.80930340903     IErMin=12 ErrMin= 5.16D-09
 ErrMax= 7.42D-09  0.00D+00 EMaxC= 1.00D-01 BMatC= 5.14D-14 BMatP= 6.94D-14
 IDIUse=1 WtCom= 1.00D+00 WtEn= 0.00D+00
 Coeff-Com:  0.601D-04-0.159D-03-0.193D-03 0.842D-03 0.982D-04-0.227D-02
 Coeff-Com: -0.207D-02 0.934D-02 0.339D-01-0.356D-01-0.181D+00 0.213D+00
 Coeff-Com:  0.103D+01-0.144D+01 0.138D+01
 Coeff:      0.601D-04-0.159D-03-0.193D-03 0.842D-03 0.982D-04-0.227D-02
 Coeff:     -0.207D-02 0.934D-02 0.339D-01-0.356D-01-0.181D+00 0.213D+00
 Coeff:      0.103D+01-0.144D+01 0.138D+01
 Gap=     0.346 Goal=   None    Shift=    0.000
 RMSDP=1.11D-07 MaxDP=1.32D-05 DE=-1.32D-09 OVMax= 3.40D-08

 Cycle  16  Pass 1  IDiag  1:
 RMSU=  5.11D-08    CP:  9.96D-01  1.24D+00  1.43D+00  1.38D+00  1.82D+00
                    CP:  1.61D+00  1.34D+00  1.26D+00  1.41D+00  1.92D+00
                    CP:  2.47D+00  1.11D+00  3.46D-01 -9.71D-01  1.54D+00
 E= -2626.80930340789     Delta-E=        0.000000001077 Rises=F Damp=F
 DIIS: error= 4.03D-09 at cycle  16 NSaved=  16.
 NSaved=16 IEnMin= 9 EnMin= -2626.80930340903     IErMin=16 ErrMin= 4.03D-09
 ErrMax= 4.03D-09  0.00D+00 EMaxC= 1.00D-01 BMatC= 1.19D-14 BMatP= 5.14D-14
 IDIUse=1 WtCom= 1.00D+00 WtEn= 0.00D+00
 Large coefficients: NSaved= 16 BigCof=    0.00 CofMax=   10.00 Det=-8.02D-15
 Inversion failed.  Reducing to 15 matrices.
 Coeff-Com:  0.606D-05-0.315D-05-0.718D-04 0.115D-03 0.235D-03-0.734D-03
 Coeff-Com: -0.267D-02 0.568D-02 0.150D-01-0.266D-01-0.942D-01 0.103D-01
 Coeff-Com: -0.492D+00 0.549D+00 0.104D+01
 Coeff:      0.606D-05-0.315D-05-0.718D-04 0.115D-03 0.235D-03-0.734D-03
 Coeff:     -0.267D-02 0.568D-02 0.150D-01-0.266D-01-0.942D-01 0.103D-01
 Coeff:     -0.492D+00 0.549D+00 0.104D+01
 Gap=     0.346 Goal=   None    Shift=    0.000
 RMSDP=4.31D-08 MaxDP=2.89D-06 DE= 1.08D-09 OVMax= 5.12D-08

 Cycle  17  Pass 1  IDiag  1:
 RMSU=  2.58D-08    CP:  9.96D-01  1.24D+00  1.43D+00  1.38D+00  1.82D+00
                    CP:  1.61D+00  1.34D+00  1.27D+00  1.45D+00  1.86D+00
                    CP:  2.68D+00  8.58D-01  1.41D-01 -1.08D+00  2.97D+00
                    CP:  1.41D+00
 E= -2626.80930340810     Delta-E=       -0.000000000209 Rises=F Damp=F
 DIIS: error= 6.55D-09 at cycle  17 NSaved=  16.
 NSaved=16 IEnMin= 8 EnMin= -2626.80930340903     IErMin=15 ErrMin= 4.03D-09
 ErrMax= 6.55D-09  0.00D+00 EMaxC= 1.00D-01 BMatC= 1.18D-14 BMatP= 1.19D-14
 IDIUse=1 WtCom= 1.00D+00 WtEn= 0.00D+00
 Large coefficients: NSaved= 16 BigCof=    0.00 CofMax=   10.00 Det=-3.58D-15
 Inversion failed.  Reducing to 15 matrices.
 Coeff-Com: -0.286D-05-0.219D-05 0.141D-04 0.623D-04-0.182D-03-0.110D-02
 Coeff-Com:  0.109D-02 0.745D-02-0.312D-02-0.573D-01-0.101D+00-0.718D-01
 Coeff-Com:  0.128D+00 0.708D+00 0.391D+00
 Coeff:     -0.286D-05-0.219D-05 0.141D-04 0.623D-04-0.182D-03-0.110D-02
 Coeff:      0.109D-02 0.745D-02-0.312D-02-0.573D-01-0.101D+00-0.718D-01
 Coeff:      0.128D+00 0.708D+00 0.391D+00
 Gap=     0.346 Goal=   None    Shift=    0.000
 RMSDP=2.16D-08 MaxDP=1.60D-06 DE=-2.09D-10 OVMax= 9.75D-09

 Cycle  18  Pass 1  IDiag  1:
 RMSU=  1.11D-08    CP:  9.96D-01  1.24D+00  1.43D+00  1.38D+00  1.82D+00
                    CP:  1.61D+00  1.34D+00  1.27D+00  1.47D+00  1.87D+00
                    CP:  3.00D+00  9.68D-01  3.91D-01 -1.01D+00  3.00D+00
                    CP:  1.56D+00  1.28D+00
 E= -2626.80930340892     Delta-E=       -0.000000000824 Rises=F Damp=F
 DIIS: error= 5.56D-09 at cycle  18 NSaved=  16.
 NSaved=16 IEnMin= 7 EnMin= -2626.80930340903     IErMin=14 ErrMin= 4.03D-09
 ErrMax= 5.56D-09  0.00D+00 EMaxC= 1.00D-01 BMatC= 1.31D-14 BMatP= 1.18D-14
 IDIUse=1 WtCom= 1.00D+00 WtEn= 0.00D+00
 Large coefficients: NSaved= 16 BigCof=    0.00 CofMax=   10.00 Det=-3.41D-15
 Inversion failed.  Reducing to 15 matrices.
 Coeff-Com: -0.106D-05 0.290D-05 0.717D-04-0.157D-03-0.119D-02 0.106D-02
 Coeff-Com:  0.855D-02-0.240D-02-0.662D-01-0.115D+00-0.891D-01 0.154D+00
 Coeff-Com:  0.763D+00 0.510D+00-0.162D+00
 Coeff:     -0.106D-05 0.290D-05 0.717D-04-0.157D-03-0.119D-02 0.106D-02
 Coeff:      0.855D-02-0.240D-02-0.662D-01-0.115D+00-0.891D-01 0.154D+00
 Coeff:      0.763D+00 0.510D+00-0.162D+00
 Gap=     0.346 Goal=   None    Shift=    0.000
 RMSDP=8.12D-09 MaxDP=5.20D-07 DE=-8.24D-10 OVMax= 2.18D-09

 Error on total polarization charges =  0.02581
 SCF Done:  E(RHF) =  -2626.80930341     A.U. after   18 cycles
            NFock= 18  Conv=0.81D-08     -V/T= 2.0002
 KE= 2.626246112461D+03 PE=-2.651221392464D+04 EE= 1.106703376043D+04
 Leave Link  502 at Wed Oct 27 03:50:56 2021, MaxMem=  7864320000 cpu:          398283.8 elap:           12563.4
 (Enter /apps/gaussian/g16-c01-avx/g16/l508.exe)
 QCSCF skips out because SCF is already converged.
 Leave Link  508 at Wed Oct 27 03:50:56 2021, MaxMem=  7864320000 cpu:               0.8 elap:               0.0
 (Enter /apps/gaussian/g16-c01-avx/g16/l801.exe)
 ExpMin= 2.97D-02 ExpMax= 9.05D+03 ExpMxC= 3.09D+02 IAcc=3 IRadAn=         7 AccDes= 0.00D+00
 HarFok:  IExCor=  205 AccDes= 0.00D+00 IRadAn=         7 IDoV=-2 UseB2=F ITyADJ=14
 ICtDFT= 12500011 ScaDFX=  1.000000  1.000000  1.000000  1.000000
 GSVD:  LWork=       -4473 too small for GESVD, short by       20790 words or       20790 for optimal perf.
 Largest valence mixing into a core orbital is  1.13D-04
 Largest core mixing into a valence orbital is  4.30D-05
 Range of M.O.s used for correlation:    64  2069
 NBasis=  2097 NAE=   231 NBE=   231 NFC=    63 NFV=     0
 NROrb=   2006 NOA=   168 NOB=   168 NVA=  1838 NVB=  1838

 **** Warning!!: The largest alpha MO coefficient is  0.20635981D+03

 Leave Link  801 at Wed Oct 27 03:50:57 2021, MaxMem=  7864320000 cpu:              25.6 elap:               0.8
 (Enter /apps/gaussian/g16-c01-avx/g16/l906.exe)
 FulOut=F Deriv=F AODrv=F NAtomX=   135
   MMem=           0  MDisk=         168 MDiskD=         168
  W3Min=   686426832 MinDsk=   609600800 NBas6D=        2223
 NBas2D=     2474865    NTT=     2471976    LW2=     2000000
    MDV=  7840986283 MDiskM=       48976 NBas2p=     1720284
 Disk-based method using OVN memory for168 occupieds at a time.
 Estimated scratch disk usage=************ words.
 IMap=   1   2   3   4   5   6   7   8   9  10  11  12  13  14  15  16  17  18  19  20
 IMap=  21  22  23  24  25  26  27  28  29  30  31  32  33  34  35  36  37  38  39  40
 IMap=  41  42  43  44  45  46  47  48  49  50  51  52  53  54  55  56  57  58  59  60
 IMap=  61  62  63  64  65  66  67  68  69  70  71  72  73  74  75  76  77  78  79  80
 IMap=  81  82  83  84  85  86  87  88  89  90  91  92  93  94  95  96  97  98  99 100
 IMap= 101 102 103 104 105 106 107 108 109 110 111 112 113 114 115 116 117 118 119 120
 IMap= 121 122 123 124 125 126 127 128 129 130 131 132 133 134 135 136 137 138 139 140
 IMap= 141 142 143 144 145 146 147 148 149 150 151 152 153 154 155 156 157 158 159 160
 IMap= 161 162 163 164 165 166 167 168
 Actual    scratch disk usage=************ words.
 JobTyp=1 Pass  1:  I=   1 to 168 NPSUse= 32 ParTrn=T ParDer=T DoDerP=F.
