 Entering Gaussian System, Link 0=g16
 Initial command:
 /apps/gaussian/g16-c01-avx/g16/l1.exe "/rds/general/ephemeral/user/atarzia/ephemeral/Gau-93141.inp" -scrdir="/rds/general/ephemeral/user/atarzia/ephemeral/"
 Entering Link 1 = /apps/gaussian/g16-c01-avx/g16/l1.exe PID=     93142.
  
 Copyright (c) 1988-2019, Gaussian, Inc.  All Rights Reserved.
  
 This is part of the Gaussian(R) 16 program.  It is based on
 the Gaussian(R) 09 system (copyright 2009, Gaussian, Inc.),
 the Gaussian(R) 03 system (copyright 2003, Gaussian, Inc.),
 the Gaussian(R) 98 system (copyright 1998, Gaussian, Inc.),
 the Gaussian(R) 94 system (copyright 1995, Gaussian, Inc.),
 the Gaussian 92(TM) system (copyright 1992, Gaussian, Inc.),
 the Gaussian 90(TM) system (copyright 1990, Gaussian, Inc.),
 the Gaussian 88(TM) system (copyright 1988, Gaussian, Inc.),
 the Gaussian 86(TM) system (copyright 1986, Carnegie Mellon
 University), and the Gaussian 82(TM) system (copyright 1983,
 Carnegie Mellon University). Gaussian is a federally registered
 trademark of Gaussian, Inc.
  
 This software contains proprietary and confidential information,
 including trade secrets, belonging to Gaussian, Inc.
  
 This software is provided under written license and may be
 used, copied, transmitted, or stored only in accord with that
 written license.
  
 The following legend is applicable only to US Government
 contracts under FAR:
  
                    RESTRICTED RIGHTS LEGEND
  
 Use, reproduction and disclosure by the US Government is
 subject to restrictions as set forth in subparagraphs (a)
 and (c) of the Commercial Computer Software - Restricted
 Rights clause in FAR 52.227-19.
  
 Gaussian, Inc.
 340 Quinnipiac St., Bldg. 40, Wallingford CT 06492
  
  
 ---------------------------------------------------------------
 Warning -- This program may not be used in any manner that
 competes with the business of Gaussian, Inc. or will provide
 assistance to any competitor of Gaussian, Inc.  The licensee
 of this program is prohibited from giving any competitor of
 Gaussian, Inc. access to this program.  By using this program,
 the user acknowledges that Gaussian, Inc. is engaged in the
 business of creating and licensing software in the field of
 computational chemistry and represents and warrants to the
 licensee that it is not a competitor of Gaussian, Inc. and that
 it will not use this program in any manner prohibited above.
 ---------------------------------------------------------------
  

 Cite this work as:
 Gaussian 16, Revision C.01,
 M. J. Frisch, G. W. Trucks, H. B. Schlegel, G. E. Scuseria, 
 M. A. Robb, J. R. Cheeseman, G. Scalmani, V. Barone, 
 G. A. Petersson, H. Nakatsuji, X. Li, M. Caricato, A. V. Marenich, 
 J. Bloino, B. G. Janesko, R. Gomperts, B. Mennucci, H. P. Hratchian, 
 J. V. Ortiz, A. F. Izmaylov, J. L. Sonnenberg, D. Williams-Young, 
 F. Ding, F. Lipparini, F. Egidi, J. Goings, B. Peng, A. Petrone, 
 T. Henderson, D. Ranasinghe, V. G. Zakrzewski, J. Gao, N. Rega, 
 G. Zheng, W. Liang, M. Hada, M. Ehara, K. Toyota, R. Fukuda, 
 J. Hasegawa, M. Ishida, T. Nakajima, Y. Honda, O. Kitao, H. Nakai, 
 T. Vreven, K. Throssell, J. A. Montgomery, Jr., J. E. Peralta, 
 F. Ogliaro, M. J. Bearpark, J. J. Heyd, E. N. Brothers, K. N. Kudin, 
 V. N. Staroverov, T. A. Keith, R. Kobayashi, J. Normand, 
 K. Raghavachari, A. P. Rendell, J. C. Burant, S. S. Iyengar, 
 J. Tomasi, M. Cossi, J. M. Millam, M. Klene, C. Adamo, R. Cammi, 
 J. W. Ochterski, R. L. Martin, K. Morokuma, O. Farkas, 
 J. B. Foresman, and D. J. Fox, Gaussian, Inc., Wallingford CT, 2019.
 
 ******************************************
 Gaussian 16:  ES64L-G16RevC.01  3-Jul-2019
                18-Oct-2021 
 ******************************************
 %chk=_3_alde1_4_ami3_1_opt_cfm.chk
 %mem=60000mb
 %nprocshared=32
 Will use up to   32 processors via shared memory.
 ----------------------------------------------------------------------
 #P PBE1PBE/Def2TZVP SP SCF=(YQC,MaxCycle=900) int=(Grid=Superfinegrid)
  EmpiricalDispersion=GD3 SCRF=(PCM,Solvent=Chloroform)
 ----------------------------------------------------------------------
 1/38=1,172=1/1;
 2/12=2,17=6,18=5,40=1/2;
 3/5=44,7=101,11=2,25=1,30=1,70=2201,72=7,74=-13,75=-7,124=31/1,2,3;
 4//1;
 5/5=2,7=900,8=4,13=1,38=1,53=7/8,2,8;
 6/7=2,8=2,9=2,10=2,28=1/1;
 99/5=1,9=1/99;
 Leave Link    1 at Mon Oct 18 02:41:18 2021, MaxMem=  7864320000 cpu:               5.7 elap:               0.2
 (Enter /apps/gaussian/g16-c01-avx/g16/l101.exe)
 -------------------------
 _3_alde1_4_ami3_1_opt_cfm
 -------------------------
 Symbolic Z-matrix:
 Charge =  0 Multiplicity = 1
 C                    -5.3021   -1.3946   -0.5137 
 C                    -5.554    -0.917     0.8357 
 C                    -4.6503   -2.6017   -0.7621 
 C                    -4.3466   -2.9816   -2.0651 
 H                    -4.384    -3.2261    0.0769 
 C                    -4.6634   -2.1307   -3.1258 
 C                    -5.2911   -0.9137   -2.8905 
 H                    -4.3881   -2.4348   -4.1242 
 C                    -5.6337   -0.5717   -1.582 
 C                    -5.4604    0.0712   -3.9509 
 H                    -6.1347    0.37     -1.4189 
 C                    -3.6588   -4.2401   -2.3113 
 H                    -5.1005   -0.2267   -4.9447 
 H                    -6.1126    0.0299    0.8945 
 H                    -3.3337   -4.7901   -1.4145 
 C                     1.9642   -2.3664   -1.3295 
 C                     2.6494   -2.8841   -0.136 
 C                     2.2227   -1.0694   -1.7704 
 C                     1.5605   -0.5586   -2.882 
 H                     2.9437   -0.4577   -1.2509 
 C                     0.6345   -1.3599   -3.547 
 C                     0.3992   -2.6729   -3.1443 
 H                     0.1123   -0.9651   -4.4078 
 C                     1.0647   -3.1687   -2.0255 
 C                    -0.4911   -3.5252   -3.9214 
 H                     0.8695   -4.1852   -1.7199 
 C                     1.8416    0.786    -3.3693 
 H                    -1.0148   -3.0348   -4.7561 
 H                     2.4046   -3.9411    0.0911 
 H                     1.1062    1.2031   -4.0742 
 C                    -2.1162    1.5195    0.5934 
 C                    -2.4628    0.7669    1.7926 
 C                    -3.0934    1.8628   -0.3375 
 C                    -2.745     2.4612   -1.5463 
 H                    -4.1186    1.6051   -0.123 
 C                    -1.4144    2.7901   -1.7875 
 C                    -0.4314    2.4882   -0.849 
 H                    -1.137     3.264    -2.7147 
 C                    -0.7852    1.8224    0.3224 
 C                     0.9661    2.8033   -1.1019 
 H                    -0.0179    1.5476    1.0334 
 C                    -3.767     2.6053   -2.5779 
 H                     1.6875    2.3684   -0.3924 
 H                    -4.7934    2.4292   -2.2395 
 C                    -3.91     -0.0912    3.4011 
 C                    -5.2537   -0.8014    3.1178 
 N                    -3.6211    0.7624    2.2886 
 N                    -5.1138   -1.4896    1.8708 
 O                     3.4044   -2.258     0.5619 
 C                    -2.7409   -5.8941   -3.6787 
 C                    -1.4653   -5.5688   -4.4873 
 N                    -3.4481   -4.6695   -3.4779 
 N                    -0.6125   -4.7561   -3.6776 
 C                    -5.8542    2.3409   -4.5469 
 C                    -4.382     2.7242   -4.8697 
 N                    -5.8995    1.2204   -3.6587 
 N                    -3.456     2.7864   -3.7863 
 C                     3.0931    2.7445   -3.4892 
 C                     2.7229    3.7027   -2.3262 
 N                     2.8815    1.4112   -3.0263 
 N                     1.3299    3.5253   -2.0703 
 H                    -1.6399    0.1718    2.2219 
 C                     4.561     2.9351   -3.8665 
 C                    -0.724    -6.8595   -4.8391 
 C                    -5.571    -1.759     4.2618 
 C                    -4.365     4.0431   -5.6486 
 H                    -3.9727    1.9397   -5.5248 
 C                    -5.1504    3.9041   -6.9487 
 H                    -3.329     4.316    -5.8532 
 H                    -4.8032    4.8262   -5.026 
 C                    -6.5827    3.4536   -6.6726 
 H                    -4.6575    3.1705   -7.5912 
 H                    -5.1582    4.8592   -7.4774 
 C                    -6.5993    2.1547   -5.8735 
 H                    -7.1041    4.2295   -6.1072 
 H                    -7.1155    3.3122   -7.6152 
 H                    -6.1279    1.3573   -6.4524 
 H                    -7.6279    1.8536   -5.662 
 H                    -6.3201    3.1729   -3.9995 
 H                    -1.7816   -5.0436   -5.406 
 C                    -1.6197   -7.8107   -5.623 
 H                    -0.3955   -7.33     -3.9109 
 H                     0.1656   -6.6072   -5.4198 
 C                    -2.8762   -8.1349   -4.8222 
 H                    -1.0719   -8.7276   -5.8487 
 H                    -1.9029   -7.3465   -6.5705 
 C                    -3.6271   -6.8554   -4.4749 
 H                    -2.5969   -8.654    -3.9025 
 H                    -3.5273   -8.7964   -5.397 
 H                    -4.5162   -7.083    -3.883 
 H                    -3.9514   -6.3495   -5.3859 
 H                    -2.4379   -6.361    -2.724 
 H                    -6.0294   -0.0171    3.0562 
 C                    -5.6736   -0.9879    5.5742 
 H                    -4.7823   -2.5107    4.3218 
 H                    -6.5102   -2.2733    4.0494 
 C                    -4.3853   -0.2188    5.8558 
 H                    -6.5076   -0.2847    5.5137 
 H                    -5.8781   -1.6796    6.3938 
 C                    -4.04      0.7118    4.6973 
 H                    -3.5668   -0.9272    6.0038 
 H                    -4.4937    0.3638    6.773 
 H                    -3.0976    1.2287    4.893 
 H                    -4.8179    1.4666    4.5698 
 H                    -3.1253   -0.8577    3.5309 
 H                     2.4384    2.9937   -4.343 
 C                     4.8369    4.3805   -4.2639 
 H                     4.8035    2.2608   -4.6903 
 H                     5.1765    2.6533   -3.0108 
 C                     4.4654    5.3269   -3.1268 
 H                     4.2498    4.6315   -5.1505 
 H                     5.8926    4.4959   -4.5168 
 C                     3.0024    5.1459   -2.7393 
 H                     4.6399    6.3614   -3.4291 
 H                     5.0984    5.1188   -2.2611 
 H                     2.744     5.8053   -1.9084 
 H                     2.3535    5.3963   -3.58 
 H                     3.3435    3.4231   -1.4562 
 
 ITRead=  0  0  0  0  0  0  0  0  0  0  0  0  0  0  0  0  0  0  0  0
 ITRead=  0  0  0  0  0  0  0  0  0  0  0  0  0  0  0  0  0  0  0  0
 ITRead=  0  0  0  0  0  0  0  0  0  0  0  0  0  0  0  0  0  0  0  0
 ITRead=  0  0  0  0  0  0  0  0  0  0  0  0  0  0  0  0  0  0  0  0
 ITRead=  0  0  0  0  0  0  0  0  0  0  0  0  0  0  0  0  0  0  0  0
 ITRead=  0  0  0  0  0  0  0  0  0  0  0  0  0  0  0  0  0  0
 MicOpt= -1 -1 -1 -1 -1 -1 -1 -1 -1 -1 -1 -1 -1 -1 -1 -1 -1 -1 -1 -1
 MicOpt= -1 -1 -1 -1 -1 -1 -1 -1 -1 -1 -1 -1 -1 -1 -1 -1 -1 -1 -1 -1
 MicOpt= -1 -1 -1 -1 -1 -1 -1 -1 -1 -1 -1 -1 -1 -1 -1 -1 -1 -1 -1 -1
 MicOpt= -1 -1 -1 -1 -1 -1 -1 -1 -1 -1 -1 -1 -1 -1 -1 -1 -1 -1 -1 -1
 MicOpt= -1 -1 -1 -1 -1 -1 -1 -1 -1 -1 -1 -1 -1 -1 -1 -1 -1 -1 -1 -1
 MicOpt= -1 -1 -1 -1 -1 -1 -1 -1 -1 -1 -1 -1 -1 -1 -1 -1 -1 -1
 NAtoms=    118 NQM=      118 NQMF=       0 NMMI=      0 NMMIF=      0
                NMic=       0 NMicF=      0.
                    Isotopes and Nuclear Properties:
 (Nuclear quadrupole moments (NQMom) in fm**2, nuclear magnetic moments (NMagM)
  in nuclear magnetons)

  Atom         1           2           3           4           5           6           7           8           9          10
 IAtWgt=          12          12          12          12           1          12          12           1          12          12
 AtmWgt=  12.0000000  12.0000000  12.0000000  12.0000000   1.0078250  12.0000000  12.0000000   1.0078250  12.0000000  12.0000000
 NucSpn=           0           0           0           0           1           0           0           1           0           0
 AtZEff=  -0.0000000  -0.0000000  -0.0000000  -0.0000000  -0.0000000  -0.0000000  -0.0000000  -0.0000000  -0.0000000  -0.0000000
 NQMom=    0.0000000   0.0000000   0.0000000   0.0000000   0.0000000   0.0000000   0.0000000   0.0000000   0.0000000   0.0000000
 NMagM=    0.0000000   0.0000000   0.0000000   0.0000000   2.7928460   0.0000000   0.0000000   2.7928460   0.0000000   0.0000000
 AtZNuc=   6.0000000   6.0000000   6.0000000   6.0000000   1.0000000   6.0000000   6.0000000   1.0000000   6.0000000   6.0000000

  Atom        11          12          13          14          15          16          17          18          19          20
 IAtWgt=           1          12           1           1           1          12          12          12          12           1
 AtmWgt=   1.0078250  12.0000000   1.0078250   1.0078250   1.0078250  12.0000000  12.0000000  12.0000000  12.0000000   1.0078250
 NucSpn=           1           0           1           1           1           0           0           0           0           1
 AtZEff=  -0.0000000  -0.0000000  -0.0000000  -0.0000000  -0.0000000  -0.0000000  -0.0000000  -0.0000000  -0.0000000  -0.0000000
 NQMom=    0.0000000   0.0000000   0.0000000   0.0000000   0.0000000   0.0000000   0.0000000   0.0000000   0.0000000   0.0000000
 NMagM=    2.7928460   0.0000000   2.7928460   2.7928460   2.7928460   0.0000000   0.0000000   0.0000000   0.0000000   2.7928460
 AtZNuc=   1.0000000   6.0000000   1.0000000   1.0000000   1.0000000   6.0000000   6.0000000   6.0000000   6.0000000   1.0000000

  Atom        21          22          23          24          25          26          27          28          29          30
 IAtWgt=          12          12           1          12          12           1          12           1           1           1
 AtmWgt=  12.0000000  12.0000000   1.0078250  12.0000000  12.0000000   1.0078250  12.0000000   1.0078250   1.0078250   1.0078250
 NucSpn=           0           0           1           0           0           1           0           1           1           1
 AtZEff=  -0.0000000  -0.0000000  -0.0000000  -0.0000000  -0.0000000  -0.0000000  -0.0000000  -0.0000000  -0.0000000  -0.0000000
 NQMom=    0.0000000   0.0000000   0.0000000   0.0000000   0.0000000   0.0000000   0.0000000   0.0000000   0.0000000   0.0000000
 NMagM=    0.0000000   0.0000000   2.7928460   0.0000000   0.0000000   2.7928460   0.0000000   2.7928460   2.7928460   2.7928460
 AtZNuc=   6.0000000   6.0000000   1.0000000   6.0000000   6.0000000   1.0000000   6.0000000   1.0000000   1.0000000   1.0000000

  Atom        31          32          33          34          35          36          37          38          39          40
 IAtWgt=          12          12          12          12           1          12          12           1          12          12
 AtmWgt=  12.0000000  12.0000000  12.0000000  12.0000000   1.0078250  12.0000000  12.0000000   1.0078250  12.0000000  12.0000000
 NucSpn=           0           0           0           0           1           0           0           1           0           0
 AtZEff=  -0.0000000  -0.0000000  -0.0000000  -0.0000000  -0.0000000  -0.0000000  -0.0000000  -0.0000000  -0.0000000  -0.0000000
 NQMom=    0.0000000   0.0000000   0.0000000   0.0000000   0.0000000   0.0000000   0.0000000   0.0000000   0.0000000   0.0000000
 NMagM=    0.0000000   0.0000000   0.0000000   0.0000000   2.7928460   0.0000000   0.0000000   2.7928460   0.0000000   0.0000000
 AtZNuc=   6.0000000   6.0000000   6.0000000   6.0000000   1.0000000   6.0000000   6.0000000   1.0000000   6.0000000   6.0000000

  Atom        41          42          43          44          45          46          47          48          49          50
 IAtWgt=           1          12           1           1          12          12          14          14          16          12
 AtmWgt=   1.0078250  12.0000000   1.0078250   1.0078250  12.0000000  12.0000000  14.0030740  14.0030740  15.9949146  12.0000000
 NucSpn=           1           0           1           1           0           0           2           2           0           0
 AtZEff=  -0.0000000  -0.0000000  -0.0000000  -0.0000000  -0.0000000  -0.0000000  -0.0000000  -0.0000000  -0.0000000  -0.0000000
 NQMom=    0.0000000   0.0000000   0.0000000   0.0000000   0.0000000   0.0000000   2.0440000   2.0440000   0.0000000   0.0000000
 NMagM=    2.7928460   0.0000000   2.7928460   2.7928460   0.0000000   0.0000000   0.4037610   0.4037610   0.0000000   0.0000000
 AtZNuc=   1.0000000   6.0000000   1.0000000   1.0000000   6.0000000   6.0000000   7.0000000   7.0000000   8.0000000   6.0000000

  Atom        51          52          53          54          55          56          57          58          59          60
 IAtWgt=          12          14          14          12          12          14          14          12          12          14
 AtmWgt=  12.0000000  14.0030740  14.0030740  12.0000000  12.0000000  14.0030740  14.0030740  12.0000000  12.0000000  14.0030740
 NucSpn=           0           2           2           0           0           2           2           0           0           2
 AtZEff=  -0.0000000  -0.0000000  -0.0000000  -0.0000000  -0.0000000  -0.0000000  -0.0000000  -0.0000000  -0.0000000  -0.0000000
 NQMom=    0.0000000   2.0440000   2.0440000   0.0000000   0.0000000   2.0440000   2.0440000   0.0000000   0.0000000   2.0440000
 NMagM=    0.0000000   0.4037610   0.4037610   0.0000000   0.0000000   0.4037610   0.4037610   0.0000000   0.0000000   0.4037610
 AtZNuc=   6.0000000   7.0000000   7.0000000   6.0000000   6.0000000   7.0000000   7.0000000   6.0000000   6.0000000   7.0000000

  Atom        61          62          63          64          65          66          67          68          69          70
 IAtWgt=          14           1          12          12          12          12           1          12           1           1
 AtmWgt=  14.0030740   1.0078250  12.0000000  12.0000000  12.0000000  12.0000000   1.0078250  12.0000000   1.0078250   1.0078250
 NucSpn=           2           1           0           0           0           0           1           0           1           1
 AtZEff=  -0.0000000  -0.0000000  -0.0000000  -0.0000000  -0.0000000  -0.0000000  -0.0000000  -0.0000000  -0.0000000  -0.0000000
 NQMom=    2.0440000   0.0000000   0.0000000   0.0000000   0.0000000   0.0000000   0.0000000   0.0000000   0.0000000   0.0000000
 NMagM=    0.4037610   2.7928460   0.0000000   0.0000000   0.0000000   0.0000000   2.7928460   0.0000000   2.7928460   2.7928460
 AtZNuc=   7.0000000   1.0000000   6.0000000   6.0000000   6.0000000   6.0000000   1.0000000   6.0000000   1.0000000   1.0000000

  Atom        71          72          73          74          75          76          77          78          79          80
 IAtWgt=          12           1           1          12           1           1           1           1           1           1
 AtmWgt=  12.0000000   1.0078250   1.0078250  12.0000000   1.0078250   1.0078250   1.0078250   1.0078250   1.0078250   1.0078250
 NucSpn=           0           1           1           0           1           1           1           1           1           1
 AtZEff=  -0.0000000  -0.0000000  -0.0000000  -0.0000000  -0.0000000  -0.0000000  -0.0000000  -0.0000000  -0.0000000  -0.0000000
 NQMom=    0.0000000   0.0000000   0.0000000   0.0000000   0.0000000   0.0000000   0.0000000   0.0000000   0.0000000   0.0000000
 NMagM=    0.0000000   2.7928460   2.7928460   0.0000000   2.7928460   2.7928460   2.7928460   2.7928460   2.7928460   2.7928460
 AtZNuc=   6.0000000   1.0000000   1.0000000   6.0000000   1.0000000   1.0000000   1.0000000   1.0000000   1.0000000   1.0000000

  Atom        81          82          83          84          85          86          87          88          89          90
 IAtWgt=          12           1           1          12           1           1          12           1           1           1
 AtmWgt=  12.0000000   1.0078250   1.0078250  12.0000000   1.0078250   1.0078250  12.0000000   1.0078250   1.0078250   1.0078250
 NucSpn=           0           1           1           0           1           1           0           1           1           1
 AtZEff=  -0.0000000  -0.0000000  -0.0000000  -0.0000000  -0.0000000  -0.0000000  -0.0000000  -0.0000000  -0.0000000  -0.0000000
 NQMom=    0.0000000   0.0000000   0.0000000   0.0000000   0.0000000   0.0000000   0.0000000   0.0000000   0.0000000   0.0000000
 NMagM=    0.0000000   2.7928460   2.7928460   0.0000000   2.7928460   2.7928460   0.0000000   2.7928460   2.7928460   2.7928460
 AtZNuc=   6.0000000   1.0000000   1.0000000   6.0000000   1.0000000   1.0000000   6.0000000   1.0000000   1.0000000   1.0000000

  Atom        91          92          93          94          95          96          97          98          99         100
 IAtWgt=           1           1           1          12           1           1          12           1           1          12
 AtmWgt=   1.0078250   1.0078250   1.0078250  12.0000000   1.0078250   1.0078250  12.0000000   1.0078250   1.0078250  12.0000000
 NucSpn=           1           1           1           0           1           1           0           1           1           0
 AtZEff=  -0.0000000  -0.0000000  -0.0000000  -0.0000000  -0.0000000  -0.0000000  -0.0000000  -0.0000000  -0.0000000  -0.0000000
 NQMom=    0.0000000   0.0000000   0.0000000   0.0000000   0.0000000   0.0000000   0.0000000   0.0000000   0.0000000   0.0000000
 NMagM=    2.7928460   2.7928460   2.7928460   0.0000000   2.7928460   2.7928460   0.0000000   2.7928460   2.7928460   0.0000000
 AtZNuc=   1.0000000   1.0000000   1.0000000   6.0000000   1.0000000   1.0000000   6.0000000   1.0000000   1.0000000   6.0000000

  Atom       101         102         103         104         105         106         107         108         109         110
 IAtWgt=           1           1           1           1           1           1          12           1           1          12
 AtmWgt=   1.0078250   1.0078250   1.0078250   1.0078250   1.0078250   1.0078250  12.0000000   1.0078250   1.0078250  12.0000000
 NucSpn=           1           1           1           1           1           1           0           1           1           0
 AtZEff=  -0.0000000  -0.0000000  -0.0000000  -0.0000000  -0.0000000  -0.0000000  -0.0000000  -0.0000000  -0.0000000  -0.0000000
 NQMom=    0.0000000   0.0000000   0.0000000   0.0000000   0.0000000   0.0000000   0.0000000   0.0000000   0.0000000   0.0000000
 NMagM=    2.7928460   2.7928460   2.7928460   2.7928460   2.7928460   2.7928460   0.0000000   2.7928460   2.7928460   0.0000000
 AtZNuc=   1.0000000   1.0000000   1.0000000   1.0000000   1.0000000   1.0000000   6.0000000   1.0000000   1.0000000   6.0000000

  Atom       111         112         113         114         115         116         117         118
 IAtWgt=           1           1          12           1           1           1           1           1
 AtmWgt=   1.0078250   1.0078250  12.0000000   1.0078250   1.0078250   1.0078250   1.0078250   1.0078250
 NucSpn=           1           1           0           1           1           1           1           1
 AtZEff=  -0.0000000  -0.0000000  -0.0000000  -0.0000000  -0.0000000  -0.0000000  -0.0000000  -0.0000000
 NQMom=    0.0000000   0.0000000   0.0000000   0.0000000   0.0000000   0.0000000   0.0000000   0.0000000
 NMagM=    2.7928460   2.7928460   0.0000000   2.7928460   2.7928460   2.7928460   2.7928460   2.7928460
 AtZNuc=   1.0000000   1.0000000   6.0000000   1.0000000   1.0000000   1.0000000   1.0000000   1.0000000
 Leave Link  101 at Mon Oct 18 02:41:18 2021, MaxMem=  7864320000 cpu:               3.0 elap:               0.1
 (Enter /apps/gaussian/g16-c01-avx/g16/l202.exe)
 Stoichiometry    C51H58N8O
 Framework group  C1[X(C51H58N8O)]
 Deg. of freedom   348
 Full point group                 C1      NOp   1
 Largest Abelian subgroup         C1      NOp   1
 Largest concise Abelian subgroup C1      NOp   1
                         Standard orientation:                         
 ---------------------------------------------------------------------
 Center     Atomic      Atomic             Coordinates (Angstroms)
 Number     Number       Type             X           Y           Z
 ---------------------------------------------------------------------
      1          6           0       -3.415786   -1.635382    0.544088
      2          6           0       -3.594363   -2.874555   -0.194150
      3          6           0       -3.736992   -0.394367   -0.003949
      4          6           0       -3.467426    0.775407    0.698424
      5          1           0       -4.191140   -0.364782   -0.982512
      6          6           0       -2.837472    0.706138    1.942546
      7          6           0       -2.489747   -0.522783    2.489631
      8          1           0       -2.610720    1.630155    2.452296
      9          6           0       -2.813289   -1.688161    1.794128
     10          6           0       -1.667031   -0.614982    3.688705
     11          1           0       -2.549984   -2.634549    2.240696
     12          6           0       -3.799834    2.065291    0.112583
     13          1           0       -1.379308    0.340055    4.148086
     14          1           0       -3.341057   -3.787592    0.366484
     15          1           0       -4.177020    2.037213   -0.921527
     16          6           0        1.088407    2.752603   -3.311670
     17          6           0        0.906190    2.686335   -4.769189
     18          6           0        2.264499    2.273369   -2.736720
     19          6           0        2.437432    2.305360   -1.356810
     20          1           0        3.048762    1.879097   -3.363919
     21          6           0        1.418874    2.820799   -0.557657
     22          6           0        0.257126    3.343953   -1.121706
     23          1           0        1.545841    2.841859    0.516109
     24          6           0        0.094961    3.299177   -2.504500
     25          6           0       -0.744265    3.976457   -0.273125
     26          1           0       -0.811831    3.702054   -2.928982
     27          6           0        3.673135    1.832547   -0.745327
     28          1           0       -0.559175    3.917821    0.810287
     29          1           0       -0.042882    3.140949   -5.117524
     30          1           0        3.631007    1.649781    0.339335
     31          6           0        0.488826   -2.804299   -1.260142
     32          6           0       -0.561630   -3.180412   -2.198065
     33          6           0        0.286645   -2.910816    0.113586
     34          6           0        1.234879   -2.425937    1.011587
     35          1           0       -0.644425   -3.327901    0.463733
     36          6           0        2.430278   -1.903239    0.527172
     37          6           0        2.662957   -1.826124   -0.843276
     38          1           0        3.174790   -1.536642    1.214587
     39          6           0        1.674032   -2.246306   -1.729908
     40          6           0        3.897532   -1.257296   -1.361458
     41          1           0        1.834128   -2.147226   -2.794961
     42          6           0        0.890279   -2.360062    2.428047
     43          1           0        3.916730   -1.071765   -2.446887
     44          1           0       -0.016285   -2.906123    2.709086
     45          6           0       -2.538493   -4.225158   -2.844993
     46          6           0       -3.874682   -4.186241   -2.068297
     47          7           0       -1.479644   -3.993857   -1.909530
     48          7           0       -3.942588   -2.919104   -1.406517
     49          8           0        1.679418    2.190683   -5.547352
     50          6           0       -3.968727    4.393222    0.128554
     51          6           0       -2.672930    5.234188    0.106314
     52          7           0       -3.661611    3.144363    0.749947
     53          7           0       -1.732433    4.591571   -0.757325
     54          6           0       -0.231046   -1.937949    5.048681
     55          6           0        1.118727   -1.338917    4.561069
     56          7           0       -1.250948   -1.748648    4.063575
     57          7           0        1.526438   -1.615602    3.222294
     58          6           0        5.902826    1.166981   -0.788341
     59          6           0        6.019341   -0.331835   -1.172711
     60          7           0        4.728448    1.678075   -1.417911
     61          7           0        4.881606   -0.991710   -0.618158
     62          1           0       -0.513593   -2.675090   -3.176813
     63          6           0        7.130899    1.924509   -1.289741
     64          6           0       -2.964705    6.632748   -0.439665
     65          6           0       -5.032128   -4.380237   -3.042512
     66          6           0        2.228380   -1.737980    5.538766
     67          1           0        1.022414   -0.242520    4.588628
     68          6           0        1.917764   -1.217376    6.938381
     69          1           0        3.174816   -1.332073    5.179420
     70          1           0        2.312015   -2.826888    5.552153
     71          6           0        0.560719   -1.725974    7.418405
     72          1           0        1.910436   -0.124833    6.923450
     73          1           0        2.698829   -1.536585    7.631088
     74          6           0       -0.539935   -1.352110    6.431104
     75          1           0        0.596677   -2.813045    7.521064
     76          1           0        0.332688   -1.305196    8.399889
     77          1           0       -0.621499   -0.265081    6.361072
     78          1           0       -1.502373   -1.740153    6.772492
     79          1           0       -0.114174   -3.026543    5.149869
     80          1           0       -2.301324    5.295787    1.144584
     81          6           0       -4.035982    7.332462    0.387575
     82          1           0       -3.292778    6.534659   -1.475804
     83          1           0       -2.039407    7.212451   -0.434790
     84          6           0       -5.316031    6.504001    0.405076
     85          1           0       -4.234762    8.320941   -0.030905
     86          1           0       -3.676475    7.466597    1.410416
     87          6           0       -5.037393    5.111265    0.956653
     88          1           0       -5.709000    6.421188   -0.610817
     89          1           0       -6.072979    6.995771    1.019161
     90          1           0       -5.948170    4.508695    0.950369
     91          1           0       -4.686411    5.177451    1.987894
     92          1           0       -4.318328    4.265422   -0.911976
     93          1           0       -3.851628   -5.016488   -1.339743
     94          6           0       -4.898010   -5.724861   -3.750690
     95          1           0       -5.023522   -3.564814   -3.767572
     96          1           0       -5.974799   -4.332544   -2.494048
     97          6           0       -3.558863   -5.826606   -4.476542
     98          1           0       -4.970758   -6.528128   -3.013685
     99          1           0       -5.715508   -5.849884   -4.463487
    100          6           0       -2.397208   -5.593473   -3.515512
    101          1           0       -3.521947   -5.079346   -5.272730
    102          1           0       -3.460235   -6.811723   -4.937243
    103          1           0       -1.446430   -5.631434   -4.052338
    104          1           0       -2.379589   -6.365605   -2.744403
    105          1           0       -2.560061   -3.443606   -3.625272
    106          1           0        5.837520    1.220996    0.312806
    107          6           0        8.409968    1.328608   -0.713450
    108          1           0        7.037917    2.974408   -1.004786
    109          1           0        7.146553    1.873403   -2.379519
    110          6           0        8.523908   -0.147426   -1.080905
    111          1           0        8.400248    1.431390    0.374249
    112          1           0        9.273741    1.876709   -1.094579
    113          6           0        7.303250   -0.915244   -0.587210
    114          1           0        9.428081   -0.573484   -0.641620
    115          1           0        8.599636   -0.245541   -2.166295
    116          1           0        7.373374   -1.966650   -0.872870
    117          1           0        7.239490   -0.867288    0.500991
    118          1           0        6.036452   -0.390697   -2.275644
 ---------------------------------------------------------------------
 Rotational constants (GHZ):           0.0343382           0.0299541           0.0270283
 Leave Link  202 at Mon Oct 18 02:41:18 2021, MaxMem=  7864320000 cpu:               0.2 elap:               0.0
 (Enter /apps/gaussian/g16-c01-avx/g16/l301.exe)
 Standard basis: def2TZVP (5D, 7F)
 Ernie: Thresh=  0.10000D-02 Tol=  0.10000D-05 Strict=F.
 There are  2508 symmetry adapted cartesian basis functions of A   symmetry.
 There are  2208 symmetry adapted basis functions of A   symmetry.
  2208 basis functions,  3524 primitive gaussians,  2508 cartesian basis functions
   214 alpha electrons      214 beta electrons
       nuclear repulsion energy      8475.3692751794 Hartrees.
 IExCor= 1009 DFT=T Ex+Corr=PBE1PBE ExCW=0 ScaHFX=  0.250000
 ScaDFX=  0.750000  0.750000  1.000000  1.000000 ScalE2=  1.000000  1.000000
 IRadAn=      7 IRanWt=     -1 IRanGd=            0 ICorTp=0 IEmpDi=131
 NAtoms=  118 NActive=  118 NUniq=  118 SFac= 1.00D+00 NAtFMM=   60 NAOKFM=T Big=T
 Integral buffers will be    131072 words long.
 Raffenetti 2 integral format.
 Two-electron integral symmetry is turned on.
 R6Disp:  Grimme-D3 Dispersion energy=       -0.0960746787 Hartrees.
 Nuclear repulsion after empirical dispersion term =     8475.2732005007 Hartrees.
 ------------------------------------------------------------------------------
 Polarizable Continuum Model (PCM)
 =================================
 Model                : PCM.
 Atomic radii         : UFF (Universal Force Field).
 Polarization charges : Total charges.
 Charge compensation  : None.
 Solution method      : On-the-fly selection.
 Cavity type          : Scaled VdW (van der Waals Surface) (Alpha=1.100).
 Cavity algorithm     : GePol (No added spheres)
                        Default sphere list used, NSphG=  118.
                        Lebedev-Laikov grids with approx.  5.0 points / Ang**2.
                        Smoothing algorithm: York/Karplus (Gamma=1.0000).
                        Polarization charges: spherical gaussians, with
                                              point-specific exponents (IZeta= 3).
                        Self-potential: point-specific (ISelfS= 7).
                        Self-field    : sphere-specific E.n sum rule (ISelfD= 2).
 Solvent              : Chloroform, Eps=   4.711300 Eps(inf)=   2.090627
 ------------------------------------------------------------------------------
 GePol: Number of generator spheres                  =     118
 GePol: Total number of spheres                      =     118
 GePol: Number of exposed spheres                    =     118 (100.00%)
 GePol: Number of points                             =    7126
 GePol: Average weight of points                     =       0.13
 GePol: Minimum weight of points                     =   0.60D-11
 GePol: Maximum weight of points                     =    0.20577
 GePol: Number of points with low weight             =     562
 GePol: Fraction of low-weight points (<1% of avg)   =       7.89%
 GePol: Cavity surface area                          =    929.979 Ang**2
 GePol: Cavity volume                                =   1119.420 Ang**3
 Leave Link  301 at Mon Oct 18 02:41:18 2021, MaxMem=  7864320000 cpu:               1.9 elap:               0.1
 (Enter /apps/gaussian/g16-c01-avx/g16/l302.exe)
 NPDir=0 NMtPBC=     1 NCelOv=     1 NCel=       1 NClECP=     1 NCelD=      1
         NCelK=      1 NCelE2=     1 NClLst=     1 CellRange=     0.0.
 One-electron integrals computed using PRISM.
 One-electron integral symmetry used in STVInt
   1 Symmetry operations used in ECPInt.
 ECPInt:  NShTT=  398278 NPrTT= 1200420 LenC2=  256226 LenP2D=  493167.
 LDataN:  DoStor=T MaxTD1= 6 Len=  172
 NBasis=  2208 RedAO= T EigKep=  5.25D-06  NBF=  2208
 NBsUse=  2208 1.00D-06 EigRej= -1.00D+00 NBFU=  2208
 Precomputing XC quadrature grid using
 IXCGrd= 4 IRadAn=           7 IRanWt=          -1 IRanGd=           0 AccXCQ= 0.00D+00.
 Generated NRdTot=       0 NPtTot=           0 NUsed=           0 NTot=          32
 NSgBfM=  2177  2159  2168  2171  2177 MxSgAt=   118 MxSgA2=   118.
 Leave Link  302 at Mon Oct 18 02:41:31 2021, MaxMem=  7864320000 cpu:             414.5 elap:              13.0
 (Enter /apps/gaussian/g16-c01-avx/g16/l303.exe)
 DipDrv:  MaxL=1.
 Leave Link  303 at Mon Oct 18 02:41:32 2021, MaxMem=  7864320000 cpu:              25.0 elap:               0.9
 (Enter /apps/gaussian/g16-c01-avx/g16/l401.exe)
 ExpMin= 9.52D-02 ExpMax= 2.70D+04 ExpMxC= 9.22D+02 IAcc=3 IRadAn=         7 AccDes= 0.00D+00
 Harris functional with IExCor= 1009 and IRadAn=       7 diagonalized for initial guess.
 HarFok:  IExCor= 1009 AccDes= 0.00D+00 IRadAn=         7 IDoV= 1 UseB2=F ITyADJ=14
 ICtDFT=  3500011 ScaDFX=  1.000000  1.000000  1.000000  1.000000
 FoFCou: FMM=F IPFlag=           0 FMFlag=      100000 FMFlg1=        2001
         NFxFlg=           0 DoJE=T BraDBF=F KetDBF=T FulRan=T
         wScrn=  0.000000 ICntrl=       500 IOpCl=  0 I1Cent=   200000004 NGrid=           0
         NMat0=    1 NMatS0=      1 NMatT0=    0 NMatD0=    1 NMtDS0=    0 NMtDT0=    0
 Petite list used in FoFCou.
 Harris En= -2490.27986201525    
 JPrj=0 DoOrth=F DoCkMO=F.
 Leave Link  401 at Mon Oct 18 02:42:07 2021, MaxMem=  7864320000 cpu:            1130.1 elap:              35.6
 (Enter /apps/gaussian/g16-c01-avx/g16/l508.exe)
 Integral symmetry usage will be decided dynamically.
 Tight linear equation convergence will be used.
 RPBE1PBE wavefunction.
 Linear searches until partial convergence.
 Full line searches.
 Fock matrices will be formed incrementally for  20 cycles.
 Inv3:  Mode=1 IEnd=   152339628.
 Iteration    1 A*A^-1 deviation from unit magnitude is 1.18D-14 for   7101.
 Iteration    1 A*A^-1 deviation from orthogonality  is 2.66D-15 for   5229    171.
 Iteration    1 A^-1*A deviation from unit magnitude is 1.19D-14 for   7101.
 Iteration    1 A^-1*A deviation from orthogonality  is 2.22D-15 for   6480   3823.
 FoFJK:  IHMeth= 1 ICntrl=       0 DoSepK=F KAlg= 0 I1Cent=           0 FoldK=F
 IRaf= 600000000 NMat=       1 IRICut=       1 DoRegI=T DoRafI=F ISym2E= 1 IDoP0=0 IntGTp=1.
 Iteration   1 EE= -2488.33493322720                                    Grad=1.660D+00 Max rot=    2.1285 deg.
 Gradient too large for Newton-Raphson -- use scaled steepest descent instead.
 Alpha Gap=     0.162 HL deriv= 3.79D-03
     ILin= 1 X=0.000D+00 Y=-2.488334933227D+03 DE= 0.00D+00 F= -5.22D+00
 RMSU=  5.07D-04    CP:  9.99D-01
     ILin= 2 X=3.000D-01 Y=-2.489379523289D+03 DE=-1.04D+00 F= -1.73D+00 OKLS=F
 RMSU=  8.37D-05    CP:  1.00D+00  1.74D+00
     ILin= 3 X=5.000D-01 Y=-2.489488223302D+03 DE=-1.15D+00 F=  6.43D-01
     Accept linear search using points  2 and  3.
     An  expanding polynomial of degree  3 produced  0.3903
 RMSU=  3.73D-08    CP:  9.99D-01  1.33D+00  3.53D-01
 Iteration   2 EE= -2489.48731582115     Delta-E=       -1.152382593953 Grad=5.597D-01 Max rot=    1.1469 deg.
 Gradient too large for Newton-Raphson -- use scaled steepest descent instead.
 Alpha Gap=     0.178 HL deriv= 3.26D-03
     ILin= 1 X=0.000D+00 Y=-2.489487315821D+03 DE= 0.00D+00 F= -3.07D-01
 RMSU=  9.53D-05    CP:  9.98D-01  1.61D+00  8.34D-01 -3.00D+00
     ILin= 2 X=3.000D-01 Y=-2.489556600838D+03 DE=-6.93D-02 F= -1.55D-01 OKLS=F
 RMSU=  1.42D-05    CP:  9.98D-01  2.00D+00  1.78D+00 -3.00D+00  2.36D+00
     ILin= 3 X=7.000D-01 Y=-2.489578178584D+03 DE=-9.09D-02 F=  4.70D-02
     Accept linear search using points  2 and  3.
     An  expanding polynomial of degree  3 produced  0.5120
 RMSU=  2.68D-08    CP:  9.98D-01  1.81D+00  1.29D+00 -3.00D+00  1.72D+00
                    CP:  3.88D-01
 Iteration   3 EE= -2489.57810265045     Delta-E=       -0.090786829298 Grad=2.340D-01 Max rot=    0.5425 deg.
 Gradient too large for Newton-Raphson -- use scaled steepest descent instead.
 Alpha Gap=     0.174 HL deriv= 1.86D-03
     ILin= 1 X=0.000D+00 Y=-2.489578102650D+03 DE= 0.00D+00 F= -4.35D-02
 RMSU=  5.21D-05    CP:  9.99D-01  2.02D+00  1.88D+00 -3.00D+00  2.19D+00
                    CP:  4.96D-01 -3.00D+00
     ILin= 2 X=4.000D-01 Y=-2.489588957488D+03 DE=-1.09D-02 F= -1.08D-02 OKLS=F
 RMSU=  3.87D-06    CP:  1.00D+00  2.30D+00  2.76D+00 -3.00D+00  2.78D+00
                    CP:  9.19D-01 -3.00D+00  2.27D+00
     ILin= 3 X=9.000D-01 Y=-2.489584098896D+03 DE=-6.00D-03 F=  3.02D-02
     An  expanding polynomial of degree  3 produced  0.5314
 RMSU=  1.44D-08    CP:  1.00D+00  2.10D+00  2.10D+00 -3.00D+00  2.35D+00
                    CP:  5.76D-01 -3.00D+00  1.33D+00  1.55D-01
 Iteration   4 EE= -2489.58966595122     Delta-E=       -0.011563300766 Grad=1.141D-01 Max rot=    0.2732 deg.
 Gradient too large for Newton-Raphson -- use scaled steepest descent instead.
 Alpha Gap=     0.179 HL deriv= 1.49D-03
     ILin= 1 X=0.000D+00 Y=-2.489589665951D+03 DE= 0.00D+00 F= -1.34D-02
 RMSU=  2.56D-05    CP:  9.99D-01  2.14D+00  2.28D+00 -3.00D+00  2.81D+00
                    CP:  1.23D+00 -3.00D+00  1.40D+00  2.19D-01  3.00D+00
     ILin= 2 X=5.000D-01 Y=-2.489592186925D+03 DE=-2.52D-03 F=  3.27D-03 OKLS=T
     Accept linear search using points  1 and  2.
     An  expanding polynomial of degree  2 produced  0.2946
 RMSU=  1.21D-07    CP:  9.99D-01  2.12D+00  2.20D+00 -3.00D+00  2.62D+00
                    CP:  9.55D-01 -3.00D+00  1.37D+00  1.83D-01  3.00D+00
                    CP:  5.89D-01
 Iteration   5 EE= -2489.59215813849     Delta-E=       -0.002492187272 Grad=6.865D-02 Max rot=    0.1749 deg.
 Gradient too large for Newton-Raphson -- use scaled steepest descent instead.
 Alpha Gap=     0.177 HL deriv= 2.01D-05
     ILin= 1 X=0.000D+00 Y=-2.489592158138D+03 DE= 0.00D+00 F= -2.32D-03
 RMSU=  6.75D-06    CP:  1.00D+00  2.20D+00  2.48D+00 -3.00D+00  2.90D+00
                    CP:  1.33D+00 -3.00D+00  1.68D+00  3.25D-01  3.00D+00
                    CP:  1.04D+00  3.00D+00
     ILin= 2 X=5.000D-01 Y=-2.489593014359D+03 DE=-8.56D-04 F= -1.11D-03 OKLS=F
 RMSU=  2.28D-05    CP:  1.00D+00  2.29D+00  2.83D+00 -3.00D+00  3.00D+00
                    CP:  1.86D+00 -3.00D+00  2.06D+00  6.10D-01  3.00D+00
                    CP:  1.59D+00  3.00D+00  2.21D+00
     ILin= 3 X=1.100D+00 Y=-2.489593240549D+03 DE=-1.08D-03 F=  3.52D-04
     Accept linear search using points  2 and  3.
     An  expanding polynomial of degree  3 produced  0.8692
 RMSU=  4.05D-08    CP:  1.00D+00  2.26D+00  2.69D+00 -3.00D+00  3.00D+00
                    CP:  1.65D+00 -3.00D+00  1.91D+00  4.86D-01  3.00D+00
                    CP:  1.38D+00  3.00D+00  1.74D+00  4.55D-01
 Iteration   6 EE= -2489.59325701047     Delta-E=       -0.001098871981 Grad=9.739D-03 Max rot=    0.0244 deg.
 SCF Done:  E(RPBE1PBE) =  -2489.59325701     a.u. after    6 cycles
            Convg  =    0.9739D-02                    15 Fock formations.
              S**2 =  0.0000                  -V/T =  2.0047
 Leave Link  508 at Mon Oct 18 03:36:51 2021, MaxMem=  7864320000 cpu:          103998.5 elap:            3283.1
 (Enter /apps/gaussian/g16-c01-avx/g16/l502.exe)
 Integral symmetry usage will be decided dynamically.
 Closed shell SCF:
 Using DIIS extrapolation, IDIIS=  1040.
 NGot=  7864320000 LenX=  7851634930 LenY=  7845342358
 Requested convergence on RMS density matrix=1.00D-08 within 128 cycles.
 Requested convergence on MAX density matrix=1.00D-06.
 Requested convergence on             energy=1.00D-06.
 No special actions if energy rises.
 Fock matrices will be formed incrementally for  20 cycles.

 Cycle   1  Pass 1  IDiag  1:
 FoFJK:  IHMeth= 1 ICntrl=       0 DoSepK=F KAlg= 0 I1Cent=           0 FoldK=F
 IRaf= 600000000 NMat=       1 IRICut=       1 DoRegI=T DoRafI=F ISym2E= 0 IDoP0=0 IntGTp=1.
 FoFCou: FMM=T IPFlag=           0 FMFlag=      100000 FMFlg1=        2001
         NFxFlg=           0 DoJE=F BraDBF=F KetDBF=F FulRan=T
         wScrn=  0.000000 ICntrl=         0 IOpCl=  0 I1Cent=           0 NGrid=           0
         NMat0=    1 NMatS0=      1 NMatT0=    0 NMatD0=    1 NMtDS0=    0 NMtDT0=    0
 Symmetry not used in FoFCou.
 FMM levels:  10  Number of levels for PrismC:   9
 E= -2489.59325701053    
 DIIS: error= 7.12D-05 at cycle   1 NSaved=   1.
 NSaved= 1 IEnMin= 1 EnMin= -2489.59325701053     IErMin= 1 ErrMin= 7.12D-05
 ErrMax= 7.12D-05  0.00D+00 EMaxC= 1.00D-01 BMatC= 4.74D-05 BMatP= 4.74D-05
 IDIUse=1 WtCom= 1.00D+00 WtEn= 0.00D+00
 Coeff-Com:  0.100D+01
 Coeff:      0.100D+01
 Gap=     0.178 Goal=   None    Shift=    0.000
 RMSDP=3.58D-05 MaxDP=9.06D-03              OVMax= 1.27D-03

 Cycle   2  Pass 1  IDiag  1:
 RMSU=  3.38D-05    CP:  1.00D+00
 E= -2489.59327312862     Delta-E=       -0.000016118083 Rises=F Damp=F
 DIIS: error= 1.20D-04 at cycle   2 NSaved=   2.
 NSaved= 2 IEnMin= 2 EnMin= -2489.59327312862     IErMin= 1 ErrMin= 7.12D-05
 ErrMax= 1.20D-04  0.00D+00 EMaxC= 1.00D-01 BMatC= 2.79D-05 BMatP= 4.74D-05
 IDIUse=3 WtCom= 9.99D-01 WtEn= 1.20D-03
 Coeff-Com:  0.405D+00 0.595D+00
 Coeff-En:   0.246D+00 0.754D+00
 Coeff:      0.404D+00 0.596D+00
 Gap=     0.169 Goal=   None    Shift=    0.000
 RMSDP=7.35D-06 MaxDP=4.96D-03 DE=-1.61D-05 OVMax= 1.25D-03

 Cycle   3  Pass 1  IDiag  1:
 RMSU=  7.24D-06    CP:  1.00D+00  9.72D-01
 E= -2489.59328311363     Delta-E=       -0.000009985009 Rises=F Damp=F
 DIIS: error= 9.88D-05 at cycle   3 NSaved=   3.
 NSaved= 3 IEnMin= 3 EnMin= -2489.59328311363     IErMin= 1 ErrMin= 7.12D-05
 ErrMax= 9.88D-05  0.00D+00 EMaxC= 1.00D-01 BMatC= 1.59D-05 BMatP= 2.79D-05
 IDIUse=1 WtCom= 1.00D+00 WtEn= 0.00D+00
 Coeff-Com:  0.752D-02 0.428D+00 0.565D+00
 Coeff:      0.752D-02 0.428D+00 0.565D+00
 Gap=     0.169 Goal=   None    Shift=    0.000
 RMSDP=4.07D-06 MaxDP=2.52D-03 DE=-9.99D-06 OVMax= 6.21D-04

 Cycle   4  Pass 1  IDiag  1:
 RMSU=  8.79D-07    CP:  1.00D+00  1.05D+00  6.19D-01
 E= -2489.59329490006     Delta-E=       -0.000011786435 Rises=F Damp=F
 DIIS: error= 1.07D-05 at cycle   4 NSaved=   4.
 NSaved= 4 IEnMin= 4 EnMin= -2489.59329490006     IErMin= 4 ErrMin= 1.07D-05
 ErrMax= 1.07D-05  0.00D+00 EMaxC= 1.00D-01 BMatC= 5.26D-07 BMatP= 1.59D-05
 IDIUse=1 WtCom= 1.00D+00 WtEn= 0.00D+00
 Coeff-Com: -0.811D-02 0.226D+00 0.321D+00 0.461D+00
 Coeff:     -0.811D-02 0.226D+00 0.321D+00 0.461D+00
 Gap=     0.169 Goal=   None    Shift=    0.000
 RMSDP=8.07D-07 MaxDP=2.54D-04 DE=-1.18D-05 OVMax= 1.50D-04

 Cycle   5  Pass 1  IDiag  1:
 RMSU=  4.99D-07    CP:  1.00D+00  1.04D+00  6.42D-01  5.89D-01
 E= -2489.59329534782     Delta-E=       -0.000000447755 Rises=F Damp=F
 DIIS: error= 1.42D-06 at cycle   5 NSaved=   5.
 NSaved= 5 IEnMin= 5 EnMin= -2489.59329534782     IErMin= 5 ErrMin= 1.42D-06
 ErrMax= 1.42D-06  0.00D+00 EMaxC= 1.00D-01 BMatC= 1.90D-08 BMatP= 5.26D-07
 IDIUse=1 WtCom= 1.00D+00 WtEn= 0.00D+00
 Coeff-Com: -0.383D-02 0.262D-01 0.431D-01 0.183D+00 0.752D+00
 Coeff:     -0.383D-02 0.262D-01 0.431D-01 0.183D+00 0.752D+00
 Gap=     0.169 Goal=   None    Shift=    0.000
 RMSDP=1.97D-07 MaxDP=4.25D-05 DE=-4.48D-07 OVMax= 3.62D-05

 Cycle   6  Pass 1  IDiag  1:
 RMSU=  8.09D-08    CP:  1.00D+00  1.04D+00  6.49D-01  6.83D-01  9.27D-01
 E= -2489.59329536356     Delta-E=       -0.000000015743 Rises=F Damp=F
 DIIS: error= 6.18D-07 at cycle   6 NSaved=   6.
 NSaved= 6 IEnMin= 6 EnMin= -2489.59329536356     IErMin= 6 ErrMin= 6.18D-07
 ErrMax= 6.18D-07  0.00D+00 EMaxC= 1.00D-01 BMatC= 2.82D-09 BMatP= 1.90D-08
 IDIUse=1 WtCom= 1.00D+00 WtEn= 0.00D+00
 Coeff-Com: -0.175D-02 0.542D-02 0.112D-01 0.834D-01 0.425D+00 0.477D+00
 Coeff:     -0.175D-02 0.542D-02 0.112D-01 0.834D-01 0.425D+00 0.477D+00
 Gap=     0.169 Goal=   None    Shift=    0.000
 RMSDP=6.43D-08 MaxDP=1.84D-05 DE=-1.57D-08 OVMax= 1.11D-05

 Cycle   7  Pass 1  IDiag  1:
 RMSU=  2.90D-08    CP:  1.00D+00  1.04D+00  6.47D-01  6.69D-01  9.97D-01
                    CP:  6.42D-01
 E= -2489.59329536594     Delta-E=       -0.000000002385 Rises=F Damp=F
 DIIS: error= 2.82D-07 at cycle   7 NSaved=   7.
 NSaved= 7 IEnMin= 7 EnMin= -2489.59329536594     IErMin= 7 ErrMin= 2.82D-07
 ErrMax= 2.82D-07  0.00D+00 EMaxC= 1.00D-01 BMatC= 4.31D-10 BMatP= 2.82D-09
 IDIUse=1 WtCom= 1.00D+00 WtEn= 0.00D+00
 Coeff-Com: -0.158D-03-0.321D-02-0.351D-02 0.929D-02 0.935D-01 0.294D+00
 Coeff-Com:  0.610D+00
 Coeff:     -0.158D-03-0.321D-02-0.351D-02 0.929D-02 0.935D-01 0.294D+00
 Coeff:      0.610D+00
 Gap=     0.169 Goal=   None    Shift=    0.000
 RMSDP=2.34D-08 MaxDP=6.98D-06 DE=-2.38D-09 OVMax= 3.24D-06

 Cycle   8  Pass 1  IDiag  1:
 RMSU=  9.12D-09    CP:  1.00D+00  1.04D+00  6.48D-01  6.77D-01  9.93D-01
                    CP:  7.25D-01  7.83D-01
 E= -2489.59329536622     Delta-E=       -0.000000000280 Rises=F Damp=F
 DIIS: error= 1.33D-07 at cycle   8 NSaved=   8.
 NSaved= 8 IEnMin= 8 EnMin= -2489.59329536622     IErMin= 8 ErrMin= 1.33D-07
 ErrMax= 1.33D-07  0.00D+00 EMaxC= 1.00D-01 BMatC= 2.28D-11 BMatP= 4.31D-10
 IDIUse=1 WtCom= 1.00D+00 WtEn= 0.00D+00
 Coeff-Com:  0.359D-04-0.181D-02-0.230D-02-0.193D-02 0.114D-01 0.104D+00
 Coeff-Com:  0.284D+00 0.607D+00
 Coeff:      0.359D-04-0.181D-02-0.230D-02-0.193D-02 0.114D-01 0.104D+00
 Coeff:      0.284D+00 0.607D+00
 Gap=     0.169 Goal=   None    Shift=    0.000
 RMSDP=6.04D-09 MaxDP=1.43D-06 DE=-2.80D-10 OVMax= 1.87D-06

 Cycle   9  Pass 1  IDiag  1:
 RMSU=  3.66D-09    CP:  1.00D+00  1.04D+00  6.49D-01  6.77D-01  9.98D-01
                    CP:  7.49D-01  8.09D-01  8.37D-01
 E= -2489.59329536625     Delta-E=       -0.000000000020 Rises=F Damp=F
 DIIS: error= 8.13D-08 at cycle   9 NSaved=   9.
 NSaved= 9 IEnMin= 9 EnMin= -2489.59329536625     IErMin= 9 ErrMin= 8.13D-08
 ErrMax= 8.13D-08  0.00D+00 EMaxC= 1.00D-01 BMatC= 4.87D-12 BMatP= 2.28D-11
 IDIUse=1 WtCom= 1.00D+00 WtEn= 0.00D+00
 Coeff-Com:  0.458D-04-0.410D-03-0.598D-03-0.285D-02-0.113D-01 0.410D-02
 Coeff-Com:  0.437D-01 0.339D+00 0.628D+00
 Coeff:      0.458D-04-0.410D-03-0.598D-03-0.285D-02-0.113D-01 0.410D-02
 Coeff:      0.437D-01 0.339D+00 0.628D+00
 Gap=     0.169 Goal=   None    Shift=    0.000
 RMSDP=2.06D-09 MaxDP=4.41D-07 DE=-2.00D-11 OVMax= 8.12D-07

 Error on total polarization charges =  0.02311
 SCF Done:  E(RPBE1PBE) =  -2489.59329537     A.U. after    9 cycles
            NFock=  9  Conv=0.21D-08     -V/T= 2.0046
 KE= 2.478090531294D+03 PE=-2.273876550664D+04 EE= 9.295808479477D+03
 Leave Link  502 at Mon Oct 18 04:11:37 2021, MaxMem=  7864320000 cpu:           66174.5 elap:            2086.5
 (Enter /apps/gaussian/g16-c01-avx/g16/l508.exe)
 QCSCF skips out because SCF is already converged.
 Leave Link  508 at Mon Oct 18 04:11:37 2021, MaxMem=  7864320000 cpu:               0.0 elap:               0.0
 (Enter /apps/gaussian/g16-c01-avx/g16/l601.exe)
 Copying SCF densities to generalized density rwf, IOpCl= 0 IROHF=0.
 Hyperfine terms turned off by default for NAtoms > 100.

 **********************************************************************

            Population analysis using the SCF Density.

 **********************************************************************

 Orbital symmetries:
       Occupied  (A) (A) (A) (A) (A) (A) (A) (A) (A) (A) (A) (A)
                 (A) (A) (A) (A) (A) (A) (A) (A) (A) (A) (A) (A)
                 (A) (A) (A) (A) (A) (A) (A) (A) (A) (A) (A) (A)
                 (A) (A) (A) (A) (A) (A) (A) (A) (A) (A) (A) (A)
                 (A) (A) (A) (A) (A) (A) (A) (A) (A) (A) (A) (A)
                 (A) (A) (A) (A) (A) (A) (A) (A) (A) (A) (A) (A)
                 (A) (A) (A) (A) (A) (A) (A) (A) (A) (A) (A) (A)
                 (A) (A) (A) (A) (A) (A) (A) (A) (A) (A) (A) (A)
                 (A) (A) (A) (A) (A) (A) (A) (A) (A) (A) (A) (A)
                 (A) (A) (A) (A) (A) (A) (A) (A) (A) (A) (A) (A)
                 (A) (A) (A) (A) (A) (A) (A) (A) (A) (A) (A) (A)
                 (A) (A) (A) (A) (A) (A) (A) (A) (A) (A) (A) (A)
                 (A) (A) (A) (A) (A) (A) (A) (A) (A) (A) (A) (A)
                 (A) (A) (A) (A) (A) (A) (A) (A) (A) (A) (A) (A)
                 (A) (A) (A) (A) (A) (A) (A) (A) (A) (A) (A) (A)
                 (A) (A) (A) (A) (A) (A) (A) (A) (A) (A) (A) (A)
                 (A) (A) (A) (A) (A) (A) (A) (A) (A) (A) (A) (A)
                 (A) (A) (A) (A) (A) (A) (A) (A) (A) (A)
       Virtual   (A) (A) (A) (A) (A) (A) (A) (A) (A) (A) (A) (A)
                 (A) (A) (A) (A) (A) (A) (A) (A) (A) (A) (A) (A)
                 (A) (A) (A) (A) (A) (A) (A) (A) (A) (A) (A) (A)
                 (A) (A) (A) (A) (A) (A) (A) (A) (A) (A) (A) (A)
                 (A) (A) (A) (A) (A) (A) (A) (A) (A) (A) (A) (A)
                 (A) (A) (A) (A) (A) (A) (A) (A) (A) (A) (A) (A)
                 (A) (A) (A) (A) (A) (A) (A) (A) (A) (A) (A) (A)
                 (A) (A) (A) (A) (A) (A) (A) (A) (A) (A) (A) (A)
                 (A) (A) (A) (A) (A) (A) (A) (A) (A) (A) (A) (A)
                 (A) (A) (A) (A) (A) (A) (A) (A) (A) (A) (A) (A)
                 (A) (A) (A) (A) (A) (A) (A) (A) (A) (A) (A) (A)
                 (A) (A) (A) (A) (A) (A) (A) (A) (A) (A) (A) (A)
                 (A) (A) (A) (A) (A) (A) (A) (A) (A) (A) (A) (A)
                 (A) (A) (A) (A) (A) (A) (A) (A) (A) (A) (A) (A)
                 (A) (A) (A) (A) (A) (A) (A) (A) (A) (A) (A) (A)
                 (A) (A) (A) (A) (A) (A) (A) (A) (A) (A) (A) (A)
                 (A) (A) (A) (A) (A) (A) (A) (A) (A) (A) (A) (A)
                 (A) (A) (A) (A) (A) (A) (A) (A) (A) (A) (A) (A)
                 (A) (A) (A) (A) (A) (A) (A) (A) (A) (A) (A) (A)
                 (A) (A) (A) (A) (A) (A) (A) (A) (A) (A) (A) (A)
                 (A) (A) (A) (A) (A) (A) (A) (A) (A) (A) (A) (A)
                 (A) (A) (A) (A) (A) (A) (A) (A) (A) (A) (A) (A)
                 (A) (A) (A) (A) (A) (A) (A) (A) (A) (A) (A) (A)
                 (A) (A) (A) (A) (A) (A) (A) (A) (A) (A) (A) (A)
                 (A) (A) (A) (A) (A) (A) (A) (A) (A) (A) (A) (A)
                 (A) (A) (A) (A) (A) (A) (A) (A) (A) (A) (A) (A)
                 (A) (A) (A) (A) (A) (A) (A) (A) (A) (A) (A) (A)
                 (A) (A) (A) (A) (A) (A) (A) (A) (A) (A) (A) (A)
                 (A) (A) (A) (A) (A) (A) (A) (A) (A) (A) (A) (A)
                 (A) (A) (A) (A) (A) (A) (A) (A) (A) (A) (A) (A)
                 (A) (A) (A) (A) (A) (A) (A) (A) (A) (A) (A) (A)
                 (A) (A) (A) (A) (A) (A) (A) (A) (A) (A) (A) (A)
                 (A) (A) (A) (A) (A) (A) (A) (A) (A) (A) (A) (A)
                 (A) (A) (A) (A) (A) (A) (A) (A) (A) (A) (A) (A)
                 (A) (A) (A) (A) (A) (A) (A) (A) (A) (A) (A) (A)
                 (A) (A) (A) (A) (A) (A) (A) (A) (A) (A) (A) (A)
                 (A) (A) (A) (A) (A) (A) (A) (A) (A) (A) (A) (A)
                 (A) (A) (A) (A) (A) (A) (A) (A) (A) (A) (A) (A)
                 (A) (A) (A) (A) (A) (A) (A) (A) (A) (A) (A) (A)
                 (A) (A) (A) (A) (A) (A) (A) (A) (A) (A) (A) (A)
                 (A) (A) (A) (A) (A) (A) (A) (A) (A) (A) (A) (A)
                 (A) (A) (A) (A) (A) (A) (A) (A) (A) (A) (A) (A)
                 (A) (A) (A) (A) (A) (A) (A) (A) (A) (A) (A) (A)
                 (A) (A) (A) (A) (A) (A) (A) (A) (A) (A) (A) (A)
                 (A) (A) (A) (A) (A) (A) (A) (A) (A) (A) (A) (A)
                 (A) (A) (A) (A) (A) (A) (A) (A) (A) (A) (A) (A)
                 (A) (A) (A) (A) (A) (A) (A) (A) (A) (A) (A) (A)
                 (A) (A) (A) (A) (A) (A) (A) (A) (A) (A) (A) (A)
                 (A) (A) (A) (A) (A) (A) (A) (A) (A) (A) (A) (A)
                 (A) (A) (A) (A) (A) (A) (A) (A) (A) (A) (A) (A)
                 (A) (A) (A) (A) (A) (A) (A) (A) (A) (A) (A) (A)
                 (A) (A) (A) (A) (A) (A) (A) (A) (A) (A) (A) (A)
                 (A) (A) (A) (A) (A) (A) (A) (A) (A) (A) (A) (A)
                 (A) (A) (A) (A) (A) (A) (A) (A) (A) (A) (A) (A)
                 (A) (A) (A) (A) (A) (A) (A) (A) (A) (A) (A) (A)
                 (A) (A) (A) (A) (A) (A) (A) (A) (A) (A) (A) (A)
                 (A) (A) (A) (A) (A) (A) (A) (A) (A) (A) (A) (A)
                 (A) (A) (A) (A) (A) (A) (A) (A) (A) (A) (A) (A)
                 (A) (A) (A) (A) (A) (A) (A) (A) (A) (A) (A) (A)
                 (A) (A) (A) (A) (A) (A) (A) (A) (A) (A) (A) (A)
                 (A) (A) (A) (A) (A) (A) (A) (A) (A) (A) (A) (A)
                 (A) (A) (A) (A) (A) (A) (A) (A) (A) (A) (A) (A)
                 (A) (A) (A) (A) (A) (A) (A) (A) (A) (A) (A) (A)
                 (A) (A) (A) (A) (A) (A) (A) (A) (A) (A) (A) (A)
                 (A) (A) (A) (A) (A) (A) (A) (A) (A) (A) (A) (A)
                 (A) (A) (A) (A) (A) (A) (A) (A) (A) (A) (A) (A)
                 (A) (A) (A) (A) (A) (A) (A) (A) (A) (A) (A) (A)
                 (A) (A) (A) (A) (A) (A) (A) (A) (A) (A) (A) (A)
                 (A) (A) (A) (A) (A) (A) (A) (A) (A) (A) (A) (A)
                 (A) (A) (A) (A) (A) (A) (A) (A) (A) (A) (A) (A)
                 (A) (A) (A) (A) (A) (A) (A) (A) (A) (A) (A) (A)
                 (A) (A) (A) (A) (A) (A) (A) (A) (A) (A) (A) (A)
                 (A) (A) (A) (A) (A) (A) (A) (A) (A) (A) (A) (A)
                 (A) (A) (A) (A) (A) (A) (A) (A) (A) (A) (A) (A)
                 (A) (A) (A) (A) (A) (A) (A) (A) (A) (A) (A) (A)
                 (A) (A) (A) (A) (A) (A) (A) (A) (A) (A) (A) (A)
                 (A) (A) (A) (A) (A) (A) (A) (A) (A) (A) (A) (A)
                 (A) (A) (A) (A) (A) (A) (A) (A) (A) (A) (A) (A)
                 (A) (A) (A) (A) (A) (A) (A) (A) (A) (A) (A) (A)
                 (A) (A) (A) (A) (A) (A) (A) (A) (A) (A) (A) (A)
                 (A) (A) (A) (A) (A) (A) (A) (A) (A) (A) (A) (A)
                 (A) (A) (A) (A) (A) (A) (A) (A) (A) (A) (A) (A)
                 (A) (A) (A) (A) (A) (A) (A) (A) (A) (A) (A) (A)
                 (A) (A) (A) (A) (A) (A) (A) (A) (A) (A) (A) (A)
                 (A) (A) (A) (A) (A) (A) (A) (A) (A) (A) (A) (A)
                 (A) (A) (A) (A) (A) (A) (A) (A) (A) (A) (A) (A)
                 (A) (A) (A) (A) (A) (A) (A) (A) (A) (A) (A) (A)
                 (A) (A) (A) (A) (A) (A) (A) (A) (A) (A) (A) (A)
                 (A) (A) (A) (A) (A) (A) (A) (A) (A) (A) (A) (A)
                 (A) (A) (A) (A) (A) (A) (A) (A) (A) (A) (A) (A)
                 (A) (A) (A) (A) (A) (A) (A) (A) (A) (A) (A) (A)
                 (A) (A) (A) (A) (A) (A) (A) (A) (A) (A) (A) (A)
                 (A) (A) (A) (A) (A) (A) (A) (A) (A) (A) (A) (A)
                 (A) (A) (A) (A) (A) (A) (A) (A) (A) (A) (A) (A)
                 (A) (A) (A) (A) (A) (A) (A) (A) (A) (A) (A) (A)
                 (A) (A) (A) (A) (A) (A) (A) (A) (A) (A) (A) (A)
                 (A) (A) (A) (A) (A) (A) (A) (A) (A) (A) (A) (A)
                 (A) (A) (A) (A) (A) (A) (A) (A) (A) (A) (A) (A)
                 (A) (A) (A) (A) (A) (A) (A) (A) (A) (A) (A) (A)
                 (A) (A) (A) (A) (A) (A) (A) (A) (A) (A) (A) (A)
                 (A) (A) (A) (A) (A) (A) (A) (A) (A) (A) (A) (A)
                 (A) (A) (A) (A) (A) (A) (A) (A) (A) (A) (A) (A)
                 (A) (A) (A) (A) (A) (A) (A) (A) (A) (A) (A) (A)
                 (A) (A) (A) (A) (A) (A) (A) (A) (A) (A) (A) (A)
                 (A) (A) (A) (A) (A) (A) (A) (A) (A) (A) (A) (A)
                 (A) (A) (A) (A) (A) (A) (A) (A) (A) (A) (A) (A)
                 (A) (A) (A) (A) (A) (A) (A) (A) (A) (A) (A) (A)
                 (A) (A) (A) (A) (A) (A) (A) (A) (A) (A) (A) (A)
                 (A) (A) (A) (A) (A) (A) (A) (A) (A) (A) (A) (A)
                 (A) (A) (A) (A) (A) (A) (A) (A) (A) (A) (A) (A)
                 (A) (A) (A) (A) (A) (A) (A) (A) (A) (A) (A) (A)
                 (A) (A) (A) (A) (A) (A) (A) (A) (A) (A) (A) (A)
                 (A) (A) (A) (A) (A) (A) (A) (A) (A) (A) (A) (A)
                 (A) (A) (A) (A) (A) (A) (A) (A) (A) (A) (A) (A)
                 (A) (A) (A) (A) (A) (A) (A) (A) (A) (A) (A) (A)
                 (A) (A) (A) (A) (A) (A) (A) (A) (A) (A) (A) (A)
                 (A) (A) (A) (A) (A) (A) (A) (A) (A) (A) (A) (A)
                 (A) (A) (A) (A) (A) (A) (A) (A) (A) (A) (A) (A)
                 (A) (A) (A) (A) (A) (A) (A) (A) (A) (A) (A) (A)
                 (A) (A) (A) (A) (A) (A) (A) (A) (A) (A) (A) (A)
                 (A) (A) (A) (A) (A) (A) (A) (A) (A) (A) (A) (A)
                 (A) (A) (A) (A) (A) (A) (A) (A) (A) (A) (A) (A)
                 (A) (A) (A) (A) (A) (A) (A) (A) (A) (A) (A) (A)
                 (A) (A) (A) (A) (A) (A) (A) (A) (A) (A) (A) (A)
                 (A) (A) (A) (A) (A) (A) (A) (A) (A) (A) (A) (A)
                 (A) (A) (A) (A) (A) (A) (A) (A) (A) (A) (A) (A)
                 (A) (A) (A) (A) (A) (A) (A) (A) (A) (A) (A) (A)
                 (A) (A) (A) (A) (A) (A) (A) (A) (A) (A) (A) (A)
                 (A) (A) (A) (A) (A) (A) (A) (A) (A) (A) (A) (A)
                 (A) (A) (A) (A) (A) (A) (A) (A) (A) (A) (A) (A)
                 (A) (A) (A) (A) (A) (A) (A) (A) (A) (A) (A) (A)
                 (A) (A) (A) (A) (A) (A) (A) (A) (A) (A) (A) (A)
                 (A) (A) (A) (A) (A) (A) (A) (A) (A) (A) (A) (A)
                 (A) (A) (A) (A) (A) (A) (A) (A) (A) (A) (A) (A)
                 (A) (A) (A) (A) (A) (A) (A) (A) (A) (A) (A) (A)
                 (A) (A) (A) (A) (A) (A) (A) (A) (A) (A) (A) (A)
                 (A) (A) (A) (A) (A) (A) (A) (A) (A) (A) (A) (A)
                 (A) (A) (A) (A) (A) (A) (A) (A) (A) (A) (A) (A)
                 (A) (A) (A) (A) (A) (A) (A) (A) (A) (A) (A) (A)
                 (A) (A) (A) (A) (A) (A) (A) (A) (A) (A) (A) (A)
                 (A) (A) (A) (A) (A) (A) (A) (A) (A) (A) (A) (A)
                 (A) (A) (A) (A) (A) (A) (A) (A) (A) (A) (A) (A)
                 (A) (A) (A) (A) (A) (A) (A) (A) (A) (A) (A) (A)
                 (A) (A) (A) (A) (A) (A) (A) (A) (A) (A) (A) (A)
                 (A) (A) (A) (A) (A) (A) (A) (A) (A) (A) (A) (A)
                 (A) (A) (A) (A) (A) (A) (A) (A) (A) (A) (A) (A)
                 (A) (A) (A) (A) (A) (A) (A) (A) (A) (A) (A) (A)
                 (A) (A) (A) (A) (A) (A) (A) (A) (A) (A) (A) (A)
                 (A) (A) (A) (A) (A) (A) (A) (A) (A) (A) (A) (A)
                 (A) (A) (A) (A) (A) (A) (A) (A) (A) (A) (A) (A)
                 (A) (A) (A) (A) (A) (A) (A) (A) (A) (A) (A) (A)
                 (A) (A) (A) (A) (A) (A) (A) (A) (A) (A) (A) (A)
                 (A) (A) (A) (A) (A) (A) (A) (A) (A) (A) (A) (A)
                 (A) (A) (A) (A) (A) (A) (A) (A) (A) (A) (A) (A)
                 (A) (A) (A) (A) (A) (A) (A) (A) (A) (A) (A) (A)
                 (A) (A) (A) (A) (A) (A) (A) (A) (A) (A) (A) (A)
                 (A) (A) (A) (A) (A) (A) (A) (A) (A) (A) (A) (A)
                 (A) (A) (A) (A) (A) (A) (A) (A) (A) (A) (A) (A)
                 (A) (A) (A) (A) (A) (A) (A) (A) (A) (A) (A) (A)
                 (A) (A) (A) (A) (A) (A) (A) (A) (A) (A) (A) (A)
                 (A) (A) (A) (A) (A) (A) (A) (A) (A) (A) (A) (A)
                 (A) (A) (A) (A) (A) (A) (A) (A) (A) (A) (A) (A)
                 (A) (A) (A) (A) (A) (A) (A) (A) (A) (A) (A) (A)
                 (A) (A) (A) (A) (A) (A) (A) (A) (A) (A) (A) (A)
                 (A) (A) (A) (A) (A) (A) (A) (A) (A) (A) (A) (A)
                 (A) (A) (A) (A) (A) (A) (A) (A) (A) (A) (A) (A)
                 (A) (A)
 The electronic state is 1-A.
 Alpha  occ. eigenvalues --  -19.21158 -14.38096 -14.37945 -14.37878 -14.37855
 Alpha  occ. eigenvalues --  -14.37756 -14.37544 -14.37543 -14.37536 -10.31615
 Alpha  occ. eigenvalues --  -10.27040 -10.26918 -10.26884 -10.26745 -10.26735
 Alpha  occ. eigenvalues --  -10.26520 -10.26372 -10.26091 -10.25622 -10.25327
 Alpha  occ. eigenvalues --  -10.25276 -10.25272 -10.25253 -10.25209 -10.25174
 Alpha  occ. eigenvalues --  -10.25149 -10.25127 -10.25085 -10.24990 -10.24919
 Alpha  occ. eigenvalues --  -10.24862 -10.24628 -10.24448 -10.24408 -10.24358
 Alpha  occ. eigenvalues --  -10.24318 -10.24252 -10.24155 -10.24141 -10.23945
 Alpha  occ. eigenvalues --  -10.23937 -10.23830 -10.23730 -10.23376 -10.22038
 Alpha  occ. eigenvalues --  -10.21716 -10.21707 -10.21653 -10.21646 -10.21564
 Alpha  occ. eigenvalues --  -10.21523 -10.21461 -10.21454 -10.21419 -10.21383
 Alpha  occ. eigenvalues --  -10.21374 -10.21317 -10.21311 -10.21287 -10.21251
 Alpha  occ. eigenvalues --   -1.08911  -0.98103  -0.97969  -0.97812  -0.97676
 Alpha  occ. eigenvalues --   -0.95551  -0.95269  -0.94993  -0.94713  -0.91034
 Alpha  occ. eigenvalues --   -0.90334  -0.89749  -0.85943  -0.85855  -0.85715
 Alpha  occ. eigenvalues --   -0.85134  -0.81686  -0.81319  -0.81039  -0.80987
 Alpha  occ. eigenvalues --   -0.80953  -0.80696  -0.77019  -0.76885  -0.76685
 Alpha  occ. eigenvalues --   -0.76440  -0.76230  -0.75570  -0.75529  -0.75142
 Alpha  occ. eigenvalues --   -0.69526  -0.69415  -0.68708  -0.68401  -0.68347
 Alpha  occ. eigenvalues --   -0.67465  -0.66921  -0.66639  -0.65663  -0.63249
 Alpha  occ. eigenvalues --   -0.63224  -0.63108  -0.62667  -0.62465  -0.61378
 Alpha  occ. eigenvalues --   -0.60619  -0.60132  -0.59203  -0.58973  -0.58323
 Alpha  occ. eigenvalues --   -0.58255  -0.58018  -0.57056  -0.56301  -0.56147
 Alpha  occ. eigenvalues --   -0.56022  -0.55019  -0.54130  -0.53802  -0.53359
 Alpha  occ. eigenvalues --   -0.53081  -0.52926  -0.52176  -0.51403  -0.51104
 Alpha  occ. eigenvalues --   -0.50697  -0.50138  -0.50059  -0.49926  -0.49119
 Alpha  occ. eigenvalues --   -0.48565  -0.48192  -0.47643  -0.47622  -0.47454
 Alpha  occ. eigenvalues --   -0.47378  -0.47208  -0.47106  -0.46688  -0.46267
 Alpha  occ. eigenvalues --   -0.45943  -0.45745  -0.45385  -0.45260  -0.44929
 Alpha  occ. eigenvalues --   -0.44492  -0.44466  -0.44300  -0.44222  -0.43950
 Alpha  occ. eigenvalues --   -0.43672  -0.43638  -0.43521  -0.43297  -0.42439
 Alpha  occ. eigenvalues --   -0.42237  -0.42031  -0.41881  -0.41531  -0.41115
 Alpha  occ. eigenvalues --   -0.40911  -0.40493  -0.40091  -0.39990  -0.39896
 Alpha  occ. eigenvalues --   -0.39283  -0.38782  -0.38599  -0.38286  -0.37888
 Alpha  occ. eigenvalues --   -0.37706  -0.37539  -0.37118  -0.36760  -0.36503
 Alpha  occ. eigenvalues --   -0.36344  -0.36246  -0.36142  -0.36082  -0.35914
 Alpha  occ. eigenvalues --   -0.35853  -0.35724  -0.35481  -0.35207  -0.34357
 Alpha  occ. eigenvalues --   -0.34231  -0.34151  -0.33992  -0.33818  -0.33733
 Alpha  occ. eigenvalues --   -0.33445  -0.32998  -0.32585  -0.32192  -0.32106
 Alpha  occ. eigenvalues --   -0.31969  -0.31237  -0.30140  -0.29747  -0.28500
 Alpha  occ. eigenvalues --   -0.27918  -0.27749  -0.27655  -0.27593  -0.27251
 Alpha  occ. eigenvalues --   -0.27061  -0.26859  -0.26809  -0.26155  -0.26026
 Alpha  occ. eigenvalues --   -0.25888  -0.25577  -0.25375  -0.24391
 Alpha virt. eigenvalues --   -0.07522  -0.06864  -0.06560  -0.05981  -0.05831
 Alpha virt. eigenvalues --   -0.05118  -0.02626  -0.02365  -0.01469   0.03600
 Alpha virt. eigenvalues --    0.04364   0.04517   0.04686   0.04888   0.04963
 Alpha virt. eigenvalues --    0.05027   0.05129   0.05197   0.05222   0.05557
 Alpha virt. eigenvalues --    0.05750   0.06084   0.06344   0.06754   0.06823
 Alpha virt. eigenvalues --    0.07006   0.07617   0.07725   0.07836   0.08043
 Alpha virt. eigenvalues --    0.08186   0.08425   0.08609   0.08674   0.09054
 Alpha virt. eigenvalues --    0.09227   0.09558   0.09928   0.10376   0.10518
 Alpha virt. eigenvalues --    0.10731   0.10834   0.10993   0.11107   0.11255
 Alpha virt. eigenvalues --    0.11328   0.11434   0.11524   0.11760   0.11866
 Alpha virt. eigenvalues --    0.11946   0.12205   0.12291   0.12431   0.12565
 Alpha virt. eigenvalues --    0.12640   0.12807   0.12991   0.13226   0.13324
 Alpha virt. eigenvalues --    0.13434   0.13586   0.13824   0.13926   0.13993
 Alpha virt. eigenvalues --    0.14071   0.14100   0.14257   0.14277   0.14578
 Alpha virt. eigenvalues --    0.14811   0.15002   0.15223   0.15629   0.16067
 Alpha virt. eigenvalues --    0.16140   0.16291   0.16388   0.17083   0.17211
 Alpha virt. eigenvalues --    0.17520   0.18007   0.18074   0.18293   0.18481
 Alpha virt. eigenvalues --    0.18554   0.18801   0.19130   0.19480   0.19526
 Alpha virt. eigenvalues --    0.19596   0.19692   0.19764   0.20093   0.20123
 Alpha virt. eigenvalues --    0.20149   0.20289   0.20491   0.20654   0.20948
 Alpha virt. eigenvalues --    0.21106   0.21237   0.21398   0.21579   0.21699
 Alpha virt. eigenvalues --    0.22092   0.22161   0.22386   0.22445   0.22519
 Alpha virt. eigenvalues --    0.22830   0.23059   0.23148   0.23183   0.23391
 Alpha virt. eigenvalues --    0.23468   0.23657   0.23718   0.23813   0.23863
 Alpha virt. eigenvalues --    0.24006   0.24169   0.24442   0.24570   0.24661
 Alpha virt. eigenvalues --    0.24833   0.24905   0.25070   0.25255   0.25517
 Alpha virt. eigenvalues --    0.25734   0.25820   0.25913   0.25994   0.26072
 Alpha virt. eigenvalues --    0.26149   0.26305   0.26692   0.27014   0.27066
 Alpha virt. eigenvalues --    0.27377   0.27454   0.27713   0.28045   0.28074
 Alpha virt. eigenvalues --    0.28307   0.28412   0.28676   0.28724   0.28924
 Alpha virt. eigenvalues --    0.28950   0.29171   0.29465   0.29612   0.29870
 Alpha virt. eigenvalues --    0.30080   0.30301   0.30458   0.30626   0.30825
 Alpha virt. eigenvalues --    0.30986   0.31098   0.31228   0.31311   0.31644
 Alpha virt. eigenvalues --    0.31892   0.31976   0.32281   0.32425   0.32670
 Alpha virt. eigenvalues --    0.32895   0.33010   0.33108   0.33407   0.33670
 Alpha virt. eigenvalues --    0.33882   0.34136   0.34265   0.34632   0.34866
 Alpha virt. eigenvalues --    0.35080   0.35263   0.35565   0.35851   0.36123
 Alpha virt. eigenvalues --    0.36204   0.36467   0.36552   0.36677   0.36864
 Alpha virt. eigenvalues --    0.36873   0.36975   0.37071   0.37193   0.37328
 Alpha virt. eigenvalues --    0.37516   0.37774   0.37924   0.38055   0.38193
 Alpha virt. eigenvalues --    0.38612   0.38814   0.38974   0.39352   0.39377
 Alpha virt. eigenvalues --    0.39541   0.39649   0.39681   0.39799   0.40094
 Alpha virt. eigenvalues --    0.40334   0.40494   0.40875   0.40906   0.41073
 Alpha virt. eigenvalues --    0.41145   0.41326   0.41426   0.41513   0.41755
 Alpha virt. eigenvalues --    0.41888   0.41990   0.42170   0.42385   0.42581
 Alpha virt. eigenvalues --    0.42983   0.43031   0.43136   0.43392   0.43456
 Alpha virt. eigenvalues --    0.43490   0.43645   0.43765   0.43777   0.43882
 Alpha virt. eigenvalues --    0.43967   0.44028   0.44151   0.44335   0.44574
 Alpha virt. eigenvalues --    0.44645   0.44676   0.44824   0.44952   0.45003
 Alpha virt. eigenvalues --    0.45058   0.45210   0.45369   0.45377   0.45529
 Alpha virt. eigenvalues --    0.45622   0.45748   0.45921   0.46026   0.46149
 Alpha virt. eigenvalues --    0.46214   0.46468   0.46593   0.46664   0.46730
 Alpha virt. eigenvalues --    0.46962   0.46984   0.47132   0.47232   0.47315
 Alpha virt. eigenvalues --    0.47532   0.47677   0.47727   0.47997   0.48195
 Alpha virt. eigenvalues --    0.48251   0.48406   0.48576   0.48630   0.48749
 Alpha virt. eigenvalues --    0.48856   0.48901   0.49172   0.49219   0.49447
 Alpha virt. eigenvalues --    0.49612   0.49728   0.49933   0.50198   0.50262
 Alpha virt. eigenvalues --    0.50487   0.50603   0.50752   0.50859   0.50934
 Alpha virt. eigenvalues --    0.51163   0.51264   0.51447   0.51535   0.51722
 Alpha virt. eigenvalues --    0.51761   0.52213   0.52397   0.52465   0.52748
 Alpha virt. eigenvalues --    0.52893   0.52989   0.53188   0.53469   0.53684
 Alpha virt. eigenvalues --    0.53935   0.53989   0.54162   0.54447   0.54694
 Alpha virt. eigenvalues --    0.54779   0.54915   0.55170   0.55362   0.55492
 Alpha virt. eigenvalues --    0.56166   0.56295   0.56528   0.56618   0.56863
 Alpha virt. eigenvalues --    0.57280   0.57516   0.57698   0.58021   0.58276
 Alpha virt. eigenvalues --    0.58282   0.58376   0.58785   0.58847   0.59056
 Alpha virt. eigenvalues --    0.59390   0.59794   0.59908   0.60274   0.60428
 Alpha virt. eigenvalues --    0.60605   0.60707   0.61034   0.61510   0.61604
 Alpha virt. eigenvalues --    0.61816   0.62232   0.62340   0.62596   0.62750
 Alpha virt. eigenvalues --    0.63091   0.63207   0.63411   0.63579   0.63660
 Alpha virt. eigenvalues --    0.64160   0.64258   0.64609   0.64774   0.65071
 Alpha virt. eigenvalues --    0.65434   0.65536   0.65658   0.65857   0.66035
 Alpha virt. eigenvalues --    0.66354   0.66491   0.66709   0.66920   0.67222
 Alpha virt. eigenvalues --    0.67316   0.67470   0.67573   0.67719   0.68068
 Alpha virt. eigenvalues --    0.68183   0.68312   0.68661   0.69074   0.69177
 Alpha virt. eigenvalues --    0.69255   0.69369   0.69583   0.69910   0.70510
 Alpha virt. eigenvalues --    0.70608   0.70933   0.71025   0.71184   0.71460
 Alpha virt. eigenvalues --    0.71541   0.71785   0.71943   0.72036   0.72535
 Alpha virt. eigenvalues --    0.72802   0.72811   0.72965   0.73202   0.73517
 Alpha virt. eigenvalues --    0.73832   0.74059   0.74279   0.74465   0.74715
 Alpha virt. eigenvalues --    0.74913   0.75066   0.75120   0.75480   0.75796
 Alpha virt. eigenvalues --    0.75920   0.76107   0.76502   0.76800   0.76930
 Alpha virt. eigenvalues --    0.77290   0.77397   0.77567   0.77995   0.78260
 Alpha virt. eigenvalues --    0.78417   0.78684   0.78776   0.79220   0.79388
 Alpha virt. eigenvalues --    0.79720   0.79995   0.80112   0.80297   0.80491
 Alpha virt. eigenvalues --    0.80638   0.80698   0.81095   0.81223   0.81311
 Alpha virt. eigenvalues --    0.81737   0.82079   0.82222   0.82404   0.82580
 Alpha virt. eigenvalues --    0.82693   0.82882   0.83183   0.83300   0.83356
 Alpha virt. eigenvalues --    0.83693   0.83760   0.83834   0.83979   0.84438
 Alpha virt. eigenvalues --    0.84461   0.84828   0.85153   0.85369   0.85390
 Alpha virt. eigenvalues --    0.85820   0.86010   0.86198   0.86456   0.86485
 Alpha virt. eigenvalues --    0.86787   0.87069   0.87182   0.87444   0.87502
 Alpha virt. eigenvalues --    0.87833   0.88064   0.88228   0.88330   0.88484
 Alpha virt. eigenvalues --    0.88738   0.89165   0.89281   0.89449   0.89539
 Alpha virt. eigenvalues --    0.89893   0.89994   0.90271   0.90571   0.90628
 Alpha virt. eigenvalues --    0.90732   0.90948   0.91141   0.91304   0.91867
 Alpha virt. eigenvalues --    0.91932   0.92499   0.92673   0.93043   0.93438
 Alpha virt. eigenvalues --    0.93487   0.93619   0.93841   0.94210   0.94568
 Alpha virt. eigenvalues --    0.94714   0.95040   0.95315   0.95525   0.95708
 Alpha virt. eigenvalues --    0.96197   0.96370   0.96705   0.96976   0.97062
 Alpha virt. eigenvalues --    0.97382   0.97685   0.98010   0.98142   0.98389
 Alpha virt. eigenvalues --    0.98682   0.98772   0.99018   0.99379   0.99596
 Alpha virt. eigenvalues --    0.99703   1.00472   1.00555   1.01113   1.01243
 Alpha virt. eigenvalues --    1.01560   1.01767   1.02081   1.02671   1.03023
 Alpha virt. eigenvalues --    1.03176   1.03743   1.04108   1.04336   1.04483
 Alpha virt. eigenvalues --    1.04950   1.05062   1.05246   1.05457   1.05697
 Alpha virt. eigenvalues --    1.05808   1.05903   1.06436   1.06646   1.06986
 Alpha virt. eigenvalues --    1.07481   1.07837   1.08243   1.08411   1.08535
 Alpha virt. eigenvalues --    1.09075   1.09423   1.09600   1.09641   1.09818
 Alpha virt. eigenvalues --    1.09988   1.10542   1.10863   1.11366   1.11752
 Alpha virt. eigenvalues --    1.11963   1.12073   1.12572   1.12828   1.13125
 Alpha virt. eigenvalues --    1.13547   1.13653   1.13768   1.14179   1.14313
 Alpha virt. eigenvalues --    1.14589   1.14709   1.15184   1.15321   1.15529
 Alpha virt. eigenvalues --    1.15623   1.15720   1.16057   1.16307   1.16591
 Alpha virt. eigenvalues --    1.16829   1.17368   1.17513   1.17774   1.18212
 Alpha virt. eigenvalues --    1.18390   1.18706   1.18935   1.19222   1.19367
 Alpha virt. eigenvalues --    1.19518   1.19989   1.20181   1.20371   1.20470
 Alpha virt. eigenvalues --    1.20806   1.21144   1.21422   1.21676   1.21712
 Alpha virt. eigenvalues --    1.22316   1.22489   1.23080   1.23501   1.23547
 Alpha virt. eigenvalues --    1.23772   1.24102   1.24611   1.25224   1.25429
 Alpha virt. eigenvalues --    1.25790   1.25957   1.26154   1.26538   1.26763
 Alpha virt. eigenvalues --    1.26980   1.27054   1.27305   1.27495   1.27937
 Alpha virt. eigenvalues --    1.28267   1.28292   1.28646   1.28867   1.29028
 Alpha virt. eigenvalues --    1.29220   1.29426   1.29636   1.29996   1.30198
 Alpha virt. eigenvalues --    1.30431   1.30833   1.31179   1.31402   1.31696
 Alpha virt. eigenvalues --    1.32343   1.32649   1.32706   1.33052   1.33228
 Alpha virt. eigenvalues --    1.33417   1.33573   1.33890   1.34025   1.34346
 Alpha virt. eigenvalues --    1.34548   1.34828   1.35474   1.35963   1.36189
 Alpha virt. eigenvalues --    1.36371   1.36389   1.36728   1.37251   1.37615
 Alpha virt. eigenvalues --    1.37846   1.38279   1.38569   1.38676   1.38826
 Alpha virt. eigenvalues --    1.39400   1.39657   1.39956   1.40099   1.40734
 Alpha virt. eigenvalues --    1.41127   1.41397   1.41453   1.41693   1.42276
 Alpha virt. eigenvalues --    1.42406   1.42753   1.42915   1.43506   1.43668
 Alpha virt. eigenvalues --    1.43727   1.44463   1.44644   1.44840   1.45190
 Alpha virt. eigenvalues --    1.45514   1.45717   1.46107   1.46567   1.47007
 Alpha virt. eigenvalues --    1.47038   1.47543   1.47765   1.48207   1.48668
 Alpha virt. eigenvalues --    1.48955   1.49390   1.49543   1.50063   1.50446
 Alpha virt. eigenvalues --    1.50779   1.51033   1.51183   1.51361   1.51539
 Alpha virt. eigenvalues --    1.52083   1.52297   1.52577   1.52640   1.52968
 Alpha virt. eigenvalues --    1.53109   1.53514   1.53892   1.54041   1.54316
 Alpha virt. eigenvalues --    1.54547   1.55026   1.55322   1.55532   1.55574
 Alpha virt. eigenvalues --    1.56001   1.56066   1.56432   1.56836   1.56879
 Alpha virt. eigenvalues --    1.57381   1.57567   1.57709   1.57831   1.58179
 Alpha virt. eigenvalues --    1.58373   1.58503   1.58666   1.58955   1.59356
 Alpha virt. eigenvalues --    1.59718   1.59871   1.59953   1.60165   1.60385
 Alpha virt. eigenvalues --    1.60781   1.60975   1.61246   1.61565   1.61673
 Alpha virt. eigenvalues --    1.61834   1.61976   1.62410   1.62628   1.62859
 Alpha virt. eigenvalues --    1.62931   1.63153   1.63537   1.63676   1.63882
 Alpha virt. eigenvalues --    1.64056   1.64449   1.64695   1.64827   1.65132
 Alpha virt. eigenvalues --    1.65434   1.65500   1.65584   1.65847   1.65942
 Alpha virt. eigenvalues --    1.66207   1.66401   1.66574   1.66689   1.66830
 Alpha virt. eigenvalues --    1.67073   1.67336   1.67469   1.67598   1.67878
 Alpha virt. eigenvalues --    1.67957   1.68157   1.68365   1.68730   1.68816
 Alpha virt. eigenvalues --    1.69284   1.69818   1.70006   1.70139   1.70575
 Alpha virt. eigenvalues --    1.70746   1.70882   1.71135   1.71288   1.71539
 Alpha virt. eigenvalues --    1.71760   1.72091   1.72678   1.72877   1.73111
 Alpha virt. eigenvalues --    1.73176   1.73348   1.73885   1.74473   1.74639
 Alpha virt. eigenvalues --    1.74786   1.75097   1.75323   1.75485   1.75841
 Alpha virt. eigenvalues --    1.76141   1.76528   1.76699   1.76803   1.77473
[...]
 Alpha virt. eigenvalues --    3.33741   3.34068   3.34283   3.34530   3.34852
 Alpha virt. eigenvalues --    3.35021   3.35235   3.35821   3.35907   3.36065
 Alpha virt. eigenvalues --    3.36167   3.36449   3.36794   3.37114   3.37366
 Alpha virt. eigenvalues --    3.37603   3.37960   3.38084   3.38382   3.38517
 Alpha virt. eigenvalues --    3.39102   3.39367   3.39823   3.39958   3.40067
 Alpha virt. eigenvalues --    3.40348   3.40478   3.40606   3.40657   3.40772
 Alpha virt. eigenvalues --    3.41361   3.41505   3.41669   3.41785   3.42054
 Alpha virt. eigenvalues --    3.42150   3.42379   3.42513   3.42698   3.43257
 Alpha virt. eigenvalues --    3.43329   3.43647   3.43875   3.44110   3.44185
 Alpha virt. eigenvalues --    3.44563   3.44698   3.44878   3.45051   3.45299
 Alpha virt. eigenvalues --    3.45750   3.45836   3.46188   3.46290   3.46396
 Alpha virt. eigenvalues --    3.46680   3.47199   3.47307   3.47438   3.47925
 Alpha virt. eigenvalues --    3.48163   3.48320   3.48444   3.49212   3.49440
 Alpha virt. eigenvalues --    3.49765   3.49820   3.50127   3.50162   3.50536
 Alpha virt. eigenvalues --    3.50966   3.51122   3.51287   3.51870   3.52136
 Alpha virt. eigenvalues --    3.52340   3.52704   3.52948   3.53156   3.53249
 Alpha virt. eigenvalues --    3.53418   3.53932   3.54094   3.54429   3.54461
 Alpha virt. eigenvalues --    3.54786   3.54908   3.55058   3.55104   3.55377
 Alpha virt. eigenvalues --    3.55650   3.55839   3.55983   3.56155   3.56562
 Alpha virt. eigenvalues --    3.56764   3.56836   3.56956   3.57416   3.57857
 Alpha virt. eigenvalues --    3.58098   3.58137   3.58429   3.58602   3.59056
 Alpha virt. eigenvalues --    3.59196   3.59413   3.59416   3.59799   3.60118
 Alpha virt. eigenvalues --    3.60166   3.60333   3.60779   3.61369   3.61534
 Alpha virt. eigenvalues --    3.61743   3.61943   3.62177   3.62478   3.62770
 Alpha virt. eigenvalues --    3.62861   3.63024   3.63100   3.63564   3.63762
 Alpha virt. eigenvalues --    3.63891   3.64633   3.64702   3.64839   3.65063
 Alpha virt. eigenvalues --    3.65282   3.65594   3.66037   3.66337   3.66477
 Alpha virt. eigenvalues --    3.66637   3.67151   3.67462   3.67554   3.67815
 Alpha virt. eigenvalues --    3.67955   3.68087   3.68326   3.68512   3.68672
 Alpha virt. eigenvalues --    3.68972   3.69667   3.69811   3.70383   3.70515
 Alpha virt. eigenvalues --    3.70736   3.71248   3.71871   3.72287   3.72685
 Alpha virt. eigenvalues --    3.72920   3.73392   3.73771   3.74348   3.74762
 Alpha virt. eigenvalues --    3.74866   3.75124   3.75327   3.75976   3.76273
 Alpha virt. eigenvalues --    3.76441   3.76980   3.77341   3.77627   3.78224
 Alpha virt. eigenvalues --    3.78678   3.78914   3.79523   3.79700   3.80309
 Alpha virt. eigenvalues --    3.80567   3.80662   3.80821   3.80946   3.81763
 Alpha virt. eigenvalues --    3.82065   3.82185   3.82795   3.83090   3.83219
 Alpha virt. eigenvalues --    3.83439   3.83609   3.84406   3.85079   3.85528
 Alpha virt. eigenvalues --    3.85919   3.86334   3.86557   3.86766   3.87490
 Alpha virt. eigenvalues --    3.88584   3.88720   3.89364   3.89817   3.90031
 Alpha virt. eigenvalues --    3.90126   3.90881   3.91159   3.91446   3.91928
 Alpha virt. eigenvalues --    3.92435   3.92993   3.93250   3.93749   3.94034
 Alpha virt. eigenvalues --    3.94442   3.94773   3.95044   3.95864   3.96027
 Alpha virt. eigenvalues --    3.97287   3.97818   3.97905   3.98215   3.98607
 Alpha virt. eigenvalues --    3.98814   3.99042   3.99373   3.99765   3.99927
 Alpha virt. eigenvalues --    4.00588   4.01035   4.01355   4.01652   4.01844
 Alpha virt. eigenvalues --    4.02113   4.02195   4.02662   4.03214   4.03494
 Alpha virt. eigenvalues --    4.03721   4.04056   4.04219   4.04266   4.04605
 Alpha virt. eigenvalues --    4.04763   4.04971   4.05830   4.06364   4.06471
 Alpha virt. eigenvalues --    4.06965   4.07352   4.07656   4.08385   4.08820
 Alpha virt. eigenvalues --    4.09151   4.09453   4.09793   4.09819   4.10068
 Alpha virt. eigenvalues --    4.10321   4.10797   4.10979   4.11654   4.12255
 Alpha virt. eigenvalues --    4.12289   4.12954   4.13291   4.13629   4.14353
 Alpha virt. eigenvalues --    4.14539   4.14639   4.14897   4.15385   4.16121
 Alpha virt. eigenvalues --    4.16249   4.16444   4.17068   4.17263   4.17534
 Alpha virt. eigenvalues --    4.17950   4.18286   4.18606   4.19019   4.19075
 Alpha virt. eigenvalues --    4.19479   4.19659   4.19847   4.20053   4.20421
 Alpha virt. eigenvalues --    4.20672   4.20858   4.21578   4.22078   4.22587
 Alpha virt. eigenvalues --    4.22807   4.23221   4.23365   4.23782   4.24038
 Alpha virt. eigenvalues --    4.24135   4.24388   4.24598   4.25026   4.25375
 Alpha virt. eigenvalues --    4.25687   4.25810   4.26033   4.26239   4.26357
 Alpha virt. eigenvalues --    4.27040   4.27239   4.27569   4.27964   4.28087
 Alpha virt. eigenvalues --    4.28387   4.28424   4.28666   4.28904   4.29689
 Alpha virt. eigenvalues --    4.29971   4.30300   4.30672   4.31092   4.31758
 Alpha virt. eigenvalues --    4.32057   4.32335   4.32797   4.33468   4.33932
 Alpha virt. eigenvalues --    4.34164   4.35016   4.35181   4.35570   4.36125
 Alpha virt. eigenvalues --    4.36586   4.36747   4.37132   4.37861   4.38066
 Alpha virt. eigenvalues --    4.38424   4.38711   4.38896   4.39204   4.39578
 Alpha virt. eigenvalues --    4.39757   4.39993   4.40690   4.41259   4.41592
 Alpha virt. eigenvalues --    4.42578   4.42953   4.43463   4.44752   4.45004
 Alpha virt. eigenvalues --    4.45656   4.45919   4.46848   4.47953   4.49029
 Alpha virt. eigenvalues --    4.49799   4.50622   4.52527   4.52863   4.53708
 Alpha virt. eigenvalues --    4.53874   4.54153   4.54894   4.55431   4.56101
 Alpha virt. eigenvalues --    4.56630   4.57381   4.58210   4.58343   4.58518
 Alpha virt. eigenvalues --    4.59457   4.60033   4.60414   4.61943   4.62284
 Alpha virt. eigenvalues --    4.62772   4.63101   4.63887   4.64036   4.64520
 Alpha virt. eigenvalues --    4.65014   4.65690   4.66202   4.66746   4.67295
 Alpha virt. eigenvalues --    4.67371   4.68017   4.68399   4.68551   4.68855
 Alpha virt. eigenvalues --    4.69160   4.69772   4.69996   4.70227   4.70580
 Alpha virt. eigenvalues --    4.71900   4.72545   4.72954   4.73169   4.74222
 Alpha virt. eigenvalues --    4.74410   4.74986   4.75762   4.76001   4.76793
 Alpha virt. eigenvalues --    4.77009   4.78592   4.79797   4.80387   4.80703
 Alpha virt. eigenvalues --    4.81323   4.81454   4.81766   4.82235   4.82467
 Alpha virt. eigenvalues --    4.83044   4.83747   4.84215   4.84461   4.85914
 Alpha virt. eigenvalues --    4.86226   4.86741   4.87072   4.87426   4.87741
 Alpha virt. eigenvalues --    4.87979   4.88564   4.89339   4.90363   4.90813
 Alpha virt. eigenvalues --    4.91207   4.91891   4.92629   4.92846   4.93108
 Alpha virt. eigenvalues --    4.93696   4.94720   4.94902   4.95469   4.96067
 Alpha virt. eigenvalues --    4.96715   4.97677   4.98982   4.99103   5.00901
 Alpha virt. eigenvalues --    5.01276   5.01603   5.02106   5.02733   5.02898
 Alpha virt. eigenvalues --    5.03283   5.04692   5.04969   5.05401   5.05973
 Alpha virt. eigenvalues --    5.06644   5.06721   5.07388   5.07503   5.08375
 Alpha virt. eigenvalues --    5.09167   5.09408   5.09841   5.10086   5.10443
 Alpha virt. eigenvalues --    5.11014   5.11556   5.12512   5.13379   5.14288
 Alpha virt. eigenvalues --    5.14539   5.15444   5.15869   5.16278   5.17254
 Alpha virt. eigenvalues --    5.18800   5.19017   5.19406   5.19677   5.20529
 Alpha virt. eigenvalues --    5.21236   5.22162   5.22843   5.23240   5.24833
 Alpha virt. eigenvalues --    5.25155   5.25444   5.26273   5.27362   5.28289
 Alpha virt. eigenvalues --    5.29842   5.31567   5.32244   5.33486   5.34099
 Alpha virt. eigenvalues --    5.34299   5.35397   5.35654   5.36799   5.37641
 Alpha virt. eigenvalues --    5.38084   5.38784   5.39734   5.40282   5.41204
 Alpha virt. eigenvalues --    5.41447   5.42358   5.43251   5.43813   5.44899
 Alpha virt. eigenvalues --    5.45182   5.46303   5.46530   5.46885   5.47422
 Alpha virt. eigenvalues --    5.47722   5.48320   5.48728   5.49021   5.50144
 Alpha virt. eigenvalues --    5.50860   5.51587   5.52829   5.53784   5.55366
 Alpha virt. eigenvalues --    5.56293   5.57406   5.57877   5.58488   5.61018
 Alpha virt. eigenvalues --    5.62895   5.65430   5.66060   5.68045   5.69474
 Alpha virt. eigenvalues --    5.70626   5.71633   5.73247   5.73320   5.74661
 Alpha virt. eigenvalues --    5.74748   5.75761   5.76861   5.78564   5.79191
 Alpha virt. eigenvalues --    5.80066   5.81526   5.83396   5.83796   5.84714
 Alpha virt. eigenvalues --    5.92519   5.96624   5.97766   5.98865   5.99469
 Alpha virt. eigenvalues --    6.00958   6.01435   6.02856   6.04962   6.05182
 Alpha virt. eigenvalues --    6.05395   6.05860   6.07060   6.09216   6.11550
 Alpha virt. eigenvalues --    6.13299   6.14325   6.35788   6.41676   6.50670
 Alpha virt. eigenvalues --    6.55259   6.80519   7.01715   7.09174  22.39273
 Alpha virt. eigenvalues --   22.44979  22.49928  22.56255  22.56739  22.56909
 Alpha virt. eigenvalues --   22.57839  22.59094  22.59328  22.59734  22.60118
 Alpha virt. eigenvalues --   22.63800  22.64051  22.64057  22.64427  22.68302
 Alpha virt. eigenvalues --   22.68363  22.68405  22.69593  22.83014  22.84192
 Alpha virt. eigenvalues --   22.84476  22.85455  22.86600  22.86996  22.88246
 Alpha virt. eigenvalues --   22.90138  22.90649  22.90801  22.92270  22.93893
 Alpha virt. eigenvalues --   22.93986  22.95027  23.00771  23.04481  23.06156
 Alpha virt. eigenvalues --   23.11239  23.11486  23.13824  23.14153  23.14448
 Alpha virt. eigenvalues --   23.15083  23.15892  23.16499  23.17189  23.17649
 Alpha virt. eigenvalues --   23.18872  23.19708  23.49587  23.52060  23.52473
 Alpha virt. eigenvalues --   32.75825  32.81538  32.83041  32.84454  32.86273
 Alpha virt. eigenvalues --   32.87247  32.87705  32.89964  43.96440
          Condensed to atoms (all electrons):
 Mulliken charges:
               1
     1  C    0.359666
     2  C   -0.148841
     3  C   -0.401658
     4  C    0.374091
     5  H    0.119791
     6  C   -0.366845
     7  C    0.378658
     8  H    0.122431
     9  C   -0.361329
    10  C   -0.148445
    11  H    0.151143
    12  C   -0.162431
    13  H    0.095276
    14  H    0.089999
    15  H    0.090788
    16  C    0.283202
    17  C    0.063852
    18  C   -0.364829
    19  C    0.352797
    20  H    0.135034
    21  C   -0.319813
    22  C    0.316889
    23  H    0.130802
    24  C   -0.308612
    25  C   -0.152568
    26  H    0.131295
    27  C   -0.159232
    28  H    0.091818
    29  H    0.094618
    30  H    0.097300
    31  C    0.292538
    32  C   -0.171654
    33  C   -0.275182
    34  C    0.349179
    35  H    0.118670
    36  C   -0.405102
    37  C    0.357613
    38  H    0.117528
    39  C   -0.325208
    40  C   -0.174384
    41  H    0.132762
    42  C   -0.124016
    43  H    0.091516
    44  H    0.115757
    45  C    0.013569
    46  C    0.065194
    47  N   -0.194180
    48  N   -0.200840
    49  O   -0.317725
    50  C    0.034508
    51  C    0.037806
    52  N   -0.196133
    53  N   -0.193535
    54  C   -0.052801
    55  C   -0.015993
    56  N   -0.222003
    57  N   -0.189448
    58  C    0.034391
    59  C    0.023740
    60  N   -0.189186
    61  N   -0.188519
    62  H    0.084922
    63  C   -0.173669
    64  C   -0.179361
    65  C   -0.173633
    66  C   -0.185738
    67  H    0.087361
    68  C   -0.187165
    69  H    0.113674
    70  H    0.107045
    71  C   -0.176199
    72  H    0.094548
    73  H    0.114680
    74  C   -0.188062
    75  H    0.098629
    76  H    0.115059
    77  H    0.106412
    78  H    0.114052
    79  H    0.093402
    80  H    0.058178
    81  C   -0.182776
    82  H    0.101630
    83  H    0.111027
    84  C   -0.176417
    85  H    0.113373
    86  H    0.092310
    87  C   -0.198171
    88  H    0.092876
    89  H    0.113330
    90  H    0.113382
    91  H    0.103058
    92  H    0.054898
    93  H    0.058404
    94  C   -0.195059
    95  H    0.100243
    96  H    0.108563
    97  C   -0.176443
    98  H    0.094233
    99  H    0.112626
   100  C   -0.200370
   101  H    0.093787
   102  H    0.113037
   103  H    0.112881
   104  H    0.105965
   105  H    0.058561
   106  H    0.062609
   107  C   -0.184884
   108  H    0.108971
   109  H    0.104462
   110  C   -0.185647
   111  H    0.092406
   112  H    0.112979
   113  C   -0.176836
   114  H    0.112671
   115  H    0.093329
   116  H    0.109947
   117  H    0.103557
   118  H    0.063641
 Sum of Mulliken charges =   0.00000
 Mulliken charges with hydrogens summed into heavy atoms:
               1
     1  C    0.359666
     2  C   -0.058842
     3  C   -0.281867
     4  C    0.374091
     6  C   -0.244414
     7  C    0.378658
     9  C   -0.210186
    10  C   -0.053168
    12  C   -0.071644
    16  C    0.283202
    17  C    0.158470
    18  C   -0.229795
    19  C    0.352797
    21  C   -0.189011
    22  C    0.316889
    24  C   -0.177317
    25  C   -0.060750
    27  C   -0.061932
    31  C    0.292538
    32  C   -0.086732
    33  C   -0.156512
    34  C    0.349179
    36  C   -0.287574
    37  C    0.357613
    39  C   -0.192446
    40  C   -0.082868
    42  C   -0.008259
    45  C    0.072129
    46  C    0.123598
    47  N   -0.194180
    48  N   -0.200840
    49  O   -0.317725
    50  C    0.089406
    51  C    0.095983
    52  N   -0.196133
    53  N   -0.193535
    54  C    0.040601
    55  C    0.071368
    56  N   -0.222003
    57  N   -0.189448
    58  C    0.097000
    59  C    0.087380
    60  N   -0.189186
    61  N   -0.188519
    63  C    0.039764
    64  C    0.033296
    65  C    0.035173
    66  C    0.034982
    68  C    0.022064
    71  C    0.037490
    74  C    0.032402
    81  C    0.022907
    84  C    0.029789
    87  C    0.018269
    94  C    0.011800
    97  C    0.030381
   100  C    0.018476
   107  C    0.020501
   110  C    0.020354
   113  C    0.036667
 Electronic spatial extent (au):  <R**2>=          50428.1392
 Charge=              0.0000 electrons
 Dipole moment (field-independent basis, Debye):
    X=             -1.7452    Y=              1.2001    Z=              4.1974  Tot=              4.7015
 Quadrupole moment (field-independent basis, Debye-Ang):
   XX=           -346.9642   YY=           -338.3664   ZZ=           -348.7030
   XY=             -3.4923   XZ=             17.2781   YZ=             17.0278
 Traceless Quadrupole moment (field-independent basis, Debye-Ang):
   XX=             -2.2864   YY=              6.3115   ZZ=             -4.0251
   XY=             -3.4923   XZ=             17.2781   YZ=             17.0278
 Octapole moment (field-independent basis, Debye-Ang**2):
  XXX=            102.4366  YYY=             41.6135  ZZZ=            245.2142  XYY=           -116.3752
  XXY=             32.1312  XXZ=            -34.2072  XZZ=            -59.5073  YZZ=            -96.2563
  YYZ=              0.1788  XYZ=             24.3529
 Hexadecapole moment (field-independent basis, Debye-Ang**3):
 XXXX=         -27760.8977 YYYY=         -22231.5116 ZZZZ=         -17879.2609 XXXY=            -63.0823
 XXXZ=             42.3927 YYYX=            -82.4617 YYYZ=            219.9595 ZZZX=            637.8865
 ZZZY=            260.1669 XXYY=          -8287.9895 XXZZ=          -7858.9301 YYZZ=          -6577.2756
 XXYZ=            186.2143 YYXZ=            209.6915 ZZXY=           -156.7266
 N-N= 8.475273200501D+03 E-N=-2.273876552435D+04  KE= 2.478090531294D+03
 Leave Link  601 at Mon Oct 18 04:11:39 2021, MaxMem=  7864320000 cpu:              47.7 elap:               1.9
 (Enter /apps/gaussian/g16-c01-avx/g16/l9999.exe)
 Unable to Open any file for archive entry.
 1\1\GINC-CX3-6-2\SP\RPBE1PBE\def2TZVP\C51H58N8O1\ATARZIA\18-Oct-2021\0
 \\#P PBE1PBE/Def2TZVP SP SCF=(YQC,MaxCycle=900) int=(Grid=Superfinegri
 d) EmpiricalDispersion=GD3 SCRF=(PCM,Solvent=Chloroform)\\_3_alde1_4_a
 mi3_1_opt_cfm\\0,1\C,0,-5.3021,-1.3946,-0.5137\C,0,-5.554,-0.917,0.835
 7\C,0,-4.6503,-2.6017,-0.7621\C,0,-4.3466,-2.9816,-2.0651\H,0,-4.384,-
 3.2261,0.0769\C,0,-4.6634,-2.1307,-3.1258\C,0,-5.2911,-0.9137,-2.8905\
 H,0,-4.3881,-2.4348,-4.1242\C,0,-5.6337,-0.5717,-1.582\C,0,-5.4604,0.0
 712,-3.9509\H,0,-6.1347,0.37,-1.4189\C,0,-3.6588,-4.2401,-2.3113\H,0,-
 5.1005,-0.2267,-4.9447\H,0,-6.1126,0.0299,0.8945\H,0,-3.3337,-4.7901,-
 1.4145\C,0,1.9642,-2.3664,-1.3295\C,0,2.6494,-2.8841,-0.136\C,0,2.2227
 ,-1.0694,-1.7704\C,0,1.5605,-0.5586,-2.882\H,0,2.9437,-0.4577,-1.2509\
 C,0,0.6345,-1.3599,-3.547\C,0,0.3992,-2.6729,-3.1443\H,0,0.1123,-0.965
 1,-4.4078\C,0,1.0647,-3.1687,-2.0255\C,0,-0.4911,-3.5252,-3.9214\H,0,0
 .8695,-4.1852,-1.7199\C,0,1.8416,0.786,-3.3693\H,0,-1.0148,-3.0348,-4.
 7561\H,0,2.4046,-3.9411,0.0911\H,0,1.1062,1.2031,-4.0742\C,0,-2.1162,1
 .5195,0.5934\C,0,-2.4628,0.7669,1.7926\C,0,-3.0934,1.8628,-0.3375\C,0,
 -2.745,2.4612,-1.5463\H,0,-4.1186,1.6051,-0.123\C,0,-1.4144,2.7901,-1.
 7875\C,0,-0.4314,2.4882,-0.849\H,0,-1.137,3.264,-2.7147\C,0,-0.7852,1.
 8224,0.3224\C,0,0.9661,2.8033,-1.1019\H,0,-0.0179,1.5476,1.0334\C,0,-3
 .767,2.6053,-2.5779\H,0,1.6875,2.3684,-0.3924\H,0,-4.7934,2.4292,-2.23
 95\C,0,-3.91,-0.0912,3.4011\C,0,-5.2537,-0.8014,3.1178\N,0,-3.6211,0.7
 624,2.2886\N,0,-5.1138,-1.4896,1.8708\O,0,3.4044,-2.258,0.5619\C,0,-2.
 7409,-5.8941,-3.6787\C,0,-1.4653,-5.5688,-4.4873\N,0,-3.4481,-4.6695,-
 3.4779\N,0,-0.6125,-4.7561,-3.6776\C,0,-5.8542,2.3409,-4.5469\C,0,-4.3
 82,2.7242,-4.8697\N,0,-5.8995,1.2204,-3.6587\N,0,-3.456,2.7864,-3.7863
 \C,0,3.0931,2.7445,-3.4892\C,0,2.7229,3.7027,-2.3262\N,0,2.8815,1.4112
 ,-3.0263\N,0,1.3299,3.5253,-2.0703\H,0,-1.6399,0.1718,2.2219\C,0,4.561
 ,2.9351,-3.8665\C,0,-0.724,-6.8595,-4.8391\C,0,-5.571,-1.759,4.2618\C,
 0,-4.365,4.0431,-5.6486\H,0,-3.9727,1.9397,-5.5248\C,0,-5.1504,3.9041,
 -6.9487\H,0,-3.329,4.316,-5.8532\H,0,-4.8032,4.8262,-5.026\C,0,-6.5827
 ,3.4536,-6.6726\H,0,-4.6575,3.1705,-7.5912\H,0,-5.1582,4.8592,-7.4774\
 C,0,-6.5993,2.1547,-5.8735\H,0,-7.1041,4.2295,-6.1072\H,0,-7.1155,3.31
 22,-7.6152\H,0,-6.1279,1.3573,-6.4524\H,0,-7.6279,1.8536,-5.662\H,0,-6
 .3201,3.1729,-3.9995\H,0,-1.7816,-5.0436,-5.406\C,0,-1.6197,-7.8107,-5
 .623\H,0,-0.3955,-7.33,-3.9109\H,0,0.1656,-6.6072,-5.4198\C,0,-2.8762,
 -8.1349,-4.8222\H,0,-1.0719,-8.7276,-5.8487\H,0,-1.9029,-7.3465,-6.570
 5\C,0,-3.6271,-6.8554,-4.4749\H,0,-2.5969,-8.654,-3.9025\H,0,-3.5273,-
 8.7964,-5.397\H,0,-4.5162,-7.083,-3.883\H,0,-3.9514,-6.3495,-5.3859\H,
 0,-2.4379,-6.361,-2.724\H,0,-6.0294,-0.0171,3.0562\C,0,-5.6736,-0.9879
 ,5.5742\H,0,-4.7823,-2.5107,4.3218\H,0,-6.5102,-2.2733,4.0494\C,0,-4.3
 853,-0.2188,5.8558\H,0,-6.5076,-0.2847,5.5137\H,0,-5.8781,-1.6796,6.39
 38\C,0,-4.04,0.7118,4.6973\H,0,-3.5668,-0.9272,6.0038\H,0,-4.4937,0.36
 38,6.773\H,0,-3.0976,1.2287,4.893\H,0,-4.8179,1.4666,4.5698\H,0,-3.125
 3,-0.8577,3.5309\H,0,2.4384,2.9937,-4.343\C,0,4.8369,4.3805,-4.2639\H,
 0,4.8035,2.2608,-4.6903\H,0,5.1765,2.6533,-3.0108\C,0,4.4654,5.3269,-3
 .1268\H,0,4.2498,4.6315,-5.1505\H,0,5.8926,4.4959,-4.5168\C,0,3.0024,5
 .1459,-2.7393\H,0,4.6399,6.3614,-3.4291\H,0,5.0984,5.1188,-2.2611\H,0,
 2.744,5.8053,-1.9084\H,0,2.3535,5.3963,-3.58\H,0,3.3435,3.4231,-1.4562
 \\Version=ES64L-G16RevC.01\State=1-A\HF=-2489.5932954\RMSD=2.061e-09\D
 ipole=-1.2092537,-0.2895393,-1.3694101\Quadrupole=-19.0880444,3.609218
 3,15.4788261,2.7886032,-5.7175606,-0.071786\PG=C01 [X(C51H58N8O1)]\\@
 The archive entry for this job was punched.


  THE LARGE PRINT GIVETH,
  AND THE SMALL PRINT TAKETH AWAY.

                     -- TOM WAITS
 Job cpu time:       1 days 23 hours 43 minutes 27.5 seconds.
 Elapsed time:       0 days  1 hours 30 minutes 21.7 seconds.
 File lengths (MBytes):  RWF=   3704 Int=      0 D2E=      0 Chk=    296 Scr=     16
 Normal termination of Gaussian 16 at Mon Oct 18 04:11:39 2021.
