 Entering Gaussian System, Link 0=g16
 Initial command:
 /apps/gaussian/g16-c01-avx/g16/l1.exe "/rds/general/ephemeral/user/atarzia/ephemeral/xtb_spe_DFT/Gau-2103708.inp" -scrdir="/rds/general/ephemeral/user/atarzia/ephemeral/xtb_spe_DFT/"
 Entering Link 1 = /apps/gaussian/g16-c01-avx/g16/l1.exe PID=   2103709.
  
 Copyright (c) 1988-2019, Gaussian, Inc.  All Rights Reserved.
  
 This is part of the Gaussian(R) 16 program.  It is based on
 the Gaussian(R) 09 system (copyright 2009, Gaussian, Inc.),
 the Gaussian(R) 03 system (copyright 2003, Gaussian, Inc.),
 the Gaussian(R) 98 system (copyright 1998, Gaussian, Inc.),
 the Gaussian(R) 94 system (copyright 1995, Gaussian, Inc.),
 the Gaussian 92(TM) system (copyright 1992, Gaussian, Inc.),
 the Gaussian 90(TM) system (copyright 1990, Gaussian, Inc.),
 the Gaussian 88(TM) system (copyright 1988, Gaussian, Inc.),
 the Gaussian 86(TM) system (copyright 1986, Carnegie Mellon
 University), and the Gaussian 82(TM) system (copyright 1983,
 Carnegie Mellon University). Gaussian is a federally registered
 trademark of Gaussian, Inc.
  
 This software contains proprietary and confidential information,
 including trade secrets, belonging to Gaussian, Inc.
  
 This software is provided under written license and may be
 used, copied, transmitted, or stored only in accord with that
 written license.
  
 The following legend is applicable only to US Government
 contracts under FAR:
  
                    RESTRICTED RIGHTS LEGEND
  
 Use, reproduction and disclosure by the US Government is
 subject to restrictions as set forth in subparagraphs (a)
 and (c) of the Commercial Computer Software - Restricted
 Rights clause in FAR 52.227-19.
  
 Gaussian, Inc.
 340 Quinnipiac St., Bldg. 40, Wallingford CT 06492
  
  
 ---------------------------------------------------------------
 Warning -- This program may not be used in any manner that
 competes with the business of Gaussian, Inc. or will provide
 assistance to any competitor of Gaussian, Inc.  The licensee
 of this program is prohibited from giving any competitor of
 Gaussian, Inc. access to this program.  By using this program,
 the user acknowledges that Gaussian, Inc. is engaged in the
 business of creating and licensing software in the field of
 computational chemistry and represents and warrants to the
 licensee that it is not a competitor of Gaussian, Inc. and that
 it will not use this program in any manner prohibited above.
 ---------------------------------------------------------------
  

 Cite this work as:
 Gaussian 16, Revision C.01,
 M. J. Frisch, G. W. Trucks, H. B. Schlegel, G. E. Scuseria, 
 M. A. Robb, J. R. Cheeseman, G. Scalmani, V. Barone, 
 G. A. Petersson, H. Nakatsuji, X. Li, M. Caricato, A. V. Marenich, 
 J. Bloino, B. G. Janesko, R. Gomperts, B. Mennucci, H. P. Hratchian, 
 J. V. Ortiz, A. F. Izmaylov, J. L. Sonnenberg, D. Williams-Young, 
 F. Ding, F. Lipparini, F. Egidi, J. Goings, B. Peng, A. Petrone, 
 T. Henderson, D. Ranasinghe, V. G. Zakrzewski, J. Gao, N. Rega, 
 G. Zheng, W. Liang, M. Hada, M. Ehara, K. Toyota, R. Fukuda, 
 J. Hasegawa, M. Ishida, T. Nakajima, Y. Honda, O. Kitao, H. Nakai, 
 T. Vreven, K. Throssell, J. A. Montgomery, Jr., J. E. Peralta, 
 F. Ogliaro, M. J. Bearpark, J. J. Heyd, E. N. Brothers, K. N. Kudin, 
 V. N. Staroverov, T. A. Keith, R. Kobayashi, J. Normand, 
 K. Raghavachari, A. P. Rendell, J. C. Burant, S. S. Iyengar, 
 J. Tomasi, M. Cossi, J. M. Millam, M. Klene, C. Adamo, R. Cammi, 
 J. W. Ochterski, R. L. Martin, K. Morokuma, O. Farkas, 
 J. B. Foresman, and D. J. Fox, Gaussian, Inc., Wallingford CT, 2019.
 
 ******************************************
 Gaussian 16:  ES64L-G16RevC.01  3-Jul-2019
                11-Nov-2021 
 ******************************************
 %chk=_3_alde1_6_ami1_1_opt_dcm_mp2.chk
 %mem=60000mb
 %nprocshared=32
 Will use up to   32 processors via shared memory.
 ----------------------------------------------------------------------
 #P MP2/aug-cc-pVDZ SP SCF=(YQC,MaxCycle=900) int=(Grid=Superfinegrid) 
 SCRF=(PCM,Solvent=Dichloromethane)
 ----------------------------------------------------------------------
 1/38=1,172=1/1;
 2/12=2,17=6,18=5,40=1/2;
 3/5=16,7=10,11=9,25=1,30=1,70=2201,72=9,75=-7/1,2,3;
 4//1;
 5/5=2,7=900,8=4,13=1,38=1,53=9/8,2,8;
 8/10=1/1;
 9/16=-3/6;
 6/7=2,8=2,9=2,10=2/1;
 99/5=1,9=1/99;
 Leave Link    1 at Thu Nov 11 13:37:58 2021, MaxMem=  7864320000 cpu:               7.0 elap:               0.2
 (Enter /apps/gaussian/g16-c01-avx/g16/l101.exe)
 -----------------------------
 _3_alde1_6_ami1_1_opt_dcm_mp2
 -----------------------------
 Symbolic Z-matrix:
 Charge =  0 Multiplicity = 1
 C                    -2.8508   -2.1294   -0.3838 
 C                    -2.8718   -3.1333   -1.505 
 C                    -2.5694   -2.583     0.894 
 C                    -2.5464   -1.7136    1.9811 
 H                    -2.3436   -3.623     1.0593 
 C                    -2.8053   -0.3651    1.7745 
 C                    -3.1051    0.1056    0.4981 
 H                    -2.8027    0.3374    2.5936 
 C                    -3.1173   -0.7828   -0.5781 
 C                    -3.4604    1.5035    0.2943 
 H                    -3.3581   -0.4169   -1.5668 
 C                    -2.2394   -2.239     3.3046 
 H                    -3.5578    1.8316   -0.753 
 H                    -1.8475   -1.517     4.0376 
 C                     1.9178   -2.06     -0.1443 
 C                     1.9376   -2.0602   -1.653 
 C                     2.6812   -1.1536    0.5727 
 C                     2.6623   -1.1525    1.9674 
 H                     3.287    -0.4209    0.0657 
 C                     1.863    -2.0641    2.6413 
 C                     1.102    -2.9897    1.931 
 H                     1.8274   -2.0875    3.7197 
 C                     1.1298   -2.9788    0.5378 
 C                     0.2626   -3.9471    2.6315 
 H                     0.5227   -3.6801   -0.0156 
 C                     3.4807   -0.1984    2.7051 
 H                    -0.3337   -4.6124    1.99 
 H                     3.1179    0.0707    3.7102 
 C                     1.3012    3.9989   -1.9841 
 C                     1.184     4.4086   -3.4273 
 C                     0.2215    4.1076   -1.1261 
 C                     0.3395    3.7493    0.2181 
 H                    -0.7327    4.469    -1.4764 
 C                     1.5641    3.3024    0.6989 
 C                     2.6593    3.195    -0.154 
 H                     1.6905    3.0316    1.736 
 C                     2.5143    3.529    -1.4978 
 C                     3.9564    2.7647    0.3492 
 H                     3.3487    3.4301   -2.1772 
 C                    -0.8051    3.8678    1.1101 
 H                     4.6658    2.3974   -0.4098 
 H                    -0.66      3.4912    2.1346 
 C                    -1.9551   -5.1592   -2.2207 
 C                    -3.4658   -5.365    -1.9191 
 N                    -1.6565   -3.9383   -1.4868 
 H                    -1.3552   -5.9717   -1.7951 
 C                    -1.6214   -5.0752   -3.7288 
 N                    -3.9489   -4.0975   -1.3624 
 H                    -4.0074   -5.5162   -2.8611 
 C                    -3.8046   -6.5506   -0.9963 
 H                    -2.1466   -4.2075   -4.1448 
 C                    -2.0465   -6.3241   -4.4983 
 C                    -0.1154   -4.8848   -3.9195 
 H                    -4.8788   -6.4685   -0.7874 
 C                    -3.0603   -6.5203    0.3385 
 C                    -3.5647   -7.8864   -1.6964 
 H                     0.4197   -5.7571   -3.5471 
 H                     0.2488   -4.0091   -3.3904 
 H                     0.1175   -4.7678   -4.9764 
 H                    -1.5702   -7.2072   -4.0781 
 H                    -1.7406   -6.2362   -5.5391 
 H                    -3.1221   -6.4712   -4.4782 
 H                    -4.1185   -7.9391   -2.6304 
 H                    -3.8919   -8.7055   -1.0596 
 H                    -2.5087   -8.0254   -1.913 
 H                    -1.9853   -6.5817    0.1897 
 H                    -3.3693   -7.3668    0.9486 
 H                    -3.2767   -5.6134    0.8979 
 C                     2.3782   -0.799    -3.5697 
 C                     0.8733   -1.1922   -3.5438 
 N                     2.7826   -1.0077   -2.192 
 H                     2.5072    0.2662   -3.8023 
 C                     3.1703   -1.62     -4.614 
 N                     0.6239   -1.7931   -2.2285 
 H                     0.7081   -1.982    -4.2884 
 C                    -0.0709   -0.0284   -3.8839 
 H                     2.958    -2.6832   -4.4493 
 C                     4.6767   -1.3937   -4.4784 
 C                     2.7399   -1.2423   -6.0299 
 H                     0.3521    0.4614   -4.7699 
 C                    -0.1688    1.0007   -2.7572 
 C                    -1.4568   -0.5523   -4.2519 
 H                     3.243    -1.8753   -6.7575 
 H                     3.009    -0.2085   -6.2357 
 H                     1.6677   -1.3547   -6.168 
 H                     5.0698   -1.8126   -3.5542 
 H                     4.9012   -0.3289   -4.5004 
 H                     5.1992   -1.8728   -5.3035 
 H                    -1.8637   -1.1291   -3.4262 
 H                    -1.4076   -1.1943   -5.1292 
 H                    -2.1312    0.2737   -4.4685 
 H                     0.8147    1.2434   -2.3611 
 H                    -0.79      0.6365   -1.9401 
 H                    -0.6267    1.917    -3.1235 
 C                     2.2511    4.2371   -5.5194 
 C                     2.0662    5.7251   -5.0991 
 N                     1.9215    3.4985   -4.3086 
 H                     3.3087    4.0445   -5.7502 
 C                     1.4421    3.8631   -6.7801 
 N                     1.7844    5.7071   -3.6683 
 H                     1.1644    6.1137   -5.5904 
 C                     3.2336    6.6409   -5.4886 
 H                     1.6491    4.64     -7.5258 
 C                    -0.0664    3.8115   -6.542 
 C                     1.9201    2.5233   -7.3388 
 H                     3.4339    6.4565   -6.551 
 C                     4.5147    6.3602   -4.702 
 C                     2.8265    8.1028   -5.3133 
 H                     2.9838    2.5563   -7.5647 
 H                     1.3829    2.2772   -8.252 
 H                     1.7472    1.7261   -6.6182 
 H                    -0.4393    4.7537   -6.1478 
 H                    -0.3245    3.0176   -5.8428 
 H                    -0.5803    3.6097   -7.4795 
 H                     1.9925    8.3509   -5.9656 
 H                     3.6585    8.7611   -5.5526 
 H                     2.5211    8.2799   -4.2852 
 H                     4.436     6.7378   -3.6845 
 H                     5.3544    6.8623   -5.1773 
 H                     4.7329    5.2954   -4.6641 
 C                    -1.9814   -3.9842    4.8338 
 C                    -0.7462   -4.8754    4.5063 
 N                    -2.4126   -3.4575    3.5762 
 H                    -1.6428   -3.1775    5.5073 
 C                    -3.1418   -4.743     5.5028 
 N                     0.2102   -4.0042    3.8913 
 H                    -1.0879   -5.6476    3.7959 
 C                    -0.1112   -5.5572    5.7293 
 H                    -2.7736   -5.1736    6.4392 
 C                    -3.6873   -5.8563    4.6133 
 C                    -4.2539   -3.7494    5.8403 
 H                    -0.8613   -6.2069    6.1913 
 C                     0.383    -4.5431    6.7565 
 C                     1.0505   -6.4304    5.2539 
 H                    -4.651    -3.309     4.9283 
 H                    -3.8778   -2.949     6.4745 
 H                    -5.0635   -4.2514    6.3653 
 H                    -4.5889   -6.2766    5.0536 
 H                    -2.9624   -6.6573    4.4953 
 H                    -3.9288   -5.454     3.6336 
 H                     1.8124   -5.81      4.7876 
 H                     0.7092   -7.1633    4.5253 
 H                     1.4957   -6.9606    6.0927 
 H                     0.9613   -5.0452    7.5291 
 H                    -0.4476   -4.0301    7.2344 
 H                     1.0145   -3.8087    6.265 
 C                    -4.115     3.619     1.0562 
 C                    -2.9931    4.5266    1.6203 
 N                    -3.6918    2.2689    1.2676 
 H                    -4.215     3.845    -0.0206 
 C                    -5.4893    3.8013    1.7336 
 N                    -1.8845    4.3918    0.7263 
 H                    -2.743     4.1575    2.631 
 C                    -3.3608    6.0219    1.7117 
 H                    -5.7984    4.8426    1.6039 
 C                    -5.4368    3.4693    3.2219 
 C                    -6.5201    2.9146    1.0344 
 H                    -4.2316    6.1211    2.3666 
 C                    -3.6854    6.6118    0.3425 
 C                    -2.2019    6.7876    2.3506 
 H                    -6.2619    1.8652    1.1585 
 H                    -6.5615    3.1364   -0.0304 
 H                    -7.508     3.0807    1.4578 
 H                    -6.4364    3.5136    3.6492 
 H                    -4.8045    4.171     3.7592 
 H                    -5.0401    2.4672    3.3578 
 H                    -1.3191    6.732     1.7176 
 H                    -1.9547    6.3715    3.3254 
 H                    -2.4692    7.8338    2.4819 
 H                    -3.8451    7.6847    0.4274 
 H                    -4.5836    6.1653   -0.0756 
 H                    -2.8571    6.4323   -0.3369 
 C                     5.3148    1.2212    2.9639 
 C                     5.5523    2.4149    2.0093 
 N                     4.5427    0.2705    2.2191 
 H                     4.7502    1.5834    3.8401 
 C                     6.6126    0.5535    3.4668 
 N                     4.2576    2.8444    1.5693 
 H                     6.1505    2.0482    1.1565 
 C                     6.2908    3.6056    2.6527 
 H                     7.2145    1.3223    3.9618 
 C                     7.421    -0.0638    2.3288 
 C                     6.2684   -0.5154    4.5039 
 H                     7.2614    3.2481    3.0116 
 C                     5.5096    4.2039    3.8192 
 C                     6.5443    4.6748    1.5896 
 H                     5.6823   -1.3108    4.0484 
 H                     5.6947   -0.0883    5.3243 
 H                     7.1783   -0.9489    4.9128 
 H                     6.7854   -0.7232    1.7439 
 H                     8.2514   -0.6396    2.7321 
 H                     7.8276    0.7024    1.6742 
 H                     7.1262    5.4929    2.0082 
 H                     5.5997    5.0721    1.2249 
 H                     7.0938    4.2594    0.7468 
 H                     5.9808    5.1275    4.1484 
 H                     5.4787    3.5207    4.6638 
 H                     4.4925    4.4195    3.5038 
 H                     3.769    -1.2032   -2.0901 
 H                     2.248    -3.0697   -2.0027 
 H                     0.1487   -1.124    -1.6308 
 H                     2.6558    5.7556   -3.1492 
 H                     1.4152    2.6423   -4.4899 
 H                     0.1148    4.4867   -3.6995 
 H                    -4.1737   -4.2091   -0.38 
 H                    -0.8593   -3.4218   -1.8457 
 H                    -3.0255   -2.6152   -2.4733 
 
 ITRead=  0  0  0  0  0  0  0  0  0  0  0  0  0  0  0  0  0  0  0  0
 ITRead=  0  0  0  0  0  0  0  0  0  0  0  0  0  0  0  0  0  0  0  0
 ITRead=  0  0  0  0  0  0  0  0  0  0  0  0  0  0  0  0  0  0  0  0
 ITRead=  0  0  0  0  0  0  0  0  0  0  0  0  0  0  0  0  0  0  0  0
 ITRead=  0  0  0  0  0  0  0  0  0  0  0  0  0  0  0  0  0  0  0  0
 ITRead=  0  0  0  0  0  0  0  0  0  0  0  0  0  0  0  0  0  0  0  0
 ITRead=  0  0  0  0  0  0  0  0  0  0  0  0  0  0  0  0  0  0  0  0
 ITRead=  0  0  0  0  0  0  0  0  0  0  0  0  0  0  0  0  0  0  0  0
 ITRead=  0  0  0  0  0  0  0  0  0  0  0  0  0  0  0  0  0  0  0  0
 ITRead=  0  0  0  0  0  0  0  0  0  0  0  0  0  0  0  0  0  0  0  0
 ITRead=  0  0  0  0  0  0  0
 MicOpt= -1 -1 -1 -1 -1 -1 -1 -1 -1 -1 -1 -1 -1 -1 -1 -1 -1 -1 -1 -1
 MicOpt= -1 -1 -1 -1 -1 -1 -1 -1 -1 -1 -1 -1 -1 -1 -1 -1 -1 -1 -1 -1
 MicOpt= -1 -1 -1 -1 -1 -1 -1 -1 -1 -1 -1 -1 -1 -1 -1 -1 -1 -1 -1 -1
 MicOpt= -1 -1 -1 -1 -1 -1 -1 -1 -1 -1 -1 -1 -1 -1 -1 -1 -1 -1 -1 -1
 MicOpt= -1 -1 -1 -1 -1 -1 -1 -1 -1 -1 -1 -1 -1 -1 -1 -1 -1 -1 -1 -1
 MicOpt= -1 -1 -1 -1 -1 -1 -1 -1 -1 -1 -1 -1 -1 -1 -1 -1 -1 -1 -1 -1
 MicOpt= -1 -1 -1 -1 -1 -1 -1 -1 -1 -1 -1 -1 -1 -1 -1 -1 -1 -1 -1 -1
 MicOpt= -1 -1 -1 -1 -1 -1 -1 -1 -1 -1 -1 -1 -1 -1 -1 -1 -1 -1 -1 -1
 MicOpt= -1 -1 -1 -1 -1 -1 -1 -1 -1 -1 -1 -1 -1 -1 -1 -1 -1 -1 -1 -1
 MicOpt= -1 -1 -1 -1 -1 -1 -1 -1 -1 -1 -1 -1 -1 -1 -1 -1 -1 -1 -1 -1
 MicOpt= -1 -1 -1 -1 -1 -1 -1
 NAtoms=    207 NQM=      207 NQMF=       0 NMMI=      0 NMMIF=      0
                NMic=       0 NMicF=      0.
                    Isotopes and Nuclear Properties:
 (Nuclear quadrupole moments (NQMom) in fm**2, nuclear magnetic moments (NMagM)
  in nuclear magnetons)

  Atom         1           2           3           4           5           6           7           8           9          10
 IAtWgt=          12          12          12          12           1          12          12           1          12          12
 AtmWgt=  12.0000000  12.0000000  12.0000000  12.0000000   1.0078250  12.0000000  12.0000000   1.0078250  12.0000000  12.0000000
 NucSpn=           0           0           0           0           1           0           0           1           0           0
 AtZEff=  -0.0000000  -0.0000000  -0.0000000  -0.0000000  -0.0000000  -0.0000000  -0.0000000  -0.0000000  -0.0000000  -0.0000000
 NQMom=    0.0000000   0.0000000   0.0000000   0.0000000   0.0000000   0.0000000   0.0000000   0.0000000   0.0000000   0.0000000
 NMagM=    0.0000000   0.0000000   0.0000000   0.0000000   2.7928460   0.0000000   0.0000000   2.7928460   0.0000000   0.0000000
 AtZNuc=   6.0000000   6.0000000   6.0000000   6.0000000   1.0000000   6.0000000   6.0000000   1.0000000   6.0000000   6.0000000

  Atom        11          12          13          14          15          16          17          18          19          20
 IAtWgt=           1          12           1           1          12          12          12          12           1          12
 AtmWgt=   1.0078250  12.0000000   1.0078250   1.0078250  12.0000000  12.0000000  12.0000000  12.0000000   1.0078250  12.0000000
 NucSpn=           1           0           1           1           0           0           0           0           1           0
 AtZEff=  -0.0000000  -0.0000000  -0.0000000  -0.0000000  -0.0000000  -0.0000000  -0.0000000  -0.0000000  -0.0000000  -0.0000000
 NQMom=    0.0000000   0.0000000   0.0000000   0.0000000   0.0000000   0.0000000   0.0000000   0.0000000   0.0000000   0.0000000
 NMagM=    2.7928460   0.0000000   2.7928460   2.7928460   0.0000000   0.0000000   0.0000000   0.0000000   2.7928460   0.0000000
 AtZNuc=   1.0000000   6.0000000   1.0000000   1.0000000   6.0000000   6.0000000   6.0000000   6.0000000   1.0000000   6.0000000

  Atom        21          22          23          24          25          26          27          28          29          30
 IAtWgt=          12           1          12          12           1          12           1           1          12          12
 AtmWgt=  12.0000000   1.0078250  12.0000000  12.0000000   1.0078250  12.0000000   1.0078250   1.0078250  12.0000000  12.0000000
 NucSpn=           0           1           0           0           1           0           1           1           0           0
 AtZEff=  -0.0000000  -0.0000000  -0.0000000  -0.0000000  -0.0000000  -0.0000000  -0.0000000  -0.0000000  -0.0000000  -0.0000000
 NQMom=    0.0000000   0.0000000   0.0000000   0.0000000   0.0000000   0.0000000   0.0000000   0.0000000   0.0000000   0.0000000
 NMagM=    0.0000000   2.7928460   0.0000000   0.0000000   2.7928460   0.0000000   2.7928460   2.7928460   0.0000000   0.0000000
 AtZNuc=   6.0000000   1.0000000   6.0000000   6.0000000   1.0000000   6.0000000   1.0000000   1.0000000   6.0000000   6.0000000

  Atom        31          32          33          34          35          36          37          38          39          40
 IAtWgt=          12          12           1          12          12           1          12          12           1          12
 AtmWgt=  12.0000000  12.0000000   1.0078250  12.0000000  12.0000000   1.0078250  12.0000000  12.0000000   1.0078250  12.0000000
 NucSpn=           0           0           1           0           0           1           0           0           1           0
 AtZEff=  -0.0000000  -0.0000000  -0.0000000  -0.0000000  -0.0000000  -0.0000000  -0.0000000  -0.0000000  -0.0000000  -0.0000000
 NQMom=    0.0000000   0.0000000   0.0000000   0.0000000   0.0000000   0.0000000   0.0000000   0.0000000   0.0000000   0.0000000
 NMagM=    0.0000000   0.0000000   2.7928460   0.0000000   0.0000000   2.7928460   0.0000000   0.0000000   2.7928460   0.0000000
 AtZNuc=   6.0000000   6.0000000   1.0000000   6.0000000   6.0000000   1.0000000   6.0000000   6.0000000   1.0000000   6.0000000

  Atom        41          42          43          44          45          46          47          48          49          50
 IAtWgt=           1           1          12          12          14           1          12          14           1          12
 AtmWgt=   1.0078250   1.0078250  12.0000000  12.0000000  14.0030740   1.0078250  12.0000000  14.0030740   1.0078250  12.0000000
 NucSpn=           1           1           0           0           2           1           0           2           1           0
 AtZEff=  -0.0000000  -0.0000000  -0.0000000  -0.0000000  -0.0000000  -0.0000000  -0.0000000  -0.0000000  -0.0000000  -0.0000000
 NQMom=    0.0000000   0.0000000   0.0000000   0.0000000   2.0440000   0.0000000   0.0000000   2.0440000   0.0000000   0.0000000
 NMagM=    2.7928460   2.7928460   0.0000000   0.0000000   0.4037610   2.7928460   0.0000000   0.4037610   2.7928460   0.0000000
 AtZNuc=   1.0000000   1.0000000   6.0000000   6.0000000   7.0000000   1.0000000   6.0000000   7.0000000   1.0000000   6.0000000

  Atom        51          52          53          54          55          56          57          58          59          60
 IAtWgt=           1          12          12           1          12          12           1           1           1           1
 AtmWgt=   1.0078250  12.0000000  12.0000000   1.0078250  12.0000000  12.0000000   1.0078250   1.0078250   1.0078250   1.0078250
 NucSpn=           1           0           0           1           0           0           1           1           1           1
 AtZEff=  -0.0000000  -0.0000000  -0.0000000  -0.0000000  -0.0000000  -0.0000000  -0.0000000  -0.0000000  -0.0000000  -0.0000000
 NQMom=    0.0000000   0.0000000   0.0000000   0.0000000   0.0000000   0.0000000   0.0000000   0.0000000   0.0000000   0.0000000
 NMagM=    2.7928460   0.0000000   0.0000000   2.7928460   0.0000000   0.0000000   2.7928460   2.7928460   2.7928460   2.7928460
 AtZNuc=   1.0000000   6.0000000   6.0000000   1.0000000   6.0000000   6.0000000   1.0000000   1.0000000   1.0000000   1.0000000

  Atom        61          62          63          64          65          66          67          68          69          70
 IAtWgt=           1           1           1           1           1           1           1           1          12          12
 AtmWgt=   1.0078250   1.0078250   1.0078250   1.0078250   1.0078250   1.0078250   1.0078250   1.0078250  12.0000000  12.0000000
 NucSpn=           1           1           1           1           1           1           1           1           0           0
 AtZEff=  -0.0000000  -0.0000000  -0.0000000  -0.0000000  -0.0000000  -0.0000000  -0.0000000  -0.0000000  -0.0000000  -0.0000000
 NQMom=    0.0000000   0.0000000   0.0000000   0.0000000   0.0000000   0.0000000   0.0000000   0.0000000   0.0000000   0.0000000
 NMagM=    2.7928460   2.7928460   2.7928460   2.7928460   2.7928460   2.7928460   2.7928460   2.7928460   0.0000000   0.0000000
 AtZNuc=   1.0000000   1.0000000   1.0000000   1.0000000   1.0000000   1.0000000   1.0000000   1.0000000   6.0000000   6.0000000

  Atom        71          72          73          74          75          76          77          78          79          80
 IAtWgt=          14           1          12          14           1          12           1          12          12           1
 AtmWgt=  14.0030740   1.0078250  12.0000000  14.0030740   1.0078250  12.0000000   1.0078250  12.0000000  12.0000000   1.0078250
 NucSpn=           2           1           0           2           1           0           1           0           0           1
 AtZEff=  -0.0000000  -0.0000000  -0.0000000  -0.0000000  -0.0000000  -0.0000000  -0.0000000  -0.0000000  -0.0000000  -0.0000000
 NQMom=    2.0440000   0.0000000   0.0000000   2.0440000   0.0000000   0.0000000   0.0000000   0.0000000   0.0000000   0.0000000
 NMagM=    0.4037610   2.7928460   0.0000000   0.4037610   2.7928460   0.0000000   2.7928460   0.0000000   0.0000000   2.7928460
 AtZNuc=   7.0000000   1.0000000   6.0000000   7.0000000   1.0000000   6.0000000   1.0000000   6.0000000   6.0000000   1.0000000

  Atom        81          82          83          84          85          86          87          88          89          90
 IAtWgt=          12          12           1           1           1           1           1           1           1           1
 AtmWgt=  12.0000000  12.0000000   1.0078250   1.0078250   1.0078250   1.0078250   1.0078250   1.0078250   1.0078250   1.0078250
 NucSpn=           0           0           1           1           1           1           1           1           1           1
 AtZEff=  -0.0000000  -0.0000000  -0.0000000  -0.0000000  -0.0000000  -0.0000000  -0.0000000  -0.0000000  -0.0000000  -0.0000000
 NQMom=    0.0000000   0.0000000   0.0000000   0.0000000   0.0000000   0.0000000   0.0000000   0.0000000   0.0000000   0.0000000
 NMagM=    0.0000000   0.0000000   2.7928460   2.7928460   2.7928460   2.7928460   2.7928460   2.7928460   2.7928460   2.7928460
 AtZNuc=   6.0000000   6.0000000   1.0000000   1.0000000   1.0000000   1.0000000   1.0000000   1.0000000   1.0000000   1.0000000

  Atom        91          92          93          94          95          96          97          98          99         100
 IAtWgt=           1           1           1           1          12          12          14           1          12          14
 AtmWgt=   1.0078250   1.0078250   1.0078250   1.0078250  12.0000000  12.0000000  14.0030740   1.0078250  12.0000000  14.0030740
 NucSpn=           1           1           1           1           0           0           2           1           0           2
 AtZEff=  -0.0000000  -0.0000000  -0.0000000  -0.0000000  -0.0000000  -0.0000000  -0.0000000  -0.0000000  -0.0000000  -0.0000000
 NQMom=    0.0000000   0.0000000   0.0000000   0.0000000   0.0000000   0.0000000   2.0440000   0.0000000   0.0000000   2.0440000
 NMagM=    2.7928460   2.7928460   2.7928460   2.7928460   0.0000000   0.0000000   0.4037610   2.7928460   0.0000000   0.4037610
 AtZNuc=   1.0000000   1.0000000   1.0000000   1.0000000   6.0000000   6.0000000   7.0000000   1.0000000   6.0000000   7.0000000

  Atom       101         102         103         104         105         106         107         108         109         110
 IAtWgt=           1          12           1          12          12           1          12          12           1           1
 AtmWgt=   1.0078250  12.0000000   1.0078250  12.0000000  12.0000000   1.0078250  12.0000000  12.0000000   1.0078250   1.0078250
 NucSpn=           1           0           1           0           0           1           0           0           1           1
 AtZEff=  -0.0000000  -0.0000000  -0.0000000  -0.0000000  -0.0000000  -0.0000000  -0.0000000  -0.0000000  -0.0000000  -0.0000000
 NQMom=    0.0000000   0.0000000   0.0000000   0.0000000   0.0000000   0.0000000   0.0000000   0.0000000   0.0000000   0.0000000
 NMagM=    2.7928460   0.0000000   2.7928460   0.0000000   0.0000000   2.7928460   0.0000000   0.0000000   2.7928460   2.7928460
 AtZNuc=   1.0000000   6.0000000   1.0000000   6.0000000   6.0000000   1.0000000   6.0000000   6.0000000   1.0000000   1.0000000

  Atom       111         112         113         114         115         116         117         118         119         120
 IAtWgt=           1           1           1           1           1           1           1           1           1           1
 AtmWgt=   1.0078250   1.0078250   1.0078250   1.0078250   1.0078250   1.0078250   1.0078250   1.0078250   1.0078250   1.0078250
 NucSpn=           1           1           1           1           1           1           1           1           1           1
 AtZEff=  -0.0000000  -0.0000000  -0.0000000  -0.0000000  -0.0000000  -0.0000000  -0.0000000  -0.0000000  -0.0000000  -0.0000000
 NQMom=    0.0000000   0.0000000   0.0000000   0.0000000   0.0000000   0.0000000   0.0000000   0.0000000   0.0000000   0.0000000
 NMagM=    2.7928460   2.7928460   2.7928460   2.7928460   2.7928460   2.7928460   2.7928460   2.7928460   2.7928460   2.7928460
 AtZNuc=   1.0000000   1.0000000   1.0000000   1.0000000   1.0000000   1.0000000   1.0000000   1.0000000   1.0000000   1.0000000

  Atom       121         122         123         124         125         126         127         128         129         130
 IAtWgt=          12          12          14           1          12          14           1          12           1          12
 AtmWgt=  12.0000000  12.0000000  14.0030740   1.0078250  12.0000000  14.0030740   1.0078250  12.0000000   1.0078250  12.0000000
 NucSpn=           0           0           2           1           0           2           1           0           1           0
 AtZEff=  -0.0000000  -0.0000000  -0.0000000  -0.0000000  -0.0000000  -0.0000000  -0.0000000  -0.0000000  -0.0000000  -0.0000000
 NQMom=    0.0000000   0.0000000   2.0440000   0.0000000   0.0000000   2.0440000   0.0000000   0.0000000   0.0000000   0.0000000
 NMagM=    0.0000000   0.0000000   0.4037610   2.7928460   0.0000000   0.4037610   2.7928460   0.0000000   2.7928460   0.0000000
 AtZNuc=   6.0000000   6.0000000   7.0000000   1.0000000   6.0000000   7.0000000   1.0000000   6.0000000   1.0000000   6.0000000

  Atom       131         132         133         134         135         136         137         138         139         140
 IAtWgt=          12           1          12          12           1           1           1           1           1           1
 AtmWgt=  12.0000000   1.0078250  12.0000000  12.0000000   1.0078250   1.0078250   1.0078250   1.0078250   1.0078250   1.0078250
 NucSpn=           0           1           0           0           1           1           1           1           1           1
 AtZEff=  -0.0000000  -0.0000000  -0.0000000  -0.0000000  -0.0000000  -0.0000000  -0.0000000  -0.0000000  -0.0000000  -0.0000000
 NQMom=    0.0000000   0.0000000   0.0000000   0.0000000   0.0000000   0.0000000   0.0000000   0.0000000   0.0000000   0.0000000
 NMagM=    0.0000000   2.7928460   0.0000000   0.0000000   2.7928460   2.7928460   2.7928460   2.7928460   2.7928460   2.7928460
 AtZNuc=   6.0000000   1.0000000   6.0000000   6.0000000   1.0000000   1.0000000   1.0000000   1.0000000   1.0000000   1.0000000

  Atom       141         142         143         144         145         146         147         148         149         150
 IAtWgt=           1           1           1           1           1           1          12          12          14           1
 AtmWgt=   1.0078250   1.0078250   1.0078250   1.0078250   1.0078250   1.0078250  12.0000000  12.0000000  14.0030740   1.0078250
 NucSpn=           1           1           1           1           1           1           0           0           2           1
 AtZEff=  -0.0000000  -0.0000000  -0.0000000  -0.0000000  -0.0000000  -0.0000000  -0.0000000  -0.0000000  -0.0000000  -0.0000000
 NQMom=    0.0000000   0.0000000   0.0000000   0.0000000   0.0000000   0.0000000   0.0000000   0.0000000   2.0440000   0.0000000
 NMagM=    2.7928460   2.7928460   2.7928460   2.7928460   2.7928460   2.7928460   0.0000000   0.0000000   0.4037610   2.7928460
 AtZNuc=   1.0000000   1.0000000   1.0000000   1.0000000   1.0000000   1.0000000   6.0000000   6.0000000   7.0000000   1.0000000

  Atom       151         152         153         154         155         156         157         158         159         160
 IAtWgt=          12          14           1          12           1          12          12           1          12          12
 AtmWgt=  12.0000000  14.0030740   1.0078250  12.0000000   1.0078250  12.0000000  12.0000000   1.0078250  12.0000000  12.0000000
 NucSpn=           0           2           1           0           1           0           0           1           0           0
 AtZEff=  -0.0000000  -0.0000000  -0.0000000  -0.0000000  -0.0000000  -0.0000000  -0.0000000  -0.0000000  -0.0000000  -0.0000000
 NQMom=    0.0000000   2.0440000   0.0000000   0.0000000   0.0000000   0.0000000   0.0000000   0.0000000   0.0000000   0.0000000
 NMagM=    0.0000000   0.4037610   2.7928460   0.0000000   2.7928460   0.0000000   0.0000000   2.7928460   0.0000000   0.0000000
 AtZNuc=   6.0000000   7.0000000   1.0000000   6.0000000   1.0000000   6.0000000   6.0000000   1.0000000   6.0000000   6.0000000

  Atom       161         162         163         164         165         166         167         168         169         170
 IAtWgt=           1           1           1           1           1           1           1           1           1           1
 AtmWgt=   1.0078250   1.0078250   1.0078250   1.0078250   1.0078250   1.0078250   1.0078250   1.0078250   1.0078250   1.0078250
 NucSpn=           1           1           1           1           1           1           1           1           1           1
 AtZEff=  -0.0000000  -0.0000000  -0.0000000  -0.0000000  -0.0000000  -0.0000000  -0.0000000  -0.0000000  -0.0000000  -0.0000000
 NQMom=    0.0000000   0.0000000   0.0000000   0.0000000   0.0000000   0.0000000   0.0000000   0.0000000   0.0000000   0.0000000
 NMagM=    2.7928460   2.7928460   2.7928460   2.7928460   2.7928460   2.7928460   2.7928460   2.7928460   2.7928460   2.7928460
 AtZNuc=   1.0000000   1.0000000   1.0000000   1.0000000   1.0000000   1.0000000   1.0000000   1.0000000   1.0000000   1.0000000

  Atom       171         172         173         174         175         176         177         178         179         180
 IAtWgt=           1           1          12          12          14           1          12          14           1          12
 AtmWgt=   1.0078250   1.0078250  12.0000000  12.0000000  14.0030740   1.0078250  12.0000000  14.0030740   1.0078250  12.0000000
 NucSpn=           1           1           0           0           2           1           0           2           1           0
 AtZEff=  -0.0000000  -0.0000000  -0.0000000  -0.0000000  -0.0000000  -0.0000000  -0.0000000  -0.0000000  -0.0000000  -0.0000000
 NQMom=    0.0000000   0.0000000   0.0000000   0.0000000   2.0440000   0.0000000   0.0000000   2.0440000   0.0000000   0.0000000
 NMagM=    2.7928460   2.7928460   0.0000000   0.0000000   0.4037610   2.7928460   0.0000000   0.4037610   2.7928460   0.0000000
 AtZNuc=   1.0000000   1.0000000   6.0000000   6.0000000   7.0000000   1.0000000   6.0000000   7.0000000   1.0000000   6.0000000

  Atom       181         182         183         184         185         186         187         188         189         190
 IAtWgt=           1          12          12           1          12          12           1           1           1           1
 AtmWgt=   1.0078250  12.0000000  12.0000000   1.0078250  12.0000000  12.0000000   1.0078250   1.0078250   1.0078250   1.0078250
 NucSpn=           1           0           0           1           0           0           1           1           1           1
 AtZEff=  -0.0000000  -0.0000000  -0.0000000  -0.0000000  -0.0000000  -0.0000000  -0.0000000  -0.0000000  -0.0000000  -0.0000000
 NQMom=    0.0000000   0.0000000   0.0000000   0.0000000   0.0000000   0.0000000   0.0000000   0.0000000   0.0000000   0.0000000
 NMagM=    2.7928460   0.0000000   0.0000000   2.7928460   0.0000000   0.0000000   2.7928460   2.7928460   2.7928460   2.7928460
 AtZNuc=   1.0000000   6.0000000   6.0000000   1.0000000   6.0000000   6.0000000   1.0000000   1.0000000   1.0000000   1.0000000

  Atom       191         192         193         194         195         196         197         198         199         200
 IAtWgt=           1           1           1           1           1           1           1           1           1           1
 AtmWgt=   1.0078250   1.0078250   1.0078250   1.0078250   1.0078250   1.0078250   1.0078250   1.0078250   1.0078250   1.0078250
 NucSpn=           1           1           1           1           1           1           1           1           1           1
 AtZEff=  -0.0000000  -0.0000000  -0.0000000  -0.0000000  -0.0000000  -0.0000000  -0.0000000  -0.0000000  -0.0000000  -0.0000000
 NQMom=    0.0000000   0.0000000   0.0000000   0.0000000   0.0000000   0.0000000   0.0000000   0.0000000   0.0000000   0.0000000
 NMagM=    2.7928460   2.7928460   2.7928460   2.7928460   2.7928460   2.7928460   2.7928460   2.7928460   2.7928460   2.7928460
 AtZNuc=   1.0000000   1.0000000   1.0000000   1.0000000   1.0000000   1.0000000   1.0000000   1.0000000   1.0000000   1.0000000

  Atom       201         202         203         204         205         206         207
 IAtWgt=           1           1           1           1           1           1           1
 AtmWgt=   1.0078250   1.0078250   1.0078250   1.0078250   1.0078250   1.0078250   1.0078250
 NucSpn=           1           1           1           1           1           1           1
 AtZEff=  -0.0000000  -0.0000000  -0.0000000  -0.0000000  -0.0000000  -0.0000000  -0.0000000
 NQMom=    0.0000000   0.0000000   0.0000000   0.0000000   0.0000000   0.0000000   0.0000000
 NMagM=    2.7928460   2.7928460   2.7928460   2.7928460   2.7928460   2.7928460   2.7928460
 AtZNuc=   1.0000000   1.0000000   1.0000000   1.0000000   1.0000000   1.0000000   1.0000000
 Leave Link  101 at Thu Nov 11 13:37:59 2021, MaxMem=  7864320000 cpu:               3.9 elap:               0.1
 (Enter /apps/gaussian/g16-c01-avx/g16/l202.exe)
 Stoichiometry    C75H120N12
 Framework group  C1[X(C75H120N12)]
 Deg. of freedom   615
 Full point group                 C1      NOp   1
 Largest Abelian subgroup         C1      NOp   1
 Largest concise Abelian subgroup C1      NOp   1
                         Standard orientation:                         
 ---------------------------------------------------------------------
 Center     Atomic      Atomic             Coordinates (Angstroms)
 Number     Number       Type             X           Y           Z
 ---------------------------------------------------------------------
      1          6           0        2.897658   -2.108604    1.257138
      2          6           0        3.230402   -3.327385    0.439091
      3          6           0        3.708670   -0.993606    1.127720
      4          6           0        3.469087    0.163962    1.863117
      5          1           0        4.532248   -1.003680    0.433799
      6          6           0        2.391152    0.198837    2.737763
      7          6           0        1.574205   -0.919023    2.891460
      8          1           0        2.178105    1.075997    3.329066
      9          6           0        1.829617   -2.067008    2.140125
     10          6           0        0.495711   -0.912830    3.870597
     11          1           0        1.199158   -2.936423    2.266749
     12          6           0        4.347901    1.312250    1.686862
     13          1           0       -0.186445   -1.777730    3.846445
     14          1           0        3.927477    2.294221    1.953576
     15          6           0        1.057217    0.247634   -2.466119
     16          6           0        0.393550   -1.041865   -2.882421
     17          6           0        0.333578    1.426944   -2.402848
     18          6           0        0.946592    2.618962   -2.017035
     19          1           0       -0.719364    1.440130   -2.630953
     20          6           0        2.293422    2.619261   -1.685241
     21          6           0        3.034552    1.442113   -1.758937
     22          1           0        2.795337    3.525650   -1.383078
     23          6           0        2.408960    0.258290   -2.145066
     24          6           0        4.445870    1.436207   -1.412446
     25          1           0        2.975956   -0.660353   -2.180475
     26          6           0        0.171594    3.852309   -1.966842
     27          1           0        4.941166    0.455350   -1.460622
     28          1           0        0.534648    4.620497   -1.265169
     29          6           0       -4.398836   -0.135543    0.783495
     30          6           0       -5.311285   -1.330115    0.713853
     31          6           0       -3.686109    0.146281    1.935158
     32          6           0       -2.858593    1.268538    2.005404
     33          1           0       -3.752833   -0.493996    2.800843
     34          6           0       -2.773061    2.121253    0.911742
     35          6           0       -3.490760    1.851067   -0.250301
     36          1           0       -2.153167    3.004307    0.940606
     37          6           0       -4.287756    0.711158   -0.311797
     38          6           0       -3.437625    2.759535   -1.387271
     39          1           0       -4.833610    0.475679   -1.214118
     40          6           0       -2.113308    1.552975    3.223378
     41          1           0       -3.751512    2.334259   -2.354149
     42          1           0       -1.420730    2.407780    3.177267
     43          6           0        4.194682   -4.026684   -1.570381
     44          6           0        5.090527   -4.493086   -0.389085
     45          7           0        3.408100   -2.964150   -0.961549
     46          1           0        4.799293   -3.589988   -2.373446
     47          6           0        3.338868   -5.154734   -2.193169
     48          7           0        4.498776   -3.921382    0.824522
     49          1           0        5.017713   -5.582837   -0.285661
     50          6           0        6.584818   -4.139336   -0.507197
     51          1           0        2.664204   -5.536305   -1.417911
     52          6           0        4.182713   -6.311314   -2.724995
     53          6           0        2.505558   -4.598751   -3.349514
     54          1           0        7.034649   -4.420112    0.453585
     55          6           0        6.845931   -2.650335   -0.733660
     56          6           0        7.265769   -4.959875   -1.600392
     57          1           0        3.161065   -4.251391   -4.146743
     58          1           0        1.883139   -3.767198   -3.032414
     59          1           0        1.859156   -5.375576   -3.754084
     60          1           0        4.891023   -5.951755   -3.468170
     61          1           0        3.537937   -7.048716   -3.199409
     62          1           0        4.736379   -6.811019   -1.935877
     63          1           0        7.121600   -6.024206   -1.432335
     64          1           0        8.334696   -4.757777   -1.607506
     65          1           0        6.865817   -4.707728   -2.579081
     66          1           0        6.405173   -2.312440   -1.668055
     67          1           0        7.918202   -2.469746   -0.777120
     68          1           0        6.441380   -2.044838    0.073767
     69          6           0       -1.634348   -2.186956   -3.069194
     70          6           0       -0.709111   -2.933665   -2.066018
     71          7           0       -1.026678   -0.871310   -3.139643
     72          1           0       -2.648077   -2.069938   -2.664156
     73          6           0       -1.738094   -2.931268   -4.420957
     74          7           0        0.447545   -2.059730   -1.838685
     75          1           0       -0.328672   -3.840719   -2.553895
     76          6           0       -1.424320   -3.365233   -0.776120
     77          1           0       -0.722518   -3.143495   -4.776143
     78          6           0       -2.458720   -2.085566   -5.471825
     79          6           0       -2.488760   -4.250252   -4.249328
     80          1           0       -2.373209   -3.819138   -1.088226
     81          6           0       -1.727968   -2.188771    0.152221
     82          6           0       -0.611770   -4.429514   -0.042851
     83          1           0       -2.492404   -4.805518   -5.184672
     84          1           0       -3.520922   -4.055147   -3.966334
     85          1           0       -2.033290   -4.876122   -3.486339
     86          1           0       -1.873754   -1.216435   -5.766065
     87          1           0       -3.418376   -1.744692   -5.087702
     88          1           0       -2.636911   -2.678568   -6.366214
     89          1           0        0.374887   -4.041490    0.193772
     90          1           0       -0.493473   -5.318848   -0.658750
     91          1           0       -1.106923   -4.716395    0.882638
     92          1           0       -2.141515   -1.348820   -0.401432
     93          1           0       -0.832129   -1.852227    0.672216
     94          1           0       -2.446981   -2.485628    0.912715
     95          6           0       -6.504821   -2.694875   -0.788778
     96          6           0       -7.452307   -2.053438    0.267543
     97          7           0       -5.250474   -1.980287   -0.598571
     98          1           0       -6.868231   -2.467288   -1.801210
     99          6           0       -6.430118   -4.232776   -0.674753
    100          7           0       -6.704036   -0.952615    0.863531
    101          1           0       -7.623088   -2.784986    1.068356
    102          6           0       -8.824649   -1.643305   -0.281720
    103          1           0       -7.464663   -4.592639   -0.622736
    104          6           0       -5.687467   -4.715276    0.570473
    105          6           0       -5.778742   -4.826094   -1.923504
    106          1           0       -9.216768   -2.512864   -0.822947
    107          6           0       -8.762948   -0.461674   -1.250582
    108          6           0       -9.769558   -1.318461    0.873804
    109          1           0       -6.324897   -4.536607   -2.818763
    110          1           0       -5.764024   -5.912209   -1.866766
    111          1           0       -4.752196   -4.477521   -2.020393
    112          1           0       -6.130420   -4.313353    1.478460
    113          1           0       -4.639154   -4.422429    0.537995
    114          1           0       -5.728371   -5.801089    0.625792
    115          1           0       -9.923559   -2.192451    1.502319
    116          1           0      -10.735509   -0.991839    0.495513
    117          1           0       -9.344828   -0.527213    1.486302
    118          1           0       -8.594763    0.470706   -0.715360
    119          1           0       -9.708231   -0.372746   -1.781281
    120          1           0       -7.971696   -0.590824   -1.985488
    121          6           0        6.322104    2.318500    0.951521
    122          6           0        6.411326    2.372149   -0.602948
    123          7           0        5.520076    1.171678    1.245554
    124          1           0        5.828413    3.246057    1.290529
    125          6           0        7.686223    2.190265    1.653375
    126          7           0        5.060567    2.482975   -1.066718
    127          1           0        6.862297    1.419856   -0.930794
    128          6           0        7.243042    3.542585   -1.152615
    129          1           0        8.295818    3.055905    1.376078
    130          6           0        8.415903    0.909589    1.258845
    131          6           0        7.469781    2.225234    3.166598
    132          1           0        8.266434    3.446340   -0.776305
    133          6           0        6.673781    4.894645   -0.733511
    134          6           0        7.282506    3.440464   -2.677752
    135          1           0        6.874315    1.370050    3.478791
    136          1           0        6.949248    3.134212    3.461735
    137          1           0        8.424673    2.192564    3.686401
    138          1           0        9.304324    0.782776    1.873683
    139          1           0        8.725352    0.937212    0.217459
    140          1           0        7.760194    0.056473    1.407903
    141          1           0        6.276268    3.531150   -3.080349
    142          1           0        7.693620    2.482261   -2.989710
    143          1           0        7.899724    4.232299   -3.096009
    144          1           0        7.186779    5.695900   -1.261025
    145          1           0        6.795603    5.059294    0.333965
    146          1           0        5.616026    4.933081   -0.977202
    147          6           0       -0.624744   -0.034697    5.730112
    148          6           0       -1.557807    1.173703    5.465974
    149          7           0        0.391506    0.007669    4.724131
    150          1           0       -1.236121   -0.951018    5.645563
    151          6           0        0.066598   -0.022148    7.109494
    152          7           0       -2.276522    0.867469    4.267612
    153          1           0       -0.918877    2.065431    5.336016
    154          6           0       -2.581812    1.452108    6.585520
    155          1           0       -0.709564   -0.018386    7.880356
    156          6           0        0.961438    1.201218    7.284578
    157          6           0        0.887939   -1.300963    7.275920
    158          1           0       -2.032438    1.650292    7.510690
    159          6           0       -3.525693    0.272331    6.798289
    160          6           0       -3.382239    2.706863    6.235599
    161          1           0        1.688375   -1.334288    6.540053
    162          1           0        0.261970   -2.181766    7.145315
    163          1           0        1.328923   -1.338084    8.269378
    164          1           0        1.507259    1.132550    8.223254
    165          1           0        0.377139    2.117377    7.295722
    166          1           0        1.673901    1.251527    6.466099
    167          1           0       -3.962105    2.543513    5.329957
    168          1           0       -2.719757    3.554951    6.073283
    169          1           0       -4.065435    2.955121    7.044818
    170          1           0       -4.293269    0.535299    7.523204
    171          1           0       -2.990664   -0.598037    7.168609
    172          1           0       -4.003944    0.014491    5.857715
    173          6           0       -1.590351    5.241305   -2.609030
    174          6           0       -3.064903    4.816847   -2.413787
    175          7           0       -0.839525    4.023389   -2.696415
    176          1           0       -1.278724    5.830972   -1.729900
    177          6           0       -1.345620    6.091999   -3.873721
    178          7           0       -3.090861    3.963645   -1.262400
    179          1           0       -3.376022    4.261252   -3.316061
    180          6           0       -4.040617    5.990935   -2.197891
    181          1           0       -1.990542    6.974503   -3.813505
    182          6           0       -1.661310    5.323965   -5.154376
    183          6           0        0.106122    6.570120   -3.894705
    184          1           0       -3.979804    6.646899   -3.072358
    185          6           0       -3.707941    6.791034   -0.941656
    186          6           0       -5.467989    5.449937   -2.110912
    187          1           0        0.783475    5.722197   -3.971350
    188          1           0        0.344602    7.123507   -2.988343
    189          1           0        0.274181    7.223445   -4.747913
    190          1           0       -1.130611    4.375672   -5.152861
    191          1           0       -1.349113    5.902243   -6.021491
    192          1           0       -2.726635    5.129183   -5.243974
    193          1           0       -6.178081    6.269757   -2.028539
    194          1           0       -5.573810    4.810308   -1.237529
    195          1           0       -5.716087    4.869299   -2.997550
    196          1           0       -4.498392    7.510098   -0.737760
    197          1           0       -2.775915    7.337608   -1.058489
    198          1           0       -3.616661    6.117136   -0.094317
    199          1           0       -1.214888   -0.389976   -4.008254
    200          1           0        0.935034   -1.449846   -3.764507
    201          1           0        0.354463   -1.594975   -0.940858
    202          1           0       -6.862644   -0.104270    0.328452
    203          1           0       -4.436327   -2.571360   -0.698997
    204          1           0       -5.069383   -2.023638    1.540829
    205          1           0        5.105210   -3.203729    1.205719
    206          1           0        2.518612   -2.790558   -1.419574
    207          1           0        2.451224   -4.103206    0.582755
 ---------------------------------------------------------------------
 Rotational constants (GHZ):           0.0223839           0.0149922           0.0143785
 Leave Link  202 at Thu Nov 11 13:37:59 2021, MaxMem=  7864320000 cpu:               0.7 elap:               0.0
 (Enter /apps/gaussian/g16-c01-avx/g16/l301.exe)
 Standard basis: Aug-CC-pVDZ (5D, 7F)
 Ernie: Thresh=  0.10000D-02 Tol=  0.10000D-05 Strict=F.
 Ernie:  174 primitive shells out of 3015 were deleted.
 There are  3255 symmetry adapted cartesian basis functions of A   symmetry.
 There are  3081 symmetry adapted basis functions of A   symmetry.
  3081 basis functions,  5061 primitive gaussians,  3255 cartesian basis functions
   327 alpha electrons      327 beta electrons
       nuclear repulsion energy     17501.0750835872 Hartrees.
 IExCor=    0 DFT=F Ex=HF Corr=None ExCW=0 ScaHFX=  1.000000
 ScaDFX=  1.000000  1.000000  1.000000  1.000000 ScalE2=  1.000000  1.000000
 IRadAn=      7 IRanWt=     -1 IRanGd=            0 ICorTp=0 IEmpDi=  4
 NAtoms=  207 NActive=  207 NUniq=  207 SFac= 1.00D+00 NAtFMM=   60 NAOKFM=T Big=T
 Integral buffers will be    131072 words long.
 Raffenetti 1 integral format.
 Two-electron integral symmetry is turned on.
 ------------------------------------------------------------------------------
 Polarizable Continuum Model (PCM)
 =================================
 Model                : PCM.
 Atomic radii         : UFF (Universal Force Field).
 Polarization charges : Total charges.
 Charge compensation  : None.
 Solution method      : On-the-fly selection.
 Cavity type          : Scaled VdW (van der Waals Surface) (Alpha=1.100).
 Cavity algorithm     : GePol (No added spheres)
                        Default sphere list used, NSphG=  207.
                        Lebedev-Laikov grids with approx.  5.0 points / Ang**2.
                        Smoothing algorithm: York/Karplus (Gamma=1.0000).
                        Polarization charges: spherical gaussians, with
                                              point-specific exponents (IZeta= 3).
                        Self-potential: point-specific (ISelfS= 7).
                        Self-field    : sphere-specific E.n sum rule (ISelfD= 2).
 Solvent              : Dichloromethane, Eps=   8.930000 Eps(inf)=   2.028346
 ------------------------------------------------------------------------------
 GePol: Number of generator spheres                  =     207
 GePol: Total number of spheres                      =     207
 GePol: Number of exposed spheres                    =     207 (100.00%)
 GePol: Number of points                             =   10944
 GePol: Average weight of points                     =       0.13
 GePol: Minimum weight of points                     =   0.68D-11
 GePol: Maximum weight of points                     =    0.20577
 GePol: Number of points with low weight             =     883
 GePol: Fraction of low-weight points (<1% of avg)   =       8.07%
 GePol: Cavity surface area                          =   1393.405 Ang**2
 GePol: Cavity volume                                =   1804.234 Ang**3
 Leave Link  301 at Thu Nov 11 13:37:59 2021, MaxMem=  7864320000 cpu:               3.9 elap:               0.1
 (Enter /apps/gaussian/g16-c01-avx/g16/l302.exe)
 NPDir=0 NMtPBC=     1 NCelOv=     1 NCel=       1 NClECP=     1 NCelD=      1
         NCelK=      1 NCelE2=     1 NClLst=     1 CellRange=     0.0.
 One-electron integrals computed using PRISM.
 One-electron integral symmetry used in STVInt
 NBasis=  3081 RedAO= T EigKep=  1.01D-06  NBF=  3081
 NBsUse=  3030 1.00D-06 EigRej=  9.54D-07 NBFU=  3030
 Leave Link  302 at Thu Nov 11 13:38:32 2021, MaxMem=  7864320000 cpu:            1006.6 elap:              32.1
 (Enter /apps/gaussian/g16-c01-avx/g16/l303.exe)
 DipDrv:  MaxL=1.
 Leave Link  303 at Thu Nov 11 13:38:36 2021, MaxMem=  7864320000 cpu:              72.4 elap:               2.9
 (Enter /apps/gaussian/g16-c01-avx/g16/l401.exe)
 ExpMin= 2.97D-02 ExpMax= 9.05D+03 ExpMxC= 3.09D+02 IAcc=3 IRadAn=         7 AccDes= 0.00D+00
 Harris functional with IExCor=  205 and IRadAn=       7 diagonalized for initial guess.
 HarFok:  IExCor=  205 AccDes= 0.00D+00 IRadAn=         7 IDoV= 1 UseB2=F ITyADJ=14
 ICtDFT=  3500011 ScaDFX=  1.000000  1.000000  1.000000  1.000000
 FoFCou: FMM=F IPFlag=           0 FMFlag=      100000 FMFlg1=        2001
         NFxFlg=           0 DoJE=T BraDBF=F KetDBF=T FulRan=T
         wScrn=  0.000000 ICntrl=       500 IOpCl=  0 I1Cent=   200000004 NGrid=           0
         NMat0=    1 NMatS0=      1 NMatT0=    0 NMatD0=    1 NMtDS0=    0 NMtDT0=    0
 Petite list used in FoFCou.
 Harris En= -3570.25533607488    
 JPrj=0 DoOrth=F DoCkMO=F.
 Leave Link  401 at Thu Nov 11 13:40:43 2021, MaxMem=  7864320000 cpu:            3930.1 elap:             126.6
 (Enter /apps/gaussian/g16-c01-avx/g16/l508.exe)
 Integral symmetry usage will be decided dynamically.
 Tight linear equation convergence will be used.
 RHF wavefunction.
 Linear searches until partial convergence.
 Full line searches.
 Fock matrices will be formed incrementally for  20 cycles.
 Inv3:  Mode=1 IEnd=   359313408.
 Iteration    1 A*A^-1 deviation from unit magnitude is 1.44D-14 for  10916.
 Iteration    1 A*A^-1 deviation from orthogonality  is 4.50D-15 for  10916   8484.
 Iteration    1 A^-1*A deviation from unit magnitude is 1.44D-14 for  10916.
 Iteration    1 A^-1*A deviation from orthogonality  is 1.32D-14 for   7400   7397.
 FoFJK:  IHMeth= 1 ICntrl=       0 DoSepK=F KAlg= 0 I1Cent=           0 FoldK=F
 IRaf= 860000000 NMat=       1 IRICut=       1 DoRegI=T DoRafI=F ISym2E= 1 IDoP0=0 IntGTp=1.
 Iteration   1 EE= -3559.75976200629                                    Grad=3.092D+00 Max rot=    1.6752 deg.
 Gradient too large for Newton-Raphson -- use scaled steepest descent instead.
 Alpha Gap=     0.439 HL deriv= 1.15D-03
     ILin= 1 X=0.000D+00 Y=-3.559759762006D+03 DE= 0.00D+00 F= -1.24D+01
 RMSU=  5.72D-03    CP:  7.60D-01
     ILin= 2 X=3.000D-01 Y=-3.562548827579D+03 DE=-2.79D+00 F= -6.14D+00 OKLS=F
 RMSU=  1.34D-03    CP:  6.35D-01  1.53D+00
     ILin= 3 X=5.000D-01 Y=-3.563355435780D+03 DE=-3.60D+00 F= -1.92D+00
 RMSU=  5.33D-03    CP:  4.42D-01  2.37D+00  3.00D+00
     ILin= 4 X=1.000D+00 Y=-3.561706901553D+03 DE=-1.95D+00 F=  8.45D+00
     An  expanding polynomial of degree  4 produced  0.5922
 RMSU=  3.88D-06    CP:  5.86D-01  1.74D+00  1.73D+00  1.08D-05
 Iteration   2 EE= -3563.44334385431     Delta-E=       -3.683581848021 Grad=9.941D-01 Max rot=    0.8506 deg.
 Gradient too large for Newton-Raphson -- use scaled steepest descent instead.
 Alpha Gap=     0.462 HL deriv= 2.59D-03
     ILin= 1 X=0.000D+00 Y=-3.563443343854D+03 DE= 0.00D+00 F= -5.25D-01
 RMSU=  1.40D-03    CP:  5.24D-01  1.87D+00  2.69D+00  1.71D-03  3.00D+00
     ILin= 2 X=4.000D-01 Y=-3.563605340814D+03 DE=-1.62D-01 F= -2.85D-01 OKLS=F
 RMSU=  2.64D-04    CP:  4.74D-01  1.97D+00  3.00D+00  2.36D-01  3.00D+00
                    CP:  1.89D+00
     ILin= 3 X=8.000D-01 Y=-3.563671479270D+03 DE=-2.28D-01 F= -4.57D-02
 RMSU=  1.25D-03    CP:  4.05D-01  2.04D+00  3.00D+00  1.20D+00  3.00D+00
                    CP:  3.00D+00  3.00D+00
     ILin= 4 X=1.700D+00 Y=-3.563471287264D+03 DE=-2.79D-02 F=  4.90D-01
     An  expanding polynomial of degree  4 produced  0.8766
     Minimum is close to point  3 DX=  7.66D-02 DF= -1.75D-03 DXR=  8.74D-02 DFR=  7.68D-03 which will be used.
 Iteration   3 EE= -3563.67147926976     Delta-E=       -0.228135415444 Grad=2.703D-01 Max rot=    0.3454 deg.
 Gradient too large for Newton-Raphson -- use scaled steepest descent instead.
 Alpha Gap=     0.451 HL deriv= 6.32D-04
     ILin= 1 X=0.000D+00 Y=-3.563671479270D+03 DE= 0.00D+00 F= -6.27D-02
 RMSU=  6.84D-04    CP:  4.49D-01  1.95D+00  3.00D+00  3.63D-01  3.00D+00
                    CP:  2.09D+00  2.22D+00  1.00D-04
     ILin= 2 X=7.000D-01 Y=-3.563696215357D+03 DE=-2.47D-02 F= -8.01D-03 OKLS=T
     Reject lnstep IMin12=  1  2 Big=T Turn=F Min= 1.325D+00 FVal=-3.563701786059D+03 Lims=  0.00D+00  7.00D-01
 RMSU=  1.09D-04    CP:  4.27D-01  1.93D+00  3.00D+00  5.03D-01  3.00D+00
                    CP:  2.27D+00  3.00D+00  9.74D-02  1.96D+00
     ILin= 3 X=1.400D+00 Y=-3.563682692445D+03 DE=-1.12D-02 F=  4.67D-02
     An  expanding polynomial of degree  3 produced  0.8026
 RMSU=  4.54D-06    CP:  4.46D-01  1.95D+00  3.00D+00  3.83D-01  3.00D+00
                    CP:  2.11D+00  2.41D+00  1.20D-04  1.14D+00  3.52D-02
 Iteration   4 EE= -3563.69662663269     Delta-E=       -0.025147362929 Grad=9.707D-02 Max rot=    0.1992 deg.
 Gradient too large for Newton-Raphson -- use scaled steepest descent instead.
 Alpha Gap=     0.460 HL deriv= 5.81D-04
     ILin= 1 X=0.000D+00 Y=-3.563696626633D+03 DE= 0.00D+00 F= -1.16D-02
 RMSU=  2.72D-04    CP:  4.37D-01  1.91D+00  3.00D+00  3.95D-01  3.00D+00
                    CP:  2.28D+00  2.94D+00  4.96D-04  1.43D+00  4.43D-01
                    CP:  3.00D+00
     ILin= 2 X=8.000D-01 Y=-3.563700747538D+03 DE=-4.12D-03 F=  1.25D-03 OKLS=T
     Accept linear search using points  1 and  2.
     An  expanding polynomial of degree  2 produced  0.6730
 RMSU=  1.89D-06    CP:  4.38D-01  1.92D+00  3.00D+00  3.93D-01  3.00D+00
                    CP:  2.25D+00  2.85D+00  4.36D-04  1.38D+00  3.77D-01
                    CP:  3.00D+00  8.41D-01
 Iteration   5 EE= -3563.70077758536     Delta-E=       -0.004150952675 Grad=3.788D-02 Max rot=    0.1046 deg.
 Gradient too large for Newton-Raphson -- use scaled steepest descent instead.
 Alpha Gap=     0.458 HL deriv= 2.73D-04
     ILin= 1 X=0.000D+00 Y=-3.563700777585D+03 DE= 0.00D+00 F= -1.98D-03
 RMSU=  5.23D-05    CP:  4.35D-01  1.90D+00  3.00D+00  3.98D-01  3.00D+00
                    CP:  2.28D+00  3.00D+00  1.62D-02  1.61D+00  5.84D-01
                    CP:  3.00D+00  1.03D+00  2.21D+00
     ILin= 2 X=7.000D-01 Y=-3.563701633097D+03 DE=-8.56D-04 F= -4.60D-04 OKLS=T
     Reject lnstep IMin12=  1  2 Big=T Turn=F Min= 1.214D+00 FVal=-3.563701890801D+03 Lims=  0.00D+00  7.00D-01
 RMSU=  1.54D-05    CP:  4.31D-01  1.89D+00  3.00D+00  4.05D-01  3.00D+00
                    CP:  2.32D+00  3.00D+00  6.40D-02  1.87D+00  1.01D+00
                    CP:  3.00D+00  1.23D+00  3.00D+00  2.13D+00
     ILin= 3 X=1.500D+00 Y=-3.563701304236D+03 DE=-5.27D-04 F=  1.28D-03
     An  expanding polynomial of degree  3 produced  0.9112
 RMSU=  4.19D-07    CP:  4.34D-01  1.90D+00  3.00D+00  4.00D-01  3.00D+00
                    CP:  2.29D+00  3.00D+00  2.88D-02  1.68D+00  6.96D-01
                    CP:  3.00D+00  1.08D+00  3.00D+00  1.30D+00  2.15D-01
 Iteration   6 EE= -3563.70168171581     Delta-E=       -0.000904130451 Grad=1.885D-02 Max rot=    0.0613 deg.
 Gradient too large for Newton-Raphson -- use scaled steepest descent instead.
 Alpha Gap=     0.459 HL deriv= 1.07D-04
     ILin= 1 X=0.000D+00 Y=-3.563701681716D+03 DE= 0.00D+00 F= -6.65D-04
 RMSU=  2.59D-05    CP:  4.32D-01  1.89D+00  3.00D+00  3.96D-01  3.00D+00
                    CP:  2.31D+00  3.00D+00  4.31D-02  1.74D+00  8.55D-01
                    CP:  3.00D+00  1.34D+00  3.00D+00  1.45D+00  8.28D-01
                    CP: -3.00D+00
     ILin= 2 X=8.000D-01 Y=-3.563701869943D+03 DE=-1.88D-04 F=  1.95D-04 OKLS=T
     Accept linear search using points  1 and  2.
     An  expanding polynomial of degree  2 produced  0.5657
 RMSU=  1.74D-07    CP:  4.33D-01  1.89D+00  3.00D+00  3.97D-01  3.00D+00
                    CP:  2.31D+00  3.00D+00  3.89D-02  1.72D+00  8.08D-01
                    CP:  3.00D+00  1.27D+00  3.00D+00  1.41D+00  6.49D-01
                    CP: -2.37D+00  7.07D-01
 Iteration   7 EE= -3563.70188606764     Delta-E=       -0.000204351833 Grad=7.353D-03 Max rot=    0.0327 deg.
 SCF Done:  E(RHF) =  -3563.70188607     a.u. after    7 cycles
            Convg  =    0.7353D-02                    18 Fock formations.
              S**2 =  0.0000                  -V/T =  2.0002
 Leave Link  508 at Fri Nov 12 01:40:02 2021, MaxMem=  7864320000 cpu:         1351598.5 elap:           43158.7
 (Enter /apps/gaussian/g16-c01-avx/g16/l502.exe)
 Integral symmetry usage will be decided dynamically.
 Closed shell SCF:
 Using DIIS extrapolation, IDIIS=  1040.
 NGot=  7864320000 LenX=  7842990452 LenY=  7832392172
 Requested convergence on RMS density matrix=1.00D-08 within 128 cycles.
 Requested convergence on MAX density matrix=1.00D-06.
 Requested convergence on             energy=1.00D-06.
 No special actions if energy rises.
 Fock matrices will be formed incrementally for  20 cycles.

 Cycle   1  Pass 1  IDiag  1:
 FoFJK:  IHMeth= 1 ICntrl=       0 DoSepK=F KAlg= 0 I1Cent=           0 FoldK=F
 IRaf= 860000000 NMat=       1 IRICut=       1 DoRegI=T DoRafI=F ISym2E= 0 IDoP0=0 IntGTp=1.
 FoFCou: FMM=T IPFlag=           0 FMFlag=      100000 FMFlg1=        2001
         NFxFlg=           0 DoJE=F BraDBF=F KetDBF=F FulRan=T
         wScrn=  0.000000 ICntrl=         0 IOpCl=  0 I1Cent=           0 NGrid=           0
         NMat0=    1 NMatS0=      1 NMatT0=    0 NMatD0=    1 NMtDS0=    0 NMtDT0=    0
 Symmetry not used in FoFCou.
 FMM levels:  10  Number of levels for PrismC:   9
 E= -3563.70188607671    
 DIIS: error= 3.34D-05 at cycle   1 NSaved=   1.
 NSaved= 1 IEnMin= 1 EnMin= -3563.70188607671     IErMin= 1 ErrMin= 3.34D-05
 ErrMax= 3.34D-05  0.00D+00 EMaxC= 1.00D-01 BMatC= 2.70D-05 BMatP= 2.70D-05
 IDIUse=1 WtCom= 1.00D+00 WtEn= 0.00D+00
 Coeff-Com:  0.100D+01
 Coeff:      0.100D+01
 Gap=     0.459 Goal=   None    Shift=    0.000
 RMSDP=9.51D-05 MaxDP=1.96D-02              OVMax= 1.72D-03

 Cycle   2  Pass 1  IDiag  1:
 RMSU=  8.04D-05    CP:  9.98D-01
 E= -3563.70195244459     Delta-E=       -0.000066367880 Rises=F Damp=F
 DIIS: error= 1.32D-05 at cycle   2 NSaved=   2.
 NSaved= 2 IEnMin= 2 EnMin= -3563.70195244459     IErMin= 2 ErrMin= 1.32D-05
 ErrMax= 1.32D-05  0.00D+00 EMaxC= 1.00D-01 BMatC= 5.37D-06 BMatP= 2.70D-05
 IDIUse=1 WtCom= 1.00D+00 WtEn= 0.00D+00
 Coeff-Com:  0.691D-01 0.931D+00
 Coeff:      0.691D-01 0.931D+00
 Gap=     0.342 Goal=   None    Shift=    0.000
 RMSDP=2.33D-05 MaxDP=5.43D-03 DE=-6.64D-05 OVMax= 5.91D-04

 Cycle   3  Pass 1  IDiag  1:
 RMSU=  1.15D-05    CP:  9.98D-01  1.19D+00
 E= -3563.70196311391     Delta-E=       -0.000010669322 Rises=F Damp=F
 DIIS: error= 9.01D-06 at cycle   3 NSaved=   3.
 NSaved= 3 IEnMin= 3 EnMin= -3563.70196311391     IErMin= 3 ErrMin= 9.01D-06
 ErrMax= 9.01D-06  0.00D+00 EMaxC= 1.00D-01 BMatC= 2.15D-06 BMatP= 5.37D-06
 IDIUse=1 WtCom= 1.00D+00 WtEn= 0.00D+00
 Coeff-Com: -0.220D+00 0.336D+00 0.884D+00
 Coeff:     -0.220D+00 0.336D+00 0.884D+00
 Gap=     0.342 Goal=   None    Shift=    0.000
 RMSDP=9.62D-06 MaxDP=1.67D-03 DE=-1.07D-05 OVMax= 5.35D-04

 Cycle   4  Pass 1  IDiag  1:
 RMSU=  5.91D-06    CP:  9.98D-01  1.28D+00  1.07D+00
 E= -3563.70196724241     Delta-E=       -0.000004128498 Rises=F Damp=F
 DIIS: error= 2.41D-06 at cycle   4 NSaved=   4.
 NSaved= 4 IEnMin= 4 EnMin= -3563.70196724241     IErMin= 4 ErrMin= 2.41D-06
 ErrMax= 2.41D-06  0.00D+00 EMaxC= 1.00D-01 BMatC= 1.00D-07 BMatP= 2.15D-06
 IDIUse=1 WtCom= 1.00D+00 WtEn= 0.00D+00
 Coeff-Com:  0.925D-01-0.195D+00-0.401D+00 0.150D+01
 Coeff:      0.925D-01-0.195D+00-0.401D+00 0.150D+01
 Gap=     0.342 Goal=   None    Shift=    0.000
 RMSDP=3.49D-06 MaxDP=7.66D-04 DE=-4.13D-06 OVMax= 3.14D-04

 Cycle   5  Pass 1  IDiag  1:
 RMSU=  2.43D-06    CP:  9.98D-01  1.27D+00  1.15D+00  1.34D+00
 E= -3563.70196789325     Delta-E=       -0.000000650842 Rises=F Damp=F
 DIIS: error= 1.13D-06 at cycle   5 NSaved=   5.
 NSaved= 5 IEnMin= 5 EnMin= -3563.70196789325     IErMin= 5 ErrMin= 1.13D-06
 ErrMax= 1.13D-06  0.00D+00 EMaxC= 1.00D-01 BMatC= 2.43D-08 BMatP= 1.00D-07
 IDIUse=1 WtCom= 1.00D+00 WtEn= 0.00D+00
 Coeff-Com:  0.295D-01-0.395D-01-0.126D+00-0.111D-01 0.115D+01
 Coeff:      0.295D-01-0.395D-01-0.126D+00-0.111D-01 0.115D+01
 Gap=     0.342 Goal=   None    Shift=    0.000
 RMSDP=1.63D-06 MaxDP=3.29D-04 DE=-6.51D-07 OVMax= 1.43D-04

 Cycle   6  Pass 1  IDiag  1:
 RMSU=  1.03D-06    CP:  9.98D-01  1.26D+00  1.14D+00  1.46D+00  1.38D+00
 E= -3563.70196802696     Delta-E=       -0.000000133710 Rises=F Damp=F
 DIIS: error= 5.30D-07 at cycle   6 NSaved=   6.
 NSaved= 6 IEnMin= 6 EnMin= -3563.70196802696     IErMin= 6 ErrMin= 5.30D-07
 ErrMax= 5.30D-07  0.00D+00 EMaxC= 1.00D-01 BMatC= 5.80D-09 BMatP= 2.43D-08
 IDIUse=1 WtCom= 1.00D+00 WtEn= 0.00D+00
 Coeff-Com: -0.280D-01 0.646D-01 0.119D+00-0.535D+00 0.141D+00 0.124D+01
 Coeff:     -0.280D-01 0.646D-01 0.119D+00-0.535D+00 0.141D+00 0.124D+01
 Gap=     0.342 Goal=   None    Shift=    0.000
 RMSDP=1.04D-06 MaxDP=2.00D-04 DE=-1.34D-07 OVMax= 1.09D-04

 Cycle   7  Pass 1  IDiag  1:
 RMSU=  4.92D-07    CP:  9.98D-01  1.26D+00  1.14D+00  1.50D+00  1.69D+00
                    CP:  1.38D+00
 E= -3563.70196806772     Delta-E=       -0.000000040756 Rises=F Damp=F
 DIIS: error= 1.51D-07 at cycle   7 NSaved=   7.
 NSaved= 7 IEnMin= 7 EnMin= -3563.70196806772     IErMin= 7 ErrMin= 1.51D-07
 ErrMax= 1.51D-07  0.00D+00 EMaxC= 1.00D-01 BMatC= 4.32D-10 BMatP= 5.80D-09
 IDIUse=1 WtCom= 1.00D+00 WtEn= 0.00D+00
 Coeff-Com: -0.215D-02 0.290D-02 0.730D-02 0.134D-01-0.119D+00 0.157D-01
 Coeff-Com:  0.108D+01
 Coeff:     -0.215D-02 0.290D-02 0.730D-02 0.134D-01-0.119D+00 0.157D-01
 Coeff:      0.108D+01
 Gap=     0.342 Goal=   None    Shift=    0.000
 RMSDP=2.96D-07 MaxDP=3.29D-05 DE=-4.08D-08 OVMax= 2.21D-05

 Cycle   8  Pass 1  IDiag  1:
 RMSU=  1.89D-07    CP:  9.98D-01  1.26D+00  1.14D+00  1.52D+00  1.73D+00
                    CP:  1.49D+00  1.27D+00
 E= -3563.70196806918     Delta-E=       -0.000000001466 Rises=F Damp=F
 DIIS: error= 6.62D-08 at cycle   8 NSaved=   8.
 NSaved= 8 IEnMin= 8 EnMin= -3563.70196806918     IErMin= 8 ErrMin= 6.62D-08
 ErrMax= 6.62D-08  0.00D+00 EMaxC= 1.00D-01 BMatC= 1.17D-10 BMatP= 4.32D-10
 IDIUse=1 WtCom= 1.00D+00 WtEn= 0.00D+00
 Coeff-Com:  0.442D-02-0.104D-01-0.204D-01 0.997D-01-0.646D-01-0.215D+00
 Coeff-Com:  0.306D+00 0.900D+00
 Coeff:      0.442D-02-0.104D-01-0.204D-01 0.997D-01-0.646D-01-0.215D+00
 Coeff:      0.306D+00 0.900D+00
 Gap=     0.342 Goal=   None    Shift=    0.000
 RMSDP=3.05D-07 MaxDP=3.60D-05 DE=-1.47D-09 OVMax= 7.86D-06

 Cycle   9  Pass 1  IDiag  1:
 RMSU=  1.78D-07    CP:  9.98D-01  1.26D+00  1.14D+00  1.54D+00  1.77D+00
                    CP:  1.51D+00  1.56D+00  1.79D+00
 E= -3563.70196807013     Delta-E=       -0.000000000942 Rises=F Damp=F
 DIIS: error= 2.09D-08 at cycle   9 NSaved=   9.
 NSaved= 9 IEnMin= 9 EnMin= -3563.70196807013     IErMin= 9 ErrMin= 2.09D-08
 ErrMax= 2.09D-08  0.00D+00 EMaxC= 1.00D-01 BMatC= 1.48D-11 BMatP= 1.17D-10
 IDIUse=1 WtCom= 1.00D+00 WtEn= 0.00D+00
 Coeff-Com: -0.108D-03 0.821D-03 0.717D-05-0.911D-02 0.177D-01 0.193D-01
 Coeff-Com: -0.141D+00-0.139D+00 0.125D+01
 Coeff:     -0.108D-03 0.821D-03 0.717D-05-0.911D-02 0.177D-01 0.193D-01
 Coeff:     -0.141D+00-0.139D+00 0.125D+01
 Gap=     0.342 Goal=   None    Shift=    0.000
 RMSDP=6.67D-07 MaxDP=7.61D-05 DE=-9.42D-10 OVMax= 3.20D-06

 Cycle  10  Pass 1  IDiag  1:
 RMSU=  2.14D-07    CP:  9.98D-01  1.26D+00  1.14D+00  1.55D+00  1.86D+00
                    CP:  1.46D+00  2.00D+00  3.00D+00  3.00D+00
 E= -3563.70196807379     Delta-E=       -0.000000003660 Rises=F Damp=F
 DIIS: error= 3.83D-08 at cycle  10 NSaved=  10.
 NSaved=10 IEnMin=10 EnMin= -3563.70196807379     IErMin= 9 ErrMin= 2.09D-08
 ErrMax= 3.83D-08  0.00D+00 EMaxC= 1.00D-01 BMatC= 6.38D-12 BMatP= 1.48D-11
 IDIUse=1 WtCom= 1.00D+00 WtEn= 0.00D+00
 Coeff-Com: -0.625D-03 0.172D-02 0.255D-02-0.156D-01 0.131D-01 0.357D-01
 Coeff-Com: -0.742D-01-0.174D+00 0.336D+00 0.876D+00
 Coeff:     -0.625D-03 0.172D-02 0.255D-02-0.156D-01 0.131D-01 0.357D-01
 Coeff:     -0.742D-01-0.174D+00 0.336D+00 0.876D+00
 Gap=     0.342 Goal=   None    Shift=    0.000
 RMSDP=1.01D-06 MaxDP=1.16D-04 DE=-3.66D-09 OVMax= 1.22D-06

 Cycle  11  Pass 1  IDiag  1:
 RMSU=  5.99D-07    CP:  9.98D-01  1.26D+00  1.15D+00  1.57D+00  1.99D+00
                    CP:  1.37D+00  2.64D+00  3.00D+00  3.00D+00  3.00D+00
 E= -3563.70196807431     Delta-E=       -0.000000000528 Rises=F Damp=F
 DIIS: error= 5.35D-08 at cycle  11 NSaved=  11.
 NSaved=11 IEnMin=11 EnMin= -3563.70196807431     IErMin= 9 ErrMin= 2.09D-08
 ErrMax= 5.35D-08  0.00D+00 EMaxC= 1.00D-01 BMatC= 6.03D-12 BMatP= 6.38D-12
 IDIUse=1 WtCom= 1.00D+00 WtEn= 0.00D+00
 Coeff-Com: -0.518D-03 0.144D-02 0.209D-02-0.131D-01 0.112D-01 0.301D-01
 Coeff-Com: -0.639D-01-0.148D+00 0.299D+00 0.730D+00 0.153D+00
 Coeff:     -0.518D-03 0.144D-02 0.209D-02-0.131D-01 0.112D-01 0.301D-01
 Coeff:     -0.639D-01-0.148D+00 0.299D+00 0.730D+00 0.153D+00
 Gap=     0.342 Goal=   None    Shift=    0.000
 RMSDP=1.88D-07 MaxDP=2.12D-05 DE=-5.28D-10 OVMax= 7.27D-08

 Cycle  12  Pass 1  IDiag  1:
 RMSU=  6.91D-08    CP:  9.98D-01  1.26D+00  1.15D+00  1.57D+00  2.01D+00
                    CP:  1.36D+00  2.76D+00  3.00D+00  3.00D+00  3.00D+00
                    CP:  1.25D+00
 E= -3563.70196807202     Delta-E=        0.000000002296 Rises=F Damp=F
 DIIS: error= 5.65D-08 at cycle  12 NSaved=  12.
 NSaved=12 IEnMin=11 EnMin= -3563.70196807431     IErMin= 9 ErrMin= 2.09D-08
 ErrMax= 5.65D-08  0.00D+00 EMaxC= 1.00D-01 BMatC= 6.53D-12 BMatP= 6.03D-12
 IDIUse=1 WtCom= 1.00D+00 WtEn= 0.00D+00
 Coeff-Com: -0.498D-03 0.127D-02 0.208D-02-0.108D-01 0.619D-02 0.253D-01
 Coeff-Com: -0.243D-01-0.116D+00-0.733D-01 0.769D+00 0.799D+01-0.757D+01
 Coeff:     -0.498D-03 0.127D-02 0.208D-02-0.108D-01 0.619D-02 0.253D-01
 Coeff:     -0.243D-01-0.116D+00-0.733D-01 0.769D+00 0.799D+01-0.757D+01
 Gap=     0.342 Goal=   None    Shift=    0.000
 RMSDP=1.47D-06 MaxDP=1.62D-04 DE= 2.30D-09 OVMax= 2.89D-07

 Cycle  13  Pass 1  IDiag  1:
 RMSU=  3.34D-07    CP:  9.98D-01  1.26D+00  1.14D+00  1.54D+00  1.82D+00
                    CP:  1.52D+00  1.80D+00  3.00D+00  2.58D+00  3.86D-01
                    CP: -3.33D-02 -2.98D-01
 E= -3563.70196807177     Delta-E=        0.000000000247 Rises=F Damp=F
 DIIS: error= 3.05D-08 at cycle  13 NSaved=  13.
 NSaved=13 IEnMin=11 EnMin= -3563.70196807431     IErMin= 9 ErrMin= 2.09D-08
 ErrMax= 3.05D-08  0.00D+00 EMaxC= 1.00D-01 BMatC= 2.98D-12 BMatP= 6.03D-12
 IDIUse=1 WtCom= 1.00D+00 WtEn= 0.00D+00
 Coeff-Com:  0.408D-04-0.202D-03-0.153D-03 0.281D-02-0.579D-02-0.513D-02
 Coeff-Com:  0.433D-01 0.322D-01-0.396D+00 0.165D-01 0.849D+01-0.868D+01
 Coeff-Com:  0.150D+01
 Coeff:      0.408D-04-0.202D-03-0.153D-03 0.281D-02-0.579D-02-0.513D-02
 Coeff:      0.433D-01 0.322D-01-0.396D+00 0.165D-01 0.849D+01-0.868D+01
 Coeff:      0.150D+01
 Gap=     0.342 Goal=   None    Shift=    0.000
 RMSDP=1.62D-06 MaxDP=1.76D-04 DE= 2.47D-10 OVMax= 7.61D-07

 Cycle  14  Pass 1  IDiag  1:
 RMSU=  3.22D-07    CP:  9.98D-01  1.27D+00  1.14D+00  1.51D+00  1.62D+00
                    CP:  1.65D+00  8.28D-01 -1.44D+00 -3.00D+00 -9.55D-01
                    CP:  1.69D-01 -2.15D+00  1.47D+00
 E= -3563.70196806619     Delta-E=        0.000000005581 Rises=F Damp=F
 DIIS: error= 5.27D-08 at cycle  14 NSaved=  14.
 NSaved=14 IEnMin=11 EnMin= -3563.70196807431     IErMin= 9 ErrMin= 2.09D-08
 ErrMax= 5.27D-08  0.00D+00 EMaxC= 1.00D-01 BMatC= 3.17D-12 BMatP= 2.98D-12
 IDIUse=1 WtCom= 1.00D+00 WtEn= 0.00D+00
 Coeff-Com: -0.558D-04 0.755D-04 0.258D-03-0.852D-04-0.237D-02 0.115D-02
 Coeff-Com:  0.208D-01 0.737D-03-0.244D+00 0.775D-01 0.434D+01-0.404D+01
 Coeff-Com:  0.408D+00 0.432D+00
 Coeff:     -0.558D-04 0.755D-04 0.258D-03-0.852D-04-0.237D-02 0.115D-02
 Coeff:      0.208D-01 0.737D-03-0.244D+00 0.775D-01 0.434D+01-0.404D+01
 Coeff:      0.408D+00 0.432D+00
 Gap=     0.342 Goal=   None    Shift=    0.000
 RMSDP=6.49D-07 MaxDP=6.90D-05 DE= 5.58D-09 OVMax= 1.52D-07

 Cycle  15  Pass 1  IDiag  1:
 RMSU=  1.01D-07    CP:  9.98D-01  1.26D+00  1.14D+00  1.53D+00  1.69D+00
                    CP:  1.61D+00  1.18D+00  2.58D-01 -9.58D-01 -5.12D-01
                    CP:  1.09D-01 -1.02D+00  8.89D-01  4.62D-01
 E= -3563.70196806766     Delta-E=       -0.000000001466 Rises=F Damp=F
 DIIS: error= 8.78D-09 at cycle  15 NSaved=  15.
 NSaved=15 IEnMin=11 EnMin= -3563.70196807431     IErMin=15 ErrMin= 8.78D-09
 ErrMax= 8.78D-09  0.00D+00 EMaxC= 1.00D-01 BMatC= 4.26D-13 BMatP= 2.98D-12
 IDIUse=1 WtCom= 1.00D+00 WtEn= 0.00D+00
 Coeff-Com:  0.739D-05-0.468D-04-0.166D-04 0.596D-03-0.129D-02-0.829D-03
 Coeff-Com:  0.894D-02 0.669D-02-0.806D-01 0.857D-02 0.511D+00-0.447D-01
 Coeff-Com: -0.598D+00-0.645D-01 0.125D+01
 Coeff:      0.739D-05-0.468D-04-0.166D-04 0.596D-03-0.129D-02-0.829D-03
 Coeff:      0.894D-02 0.669D-02-0.806D-01 0.857D-02 0.511D+00-0.447D-01
 Coeff:     -0.598D+00-0.645D-01 0.125D+01
 Gap=     0.342 Goal=   None    Shift=    0.000
 RMSDP=5.29D-07 MaxDP=4.96D-05 DE=-1.47D-09 OVMax= 3.59D-07

 Cycle  16  Pass 1  IDiag  1:
 RMSU=  1.11D-07    CP:  9.98D-01  1.26D+00  1.14D+00  1.54D+00  1.76D+00
                    CP:  1.53D+00  1.52D+00  1.53D+00  6.09D-01 -1.25D-01
                    CP:  2.54D-02 -3.03D-01  2.61D-01  2.87D-01  6.97D-01
 E= -3563.70196806974     Delta-E=       -0.000000002088 Rises=F Damp=F
 DIIS: error= 1.33D-08 at cycle  16 NSaved=  16.
 NSaved=16 IEnMin=11 EnMin= -3563.70196807431     IErMin=15 ErrMin= 8.78D-09
 ErrMax= 1.33D-08  0.00D+00 EMaxC= 1.00D-01 BMatC= 4.61D-13 BMatP= 4.26D-13
 IDIUse=1 WtCom= 1.00D+00 WtEn= 0.00D+00
 Large coefficients: NSaved= 16 BigCof=    0.00 CofMax=   10.00 Det=-7.11D-15
 Inversion failed.  Reducing to 15 matrices.
 Coeff-Com: -0.243D-04 0.914D-05 0.318D-03-0.724D-03-0.603D-03 0.376D-02
 Coeff-Com:  0.663D-02-0.160D-01-0.109D-01 0.254D+00-0.142D+00-0.351D+00
 Coeff-Com:  0.763D-02 0.586D+00 0.663D+00
 Coeff:     -0.243D-04 0.914D-05 0.318D-03-0.724D-03-0.603D-03 0.376D-02
 Coeff:      0.663D-02-0.160D-01-0.109D-01 0.254D+00-0.142D+00-0.351D+00
 Coeff:      0.763D-02 0.586D+00 0.663D+00
 Gap=     0.342 Goal=   None    Shift=    0.000
 RMSDP=3.37D-07 MaxDP=4.06D-05 DE=-2.09D-09 OVMax= 1.29D-07

 Cycle  17  Pass 1  IDiag  1:
 RMSU=  6.23D-08    CP:  9.98D-01  1.26D+00  1.14D+00  1.53D+00  1.72D+00
                    CP:  1.57D+00  1.30D+00  5.97D-01 -5.34D-01 -3.61D-01
                    CP:  7.49D-02 -6.56D-01  3.57D-01  4.29D-01  1.01D+00
                    CP:  7.17D-01
 E= -3563.70196806994     Delta-E=       -0.000000000193 Rises=F Damp=F
 DIIS: error= 1.41D-08 at cycle  17 NSaved=  16.
 NSaved=16 IEnMin=10 EnMin= -3563.70196807431     IErMin=14 ErrMin= 8.78D-09
 ErrMax= 1.41D-08  0.00D+00 EMaxC= 1.00D-01 BMatC= 5.11D-14 BMatP= 4.26D-13
 IDIUse=1 WtCom= 1.00D+00 WtEn= 0.00D+00
 Large coefficients: NSaved= 16 BigCof=    0.00 CofMax=   10.00 Det=-7.04D-15
 Inversion failed.  Reducing to 15 matrices.
 Coeff-Com:  0.149D-04-0.191D-04-0.122D-03 0.120D-03 0.204D-03 0.162D-02
 Coeff-Com:  0.405D-02-0.697D-02 0.318D-01 0.683D-02-0.168D+00 0.587D-01
 Coeff-Com:  0.158D+00 0.315D+00 0.598D+00
 Coeff:      0.149D-04-0.191D-04-0.122D-03 0.120D-03 0.204D-03 0.162D-02
 Coeff:      0.405D-02-0.697D-02 0.318D-01 0.683D-02-0.168D+00 0.587D-01
 Coeff:      0.158D+00 0.315D+00 0.598D+00
 Gap=     0.342 Goal=   None    Shift=    0.000
 RMSDP=6.07D-08 MaxDP=9.38D-06 DE=-1.93D-10 OVMax= 3.77D-08

 Cycle  18  Pass 1  IDiag  1:
 RMSU=  3.28D-08    CP:  9.98D-01  1.26D+00  1.14D+00  1.53D+00  1.71D+00
                    CP:  1.57D+00  1.27D+00  4.65D-01 -6.85D-01 -3.84D-01
                    CP:  7.91D-02 -7.12D-01  3.58D-01  4.70D-01  1.06D+00
                    CP:  8.30D-01  1.34D+00
 E= -3563.70196807096     Delta-E=       -0.000000001026 Rises=F Damp=F
 DIIS: error= 1.76D-08 at cycle  18 NSaved=  16.
 NSaved=16 IEnMin= 9 EnMin= -3563.70196807431     IErMin=13 ErrMin= 8.78D-09
 ErrMax= 1.76D-08  0.00D+00 EMaxC= 1.00D-01 BMatC= 6.90D-14 BMatP= 5.11D-14
 IDIUse=1 WtCom= 1.00D+00 WtEn= 0.00D+00
 Large coefficients: NSaved= 16 BigCof=    0.00 CofMax=   10.00 Det=-7.33D-15
 Inversion failed.  Reducing to 15 matrices.
 Coeff-Com: -0.379D-05-0.682D-04 0.882D-04-0.177D-03 0.168D-02 0.855D-02
 Coeff-Com: -0.633D-02 0.239D-01 0.477D-02-0.167D+00 0.635D-01 0.145D+00
 Coeff-Com:  0.334D+00 0.745D+00-0.153D+00
 Coeff:     -0.379D-05-0.682D-04 0.882D-04-0.177D-03 0.168D-02 0.855D-02
 Coeff:     -0.633D-02 0.239D-01 0.477D-02-0.167D+00 0.635D-01 0.145D+00
 Coeff:      0.334D+00 0.745D+00-0.153D+00
 Gap=     0.342 Goal=   None    Shift=    0.000
 RMSDP=1.58D-08 MaxDP=3.39D-06 DE=-1.03D-09 OVMax= 6.97D-09

 Cycle  19  Pass 1  IDiag  1:
 RMSU=  8.08D-09    CP:  9.98D-01  1.26D+00  1.14D+00  1.53D+00  1.71D+00
                    CP:  1.57D+00  1.27D+00  4.41D-01 -7.14D-01 -3.90D-01
                    CP:  8.03D-02 -7.11D-01  3.51D-01  4.64D-01  1.03D+00
                    CP:  7.82D-01  1.23D+00  8.58D-01
 E= -3563.70196807075     Delta-E=        0.000000000211 Rises=F Damp=F
 DIIS: error= 1.53D-08 at cycle  19 NSaved=  16.
 NSaved=16 IEnMin= 8 EnMin= -3563.70196807431     IErMin=12 ErrMin= 8.78D-09
 ErrMax= 1.53D-08  0.00D+00 EMaxC= 1.00D-01 BMatC= 7.65D-14 BMatP= 5.11D-14
 IDIUse=1 WtCom= 1.00D+00 WtEn= 0.00D+00
 Large coefficients: NSaved= 16 BigCof=    0.00 CofMax=   10.00 Det=-7.39D-15
 Inversion failed.  Reducing to 15 matrices.
 Coeff-Com: -0.408D-04 0.932D-04-0.508D-03 0.114D-02 0.110D-01-0.480D-02
 Coeff-Com: -0.786D-01 0.123D+00-0.186D+00 0.655D-01 0.124D+00 0.268D+00
 Coeff-Com:  0.888D+00-0.688D+00 0.478D+00
 Coeff:     -0.408D-04 0.932D-04-0.508D-03 0.114D-02 0.110D-01-0.480D-02
 Coeff:     -0.786D-01 0.123D+00-0.186D+00 0.655D-01 0.124D+00 0.268D+00
 Coeff:      0.888D+00-0.688D+00 0.478D+00
 Gap=     0.342 Goal=   None    Shift=    0.000
 RMSDP=3.23D-08 MaxDP=3.52D-06 DE= 2.11D-10 OVMax= 9.05D-09

 Cycle  20  Pass 1  IDiag  1:
 RMSU=  2.24D-08    CP:  9.98D-01  1.26D+00  1.14D+00  1.53D+00  1.71D+00
                    CP:  1.57D+00  1.28D+00  4.99D-01 -6.43D-01 -3.78D-01
                    CP:  7.83D-02 -6.80D-01  3.34D-01  4.60D-01  1.04D+00
                    CP:  7.91D-01  1.15D+00  6.03D-01  1.24D+00
 E= -3563.70196806768     Delta-E=        0.000000003074 Rises=F Damp=F
 DIIS: error= 1.52D-08 at cycle  20 NSaved=  16.
 NSaved=16 IEnMin= 7 EnMin= -3563.70196807431     IErMin=11 ErrMin= 8.78D-09
 ErrMax= 1.52D-08  0.00D+00 EMaxC= 1.00D-01 BMatC= 6.40D-14 BMatP= 5.11D-14
 IDIUse=1 WtCom= 1.00D+00 WtEn= 0.00D+00
 Large coefficients: NSaved= 16 BigCof=    0.00 CofMax=   10.00 Det=-7.55D-15
 Inversion failed.  Reducing to 15 matrices.
 Coeff-Com:  0.645D-04-0.705D-03 0.103D-02 0.119D-01-0.538D-02-0.956D-01
 Coeff-Com:  0.137D+00-0.180D+00 0.673D-01 0.117D+00 0.261D+00 0.843D+00
 Coeff-Com: -0.650D+00 0.409D+00 0.841D-01
 Coeff:      0.645D-04-0.705D-03 0.103D-02 0.119D-01-0.538D-02-0.956D-01
 Coeff:      0.137D+00-0.180D+00 0.673D-01 0.117D+00 0.261D+00 0.843D+00
 Coeff:     -0.650D+00 0.409D+00 0.841D-01
 Gap=     0.342 Goal=   None    Shift=    0.000
 RMSDP=4.91D-09 MaxDP=4.83D-07 DE= 3.07D-09 OVMax= 3.12D-09

 Cycle  21  Pass 1  IDiag  1:
 Restarting incremental Fock formation.
 E= -3563.70196807817     Delta-E=       -0.000000010488 Rises=F Damp=F
 DIIS: error= 8.76D-08 at cycle  21 NSaved=  16.
 NSaved=16 IEnMin=16 EnMin= -3563.70196807817     IErMin=10 ErrMin= 8.78D-09
 ErrMax= 8.76D-08  0.00D+00 EMaxC= 1.00D-01 BMatC= 1.25D-11 BMatP= 5.11D-14
 IDIUse=1 WtCom= 1.00D+00 WtEn= 0.00D+00
 Large coefficients: NSaved= 16 BigCof=    0.00 CofMax=   10.00 Det=-4.67D-15
 Inversion failed.  Reducing to 15 matrices.
 Coeff-Com: -0.534D-03 0.126D-02 0.106D-01-0.829D-03 0.727D-01-0.689D-01
 Coeff-Com: -0.141D+00 0.641D-01 0.933D-01 0.241D+00 0.837D+00-0.615D+00
 Coeff-Com:  0.385D+00 0.104D+00 0.172D-01
 Coeff:     -0.534D-03 0.126D-02 0.106D-01-0.829D-03 0.727D-01-0.689D-01
 Coeff:     -0.141D+00 0.641D-01 0.933D-01 0.241D+00 0.837D+00-0.615D+00
 Coeff:      0.385D+00 0.104D+00 0.172D-01
 Gap=     0.342 Goal=   None    Shift=    0.000
 RMSDP=8.42D-08 MaxDP=1.13D-05 DE=-1.05D-08 OVMax= 1.37D-08

 Cycle  22  Pass 1  IDiag  1:
 RMSU=  8.42D-08    CP:  1.00D+00
 E= -3563.70196807809     Delta-E=        0.000000000076 Rises=F Damp=F
 DIIS: error= 8.20D-08 at cycle  22 NSaved=  16.
 NSaved=16 IEnMin=15 EnMin= -3563.70196807817     IErMin= 9 ErrMin= 8.78D-09
 ErrMax= 8.20D-08  0.00D+00 EMaxC= 1.00D-01 BMatC= 1.11D-11 BMatP= 5.11D-14
 IDIUse=1 WtCom= 1.00D+00 WtEn= 0.00D+00
 Large coefficients: NSaved= 16 BigCof=    0.00 CofMax=   10.00 Det=-4.55D-15
 Inversion failed.  Reducing to 15 matrices.
 Coeff-Com: -0.343D-03 0.123D-02 0.758D-02-0.219D-02 0.469D-01-0.225D-01
 Coeff-Com: -0.148D+00 0.173D+00 0.232D+00 0.727D+00-0.476D+00 0.280D+00
 Coeff-Com:  0.155D+00-0.506D+00 0.532D+00
 Coeff:     -0.343D-03 0.123D-02 0.758D-02-0.219D-02 0.469D-01-0.225D-01
 Coeff:     -0.148D+00 0.173D+00 0.232D+00 0.727D+00-0.476D+00 0.280D+00
 Coeff:      0.155D+00-0.506D+00 0.532D+00
 Gap=     0.342 Goal=   None    Shift=    0.000
 RMSDP=5.30D-08 MaxDP=6.26D-06 DE= 7.64D-11 OVMax= 8.85D-09

 Cycle  23  Pass 1  IDiag  1:
 RMSU=  2.29D-08    CP:  1.00D+00  4.32D-01
 E= -3563.70196807707     Delta-E=        0.000000001019 Rises=F Damp=F
 DIIS: error= 8.51D-08 at cycle  23 NSaved=  16.
 NSaved=16 IEnMin=14 EnMin= -3563.70196807817     IErMin= 8 ErrMin= 8.78D-09
 ErrMax= 8.51D-08  0.00D+00 EMaxC= 1.00D-01 BMatC= 1.18D-11 BMatP= 5.11D-14
 IDIUse=1 WtCom= 1.00D+00 WtEn= 0.00D+00
 Large coefficients: NSaved= 16 BigCof=    0.00 CofMax=   10.00 Det=-4.56D-15
 Inversion failed.  Reducing to 15 matrices.
 Coeff-Com: -0.273D-03 0.887D-03 0.561D-02-0.175D-02 0.194D+00-0.225D+00
 Coeff-Com: -0.221D-01 0.136D+00 0.849D+00-0.464D+00 0.252D+00 0.245D+00
 Coeff-Com: -0.742D+00 0.461D+00 0.312D+00
 Coeff:     -0.273D-03 0.887D-03 0.561D-02-0.175D-02 0.194D+00-0.225D+00
 Coeff:     -0.221D-01 0.136D+00 0.849D+00-0.464D+00 0.252D+00 0.245D+00
 Coeff:     -0.742D+00 0.461D+00 0.312D+00
 Gap=     0.342 Goal=   None    Shift=    0.000
 RMSDP=6.67D-08 MaxDP=8.95D-06 DE= 1.02D-09 OVMax= 1.27D-08

 Cycle  24  Pass 1  IDiag  1:
 RMSU=  1.80D-08    CP:  1.00D+00  1.19D+00  1.14D+00
 E= -3563.70196807739     Delta-E=       -0.000000000317 Rises=F Damp=F
 DIIS: error= 8.06D-08 at cycle  24 NSaved=  16.
 NSaved=16 IEnMin=13 EnMin= -3563.70196807817     IErMin= 8 ErrMin= 1.33D-08
 ErrMax= 8.06D-08  0.00D+00 EMaxC= 1.00D-01 BMatC= 1.08D-11 BMatP= 5.11D-14
 IDIUse=1 WtCom= 1.00D+00 WtEn= 0.00D+00
 Large coefficients: NSaved= 16 BigCof=    0.00 CofMax=   10.00 Det=-4.79D-15
 Inversion failed.  Reducing to 15 matrices.
 Coeff-Com: -0.348D-03 0.906D-03 0.710D-02-0.152D-02 0.175D+00-0.205D+00
 Coeff-Com: -0.309D-01 0.123D+00 0.972D+00-0.538D+00 0.464D+00-0.858D+00
 Coeff-Com:  0.648D+00 0.468D+00-0.224D+00
 Coeff:     -0.348D-03 0.906D-03 0.710D-02-0.152D-02 0.175D+00-0.205D+00
 Coeff:     -0.309D-01 0.123D+00 0.972D+00-0.538D+00 0.464D+00-0.858D+00
 Coeff:      0.648D+00 0.468D+00-0.224D+00
 Gap=     0.342 Goal=   None    Shift=    0.000
 RMSDP=1.93D-08 MaxDP=1.91D-06 DE=-3.17D-10 OVMax= 3.02D-09

 Cycle  25  Pass 1  IDiag  1:
 RMSU=  1.64D-08    CP:  1.00D+00  1.23D+00  9.16D-01  5.45D-01
 E= -3563.70196807738     Delta-E=        0.000000000007 Rises=F Damp=F
 DIIS: error= 7.89D-08 at cycle  25 NSaved=  16.
 NSaved=16 IEnMin=12 EnMin= -3563.70196807817     IErMin= 8 ErrMin= 1.33D-08
 ErrMax= 7.89D-08  0.00D+00 EMaxC= 1.00D-01 BMatC= 1.07D-11 BMatP= 5.11D-14
 IDIUse=1 WtCom= 1.00D+00 WtEn= 0.00D+00
 Large coefficients: NSaved= 16 BigCof=    0.00 CofMax=   10.00 Det=-4.53D-15
 Inversion failed.  Reducing to 15 matrices.
 Coeff-Com:  0.871D-03 0.472D-02-0.162D-02 0.187D+00-0.212D+00-0.308D-01
 Coeff-Com:  0.124D+00 0.101D+01-0.700D+00 0.588D+00-0.832D+00 0.546D+00
 Coeff-Com:  0.451D+00-0.358D+00 0.224D+00
 Coeff:      0.871D-03 0.472D-02-0.162D-02 0.187D+00-0.212D+00-0.308D-01
 Coeff:      0.124D+00 0.101D+01-0.700D+00 0.588D+00-0.832D+00 0.546D+00
 Coeff:      0.451D+00-0.358D+00 0.224D+00
 Gap=     0.342 Goal=   None    Shift=    0.000
 RMSDP=1.55D-08 MaxDP=1.79D-06 DE= 7.28D-12 OVMax= 4.65D-09

 Cycle  26  Pass 1  IDiag  1:
 RMSU=  1.17D-08    CP:  1.00D+00  1.12D+00  9.25D-01  3.45D-01  1.12D+00
 E= -3563.70196807642     Delta-E=        0.000000000964 Rises=F Damp=F
 DIIS: error= 7.87D-08 at cycle  26 NSaved=  16.
 NSaved=16 IEnMin=11 EnMin= -3563.70196807817     IErMin= 7 ErrMin= 1.33D-08
 ErrMax= 7.87D-08  0.00D+00 EMaxC= 1.00D-01 BMatC= 1.09D-11 BMatP= 5.11D-14
 IDIUse=1 WtCom= 1.00D+00 WtEn= 0.00D+00
 Large coefficients: NSaved= 16 BigCof=    0.00 CofMax=   10.00 Det=-4.16D-15
 Inversion failed.  Reducing to 15 matrices.
 Coeff-Com:  0.550D-02 0.773D-03 0.185D+00-0.210D+00-0.330D-01 0.123D+00
 Coeff-Com:  0.101D+01-0.705D+00 0.592D+00-0.819D+00 0.536D+00 0.433D+00
 Coeff-Com: -0.340D+00 0.199D+00 0.216D-01
 Coeff:      0.550D-02 0.773D-03 0.185D+00-0.210D+00-0.330D-01 0.123D+00
 Coeff:      0.101D+01-0.705D+00 0.592D+00-0.819D+00 0.536D+00 0.433D+00
 Coeff:     -0.340D+00 0.199D+00 0.216D-01
 Gap=     0.342 Goal=   None    Shift=    0.000
 RMSDP=2.45D-09 MaxDP=2.36D-07 DE= 9.64D-10 OVMax= 4.20D-09

 Error on total polarization charges =  0.03055
 SCF Done:  E(RHF) =  -3563.70196808     A.U. after   26 cycles
            NFock= 26  Conv=0.25D-08     -V/T= 2.0002
 KE= 3.563060370433D+03 PE=-4.330929899916D+04 EE= 1.868146157706D+04
 Leave Link  502 at Fri Nov 12 12:22:42 2021, MaxMem=  7864320000 cpu:         1221503.0 elap:           38559.5
 (Enter /apps/gaussian/g16-c01-avx/g16/l508.exe)
 QCSCF skips out because SCF is already converged.
 Leave Link  508 at Fri Nov 12 12:22:42 2021, MaxMem=  7864320000 cpu:               0.0 elap:               0.0
 (Enter /apps/gaussian/g16-c01-avx/g16/l801.exe)
 ExpMin= 2.97D-02 ExpMax= 9.05D+03 ExpMxC= 3.09D+02 IAcc=3 IRadAn=         7 AccDes= 0.00D+00
 HarFok:  IExCor=  205 AccDes= 0.00D+00 IRadAn=         7 IDoV=-2 UseB2=F ITyADJ=14
 ICtDFT= 12500011 ScaDFX=  1.000000  1.000000  1.000000  1.000000
 GSVD:  LWork=       -8265 too small for GESVD, short by       39150 words or       39150 for optimal perf.
 Largest valence mixing into a core orbital is  1.18D-04
 Largest core mixing into a valence orbital is  4.45D-05
 Range of M.O.s used for correlation:    88  3030
 NBasis=  3081 NAE=   327 NBE=   327 NFC=    87 NFV=     0
 NROrb=   2943 NOA=   240 NOB=   240 NVA=  2703 NVB=  2703

 **** Warning!!: The largest alpha MO coefficient is  0.15335503D+03

 Leave Link  801 at Fri Nov 12 12:22:44 2021, MaxMem=  7864320000 cpu:              42.8 elap:               1.4
 (Enter /apps/gaussian/g16-c01-avx/g16/l906.exe)
 FulOut=F Deriv=F AODrv=F NAtomX=   207
   MMem=           0  MDisk=         240 MDiskD=         240
  W3Min=  2111583600 MinDsk=  1843599500 NBas6D=        3255
 NBas2D=     5303253    NTT=     5299140    LW2=     2000000
    MDV=  7819243888 MDiskM=       33355 NBas2p=     3132278
 Disk-based method using OVN memory for240 occupieds at a time.
 Estimated scratch disk usage=************ words.
 IMap=   1   2   3   4   5   6   7   8   9  10  11  12  13  14  15  16  17  18  19  20
 IMap=  21  22  23  24  25  26  27  28  29  30  31  32  33  34  35  36  37  38  39  40
 IMap=  41  42  43  44  45  46  47  48  49  50  51  52  53  54  55  56  57  58  59  60
 IMap=  61  62  63  64  65  66  67  68  69  70  71  72  73  74  75  76  77  78  79  80
 IMap=  81  82  83  84  85  86  87  88  89  90  91  92  93  94  95  96  97  98  99 100
 IMap= 101 102 103 104 105 106 107 108 109 110 111 112 113 114 115 116 117 118 119 120
 IMap= 121 122 123 124 125 126 127 128 129 130 131 132 133 134 135 136 137 138 139 140
 IMap= 141 142 143 144 145 146 147 148 149 150 151 152 153 154 155 156 157 158 159 160
 IMap= 161 162 163 164 165 166 167 168 169 170 171 172 173 174 175 176 177 178 179 180
 IMap= 181 182 183 184 185 186 187 188 189 190 191 192 193 194 195 196 197 198 199 200
 IMap= 201 202 203 204 205 206 207 208 209 210 211 212 213 214 215 216 217 218 219 220
 IMap= 221 222 223 224 225 226 227 228 229 230 231 232 233 234 235 236 237 238 239 240
 Actual    scratch disk usage=************ words.
 JobTyp=1 Pass  1:  I=   1 to 240 NPSUse= 32 ParTrn=T ParDer=T DoDerP=F.
