 Entering Gaussian System, Link 0=g16
 Initial command:
 /apps/gaussian/g16-c01-avx/g16/l1.exe "/rds/general/ephemeral/user/atarzia/ephemeral/xtb_spe_DFT/Gau-3068120.inp" -scrdir="/rds/general/ephemeral/user/atarzia/ephemeral/xtb_spe_DFT/"
 Entering Link 1 = /apps/gaussian/g16-c01-avx/g16/l1.exe PID=   3068121.
  
 Copyright (c) 1988-2019, Gaussian, Inc.  All Rights Reserved.
  
 This is part of the Gaussian(R) 16 program.  It is based on
 the Gaussian(R) 09 system (copyright 2009, Gaussian, Inc.),
 the Gaussian(R) 03 system (copyright 2003, Gaussian, Inc.),
 the Gaussian(R) 98 system (copyright 1998, Gaussian, Inc.),
 the Gaussian(R) 94 system (copyright 1995, Gaussian, Inc.),
 the Gaussian 92(TM) system (copyright 1992, Gaussian, Inc.),
 the Gaussian 90(TM) system (copyright 1990, Gaussian, Inc.),
 the Gaussian 88(TM) system (copyright 1988, Gaussian, Inc.),
 the Gaussian 86(TM) system (copyright 1986, Carnegie Mellon
 University), and the Gaussian 82(TM) system (copyright 1983,
 Carnegie Mellon University). Gaussian is a federally registered
 trademark of Gaussian, Inc.
  
 This software contains proprietary and confidential information,
 including trade secrets, belonging to Gaussian, Inc.
  
 This software is provided under written license and may be
 used, copied, transmitted, or stored only in accord with that
 written license.
  
 The following legend is applicable only to US Government
 contracts under FAR:
  
                    RESTRICTED RIGHTS LEGEND
  
 Use, reproduction and disclosure by the US Government is
 subject to restrictions as set forth in subparagraphs (a)
 and (c) of the Commercial Computer Software - Restricted
 Rights clause in FAR 52.227-19.
  
 Gaussian, Inc.
 340 Quinnipiac St., Bldg. 40, Wallingford CT 06492
  
  
 ---------------------------------------------------------------
 Warning -- This program may not be used in any manner that
 competes with the business of Gaussian, Inc. or will provide
 assistance to any competitor of Gaussian, Inc.  The licensee
 of this program is prohibited from giving any competitor of
 Gaussian, Inc. access to this program.  By using this program,
 the user acknowledges that Gaussian, Inc. is engaged in the
 business of creating and licensing software in the field of
 computational chemistry and represents and warrants to the
 licensee that it is not a competitor of Gaussian, Inc. and that
 it will not use this program in any manner prohibited above.
 ---------------------------------------------------------------
  

 Cite this work as:
 Gaussian 16, Revision C.01,
 M. J. Frisch, G. W. Trucks, H. B. Schlegel, G. E. Scuseria, 
 M. A. Robb, J. R. Cheeseman, G. Scalmani, V. Barone, 
 G. A. Petersson, H. Nakatsuji, X. Li, M. Caricato, A. V. Marenich, 
 J. Bloino, B. G. Janesko, R. Gomperts, B. Mennucci, H. P. Hratchian, 
 J. V. Ortiz, A. F. Izmaylov, J. L. Sonnenberg, D. Williams-Young, 
 F. Ding, F. Lipparini, F. Egidi, J. Goings, B. Peng, A. Petrone, 
 T. Henderson, D. Ranasinghe, V. G. Zakrzewski, J. Gao, N. Rega, 
 G. Zheng, W. Liang, M. Hada, M. Ehara, K. Toyota, R. Fukuda, 
 J. Hasegawa, M. Ishida, T. Nakajima, Y. Honda, O. Kitao, H. Nakai, 
 T. Vreven, K. Throssell, J. A. Montgomery, Jr., J. E. Peralta, 
 F. Ogliaro, M. J. Bearpark, J. J. Heyd, E. N. Brothers, K. N. Kudin, 
 V. N. Staroverov, T. A. Keith, R. Kobayashi, J. Normand, 
 K. Raghavachari, A. P. Rendell, J. C. Burant, S. S. Iyengar, 
 J. Tomasi, M. Cossi, J. M. Millam, M. Klene, C. Adamo, R. Cammi, 
 J. W. Ochterski, R. L. Martin, K. Morokuma, O. Farkas, 
 J. B. Foresman, and D. J. Fox, Gaussian, Inc., Wallingford CT, 2019.
 
 ******************************************
 Gaussian 16:  ES64L-G16RevC.01  3-Jul-2019
                 2-Nov-2021 
 ******************************************
 %chk=_3_alde1_5_ami2_1_opt_gas_mp2.chk
 %mem=60000mb
 %nprocshared=32
 Will use up to   32 processors via shared memory.
 ---------------------------------------------------------------------
 #P MP2/aug-cc-pVDZ SP SCF=(YQC,MaxCycle=900) int=(Grid=Superfinegrid)
 ---------------------------------------------------------------------
 1/38=1,172=1/1;
 2/12=2,17=6,18=5,40=1/2;
 3/5=16,7=10,11=9,25=1,30=1,75=-7/1,2,3;
 4//1;
 5/5=2,7=900,8=4,13=1,38=1/8,2,8;
 8/10=1/1;
 9/16=-3/6;
 6/7=2,8=2,9=2,10=2/1;
 99/5=1,9=1/99;
 Leave Link    1 at Tue Nov  2 18:51:32 2021, MaxMem=  7864320000 cpu:               8.9 elap:               0.3
 (Enter /apps/gaussian/g16-c01-avx/g16/l101.exe)
 -----------------------------
 _3_alde1_5_ami2_1_opt_gas_mp2
 -----------------------------
 Symbolic Z-matrix:
 Charge =  0 Multiplicity = 1
 C                    -3.5783   -1.7631   -1.1263 
 C                    -4.4619   -0.8438   -0.4249 
 C                    -3.0545   -2.8938   -0.5046 
 C                    -2.1457   -3.7092   -1.1735 
 H                    -3.354    -3.1404    0.5006 
 C                    -1.7306   -3.363    -2.4583 
 C                    -2.2515   -2.2411   -3.0953 
 H                    -1.004    -3.9823   -2.9661 
 C                    -3.1947   -1.4628   -2.4299 
 C                    -1.7652   -1.847    -4.4132 
 H                    -3.5957   -0.6034   -2.9434 
 C                    -1.602    -4.9055   -0.5483 
 H                    -0.8508   -2.3619   -4.7331 
 H                    -4.9333   -0.0734   -1.0544 
 H                    -0.7966   -5.4074   -1.1064 
 C                     3.0826   -2.8636   -0.8295 
 C                     3.688    -3.3913   -2.1159 
 C                     3.4466   -1.6169   -0.3483 
 C                     2.8582   -1.1036    0.8071 
 H                     4.1762   -1.0228   -0.8736 
 C                     1.9018   -1.8595    1.4775 
 C                     1.5682   -3.1342    1.0312 
 H                     1.4312   -1.4628    2.3673 
 C                     2.1651   -3.6293   -0.1269 
 C                     0.5956   -3.9281    1.7739 
 H                     1.8895   -4.6093   -0.4806 
 C                     3.2191    0.2161    1.2981 
 H                    -0.0241   -3.3546    2.4746 
 H                     2.6092    0.5987    2.1327 
 C                    -1.4509    1.8657   -0.1995 
 C                    -2.2548    1.6244    0.9947 
 C                    -2.0258    1.7627   -1.4647 
 C                    -1.246     1.8511   -2.6121 
 H                    -3.087     1.5809   -1.5258 
 C                     0.1228    2.0861   -2.4894 
 C                     0.7006    2.253    -1.2362 
 H                     0.7176    2.1487   -3.3876 
 C                    -0.0894    2.125    -0.0945 
 C                     2.1292    2.5302   -1.1223 
 H                     0.3855    2.231     0.869 
 C                    -1.8677    1.6414   -3.9099 
 H                     2.7071    2.3345   -2.0322 
 H                    -2.9679    1.6242   -3.9047 
 C                    -4.3668    1.2024    2.0319 
 C                    -5.3756    0.1782    1.4332 
 N                    -3.5101    1.5513    0.93 
 N                    -4.6395   -0.8824    0.8237 
 H                    -6.014     0.7093    0.7103 
 C                     2.9232   -1.9904   -3.846 
 C                     1.9201   -3.1428   -3.5252 
 N                     4.076    -2.2815   -2.9837 
 N                     2.6836   -4.1705   -2.8372 
 C                    -1.4008   -6.4843    1.1362 
 C                    -0.4503   -6.0106    2.2725 
 N                    -2.034    -5.3489    0.551 
 H                    -2.1735   -7.1231    1.5697 
 N                     0.5169   -5.175     1.6157 
 C                     0.3152   -7.2215    2.8169 
 C                    -1.8848   -0.4368   -6.3402 
 C                    -1.9257    1.1091   -6.1553 
 N                    -2.3546   -0.9621   -5.0873 
 C                    -0.4757   -0.8582   -6.7672 
 N                    -1.2064    1.4554   -4.9697 
 H                    -2.9806    1.4182   -6.1023 
 C                     4.422     2.2032    1.2752 
 C                     4.0171    3.2124    0.1651 
 N                     4.1729    0.8801    0.8079 
 H                     3.8556    2.4415    2.19 
 N                     2.616     2.9717   -0.0482 
 H                    -1.6722    1.4827    1.9133 
 H                     3.1429   -4.7734   -3.5152 
 H                     4.5542   -4.0141   -1.8643 
 H                     4.8904   -2.5177   -3.5384 
 H                    -5.9882   -0.2344    2.237 
 H                    -0.8051   -7.0553    0.4074 
 C                    -1.2777   -5.3619    3.3865 
 C                    -2.9038   -0.8382   -7.413 
 H                    -1.4423    1.5851   -7.0107 
 H                     5.4928    2.3055    1.4671 
 C                     4.9359    3.0266   -1.0456 
 C                     4.1415    4.6377    0.7143 
 H                     4.6206    3.6665   -1.8679 
 H                     4.9289    1.9876   -1.3649 
 H                     5.9518    3.2963   -0.7697 
 C                    -5.126     2.4689    2.4441 
 C                    -3.6748    0.5792    3.2476 
 H                    -5.5685    2.9403    1.5704 
 H                    -4.4408    3.1761    2.9067 
 H                    -5.9122    2.2222    3.153 
 H                    -3.9102   -0.6037   -7.0766 
 H                    -2.8435   -1.9087   -7.5972 
 H                    -2.7041   -0.3076   -8.3404 
 H                    -1.9017   -6.1177    3.8559 
 H                    -1.9232   -4.5889    2.9775 
 H                    -0.6255   -4.9323    4.145 
 H                    -4.4219    0.3014    3.9862 
 H                    -2.9865    1.2843    3.7096 
 H                    -3.1341   -0.3143    2.9446 
 H                     0.2472   -0.5342   -6.0222 
 H                    -0.2307   -0.3897   -7.7169 
 H                    -0.4133   -1.9377   -6.8935 
 H                     3.9088    5.3551   -0.0694 
 H                     5.1514    4.8205    1.0725 
 H                     3.4402    4.7825    1.5316 
 H                    -0.3757   -7.9879    3.1589 
 H                     0.943    -6.9141    3.6501 
 H                     0.9533   -7.6342    2.0404 
 H                     1.4435   -3.5415   -4.4201 
 H                     1.1535   -2.7769   -2.8368 
 C                     2.3343   -0.6292   -3.4729 
 H                     1.4128   -0.4455   -4.021 
 H                     3.0487    0.1558   -3.7083 
 H                     2.1183   -0.593    -2.4084 
 C                     3.3283   -2.0031   -5.3206 
 H                     3.7038   -2.9844   -5.612 
 H                     4.109    -1.2665   -5.5009 
 H                     2.4762   -1.7601   -5.9509 
 
 ITRead=  0  0  0  0  0  0  0  0  0  0  0  0  0  0  0  0  0  0  0  0
 ITRead=  0  0  0  0  0  0  0  0  0  0  0  0  0  0  0  0  0  0  0  0
 ITRead=  0  0  0  0  0  0  0  0  0  0  0  0  0  0  0  0  0  0  0  0
 ITRead=  0  0  0  0  0  0  0  0  0  0  0  0  0  0  0  0  0  0  0  0
 ITRead=  0  0  0  0  0  0  0  0  0  0  0  0  0  0  0  0  0  0  0  0
 ITRead=  0  0  0  0  0  0  0  0  0  0  0  0  0  0  0  0  0
 MicOpt= -1 -1 -1 -1 -1 -1 -1 -1 -1 -1 -1 -1 -1 -1 -1 -1 -1 -1 -1 -1
 MicOpt= -1 -1 -1 -1 -1 -1 -1 -1 -1 -1 -1 -1 -1 -1 -1 -1 -1 -1 -1 -1
 MicOpt= -1 -1 -1 -1 -1 -1 -1 -1 -1 -1 -1 -1 -1 -1 -1 -1 -1 -1 -1 -1
 MicOpt= -1 -1 -1 -1 -1 -1 -1 -1 -1 -1 -1 -1 -1 -1 -1 -1 -1 -1 -1 -1
 MicOpt= -1 -1 -1 -1 -1 -1 -1 -1 -1 -1 -1 -1 -1 -1 -1 -1 -1 -1 -1 -1
 MicOpt= -1 -1 -1 -1 -1 -1 -1 -1 -1 -1 -1 -1 -1 -1 -1 -1 -1
 NAtoms=    117 NQM=      117 NQMF=       0 NMMI=      0 NMMIF=      0
                NMic=       0 NMicF=      0.
                    Isotopes and Nuclear Properties:
 (Nuclear quadrupole moments (NQMom) in fm**2, nuclear magnetic moments (NMagM)
  in nuclear magnetons)

  Atom         1           2           3           4           5           6           7           8           9          10
 IAtWgt=          12          12          12          12           1          12          12           1          12          12
 AtmWgt=  12.0000000  12.0000000  12.0000000  12.0000000   1.0078250  12.0000000  12.0000000   1.0078250  12.0000000  12.0000000
 NucSpn=           0           0           0           0           1           0           0           1           0           0
 AtZEff=  -0.0000000  -0.0000000  -0.0000000  -0.0000000  -0.0000000  -0.0000000  -0.0000000  -0.0000000  -0.0000000  -0.0000000
 NQMom=    0.0000000   0.0000000   0.0000000   0.0000000   0.0000000   0.0000000   0.0000000   0.0000000   0.0000000   0.0000000
 NMagM=    0.0000000   0.0000000   0.0000000   0.0000000   2.7928460   0.0000000   0.0000000   2.7928460   0.0000000   0.0000000
 AtZNuc=   6.0000000   6.0000000   6.0000000   6.0000000   1.0000000   6.0000000   6.0000000   1.0000000   6.0000000   6.0000000

  Atom        11          12          13          14          15          16          17          18          19          20
 IAtWgt=           1          12           1           1           1          12          12          12          12           1
 AtmWgt=   1.0078250  12.0000000   1.0078250   1.0078250   1.0078250  12.0000000  12.0000000  12.0000000  12.0000000   1.0078250
 NucSpn=           1           0           1           1           1           0           0           0           0           1
 AtZEff=  -0.0000000  -0.0000000  -0.0000000  -0.0000000  -0.0000000  -0.0000000  -0.0000000  -0.0000000  -0.0000000  -0.0000000
 NQMom=    0.0000000   0.0000000   0.0000000   0.0000000   0.0000000   0.0000000   0.0000000   0.0000000   0.0000000   0.0000000
 NMagM=    2.7928460   0.0000000   2.7928460   2.7928460   2.7928460   0.0000000   0.0000000   0.0000000   0.0000000   2.7928460
 AtZNuc=   1.0000000   6.0000000   1.0000000   1.0000000   1.0000000   6.0000000   6.0000000   6.0000000   6.0000000   1.0000000

  Atom        21          22          23          24          25          26          27          28          29          30
 IAtWgt=          12          12           1          12          12           1          12           1           1          12
 AtmWgt=  12.0000000  12.0000000   1.0078250  12.0000000  12.0000000   1.0078250  12.0000000   1.0078250   1.0078250  12.0000000
 NucSpn=           0           0           1           0           0           1           0           1           1           0
 AtZEff=  -0.0000000  -0.0000000  -0.0000000  -0.0000000  -0.0000000  -0.0000000  -0.0000000  -0.0000000  -0.0000000  -0.0000000
 NQMom=    0.0000000   0.0000000   0.0000000   0.0000000   0.0000000   0.0000000   0.0000000   0.0000000   0.0000000   0.0000000
 NMagM=    0.0000000   0.0000000   2.7928460   0.0000000   0.0000000   2.7928460   0.0000000   2.7928460   2.7928460   0.0000000
 AtZNuc=   6.0000000   6.0000000   1.0000000   6.0000000   6.0000000   1.0000000   6.0000000   1.0000000   1.0000000   6.0000000

  Atom        31          32          33          34          35          36          37          38          39          40
 IAtWgt=          12          12          12           1          12          12           1          12          12           1
 AtmWgt=  12.0000000  12.0000000  12.0000000   1.0078250  12.0000000  12.0000000   1.0078250  12.0000000  12.0000000   1.0078250
 NucSpn=           0           0           0           1           0           0           1           0           0           1
 AtZEff=  -0.0000000  -0.0000000  -0.0000000  -0.0000000  -0.0000000  -0.0000000  -0.0000000  -0.0000000  -0.0000000  -0.0000000
 NQMom=    0.0000000   0.0000000   0.0000000   0.0000000   0.0000000   0.0000000   0.0000000   0.0000000   0.0000000   0.0000000
 NMagM=    0.0000000   0.0000000   0.0000000   2.7928460   0.0000000   0.0000000   2.7928460   0.0000000   0.0000000   2.7928460
 AtZNuc=   6.0000000   6.0000000   6.0000000   1.0000000   6.0000000   6.0000000   1.0000000   6.0000000   6.0000000   1.0000000

  Atom        41          42          43          44          45          46          47          48          49          50
 IAtWgt=          12           1           1          12          12          14          14           1          12          12
 AtmWgt=  12.0000000   1.0078250   1.0078250  12.0000000  12.0000000  14.0030740  14.0030740   1.0078250  12.0000000  12.0000000
 NucSpn=           0           1           1           0           0           2           2           1           0           0
 AtZEff=  -0.0000000  -0.0000000  -0.0000000  -0.0000000  -0.0000000  -0.0000000  -0.0000000  -0.0000000  -0.0000000  -0.0000000
 NQMom=    0.0000000   0.0000000   0.0000000   0.0000000   0.0000000   2.0440000   2.0440000   0.0000000   0.0000000   0.0000000
 NMagM=    0.0000000   2.7928460   2.7928460   0.0000000   0.0000000   0.4037610   0.4037610   2.7928460   0.0000000   0.0000000
 AtZNuc=   6.0000000   1.0000000   1.0000000   6.0000000   6.0000000   7.0000000   7.0000000   1.0000000   6.0000000   6.0000000

  Atom        51          52          53          54          55          56          57          58          59          60
 IAtWgt=          14          14          12          12          14           1          14          12          12          12
 AtmWgt=  14.0030740  14.0030740  12.0000000  12.0000000  14.0030740   1.0078250  14.0030740  12.0000000  12.0000000  12.0000000
 NucSpn=           2           2           0           0           2           1           2           0           0           0
 AtZEff=  -0.0000000  -0.0000000  -0.0000000  -0.0000000  -0.0000000  -0.0000000  -0.0000000  -0.0000000  -0.0000000  -0.0000000
 NQMom=    2.0440000   2.0440000   0.0000000   0.0000000   2.0440000   0.0000000   2.0440000   0.0000000   0.0000000   0.0000000
 NMagM=    0.4037610   0.4037610   0.0000000   0.0000000   0.4037610   2.7928460   0.4037610   0.0000000   0.0000000   0.0000000
 AtZNuc=   7.0000000   7.0000000   6.0000000   6.0000000   7.0000000   1.0000000   7.0000000   6.0000000   6.0000000   6.0000000

  Atom        61          62          63          64          65          66          67          68          69          70
 IAtWgt=          14          12          14           1          12          12          14           1          14           1
 AtmWgt=  14.0030740  12.0000000  14.0030740   1.0078250  12.0000000  12.0000000  14.0030740   1.0078250  14.0030740   1.0078250
 NucSpn=           2           0           2           1           0           0           2           1           2           1
 AtZEff=  -0.0000000  -0.0000000  -0.0000000  -0.0000000  -0.0000000  -0.0000000  -0.0000000  -0.0000000  -0.0000000  -0.0000000
 NQMom=    2.0440000   0.0000000   2.0440000   0.0000000   0.0000000   0.0000000   2.0440000   0.0000000   2.0440000   0.0000000
 NMagM=    0.4037610   0.0000000   0.4037610   2.7928460   0.0000000   0.0000000   0.4037610   2.7928460   0.4037610   2.7928460
 AtZNuc=   7.0000000   6.0000000   7.0000000   1.0000000   6.0000000   6.0000000   7.0000000   1.0000000   7.0000000   1.0000000

  Atom        71          72          73          74          75          76          77          78          79          80
 IAtWgt=           1           1           1           1           1          12          12           1           1          12
 AtmWgt=   1.0078250   1.0078250   1.0078250   1.0078250   1.0078250  12.0000000  12.0000000   1.0078250   1.0078250  12.0000000
 NucSpn=           1           1           1           1           1           0           0           1           1           0
 AtZEff=  -0.0000000  -0.0000000  -0.0000000  -0.0000000  -0.0000000  -0.0000000  -0.0000000  -0.0000000  -0.0000000  -0.0000000
 NQMom=    0.0000000   0.0000000   0.0000000   0.0000000   0.0000000   0.0000000   0.0000000   0.0000000   0.0000000   0.0000000
 NMagM=    2.7928460   2.7928460   2.7928460   2.7928460   2.7928460   0.0000000   0.0000000   2.7928460   2.7928460   0.0000000
 AtZNuc=   1.0000000   1.0000000   1.0000000   1.0000000   1.0000000   6.0000000   6.0000000   1.0000000   1.0000000   6.0000000

  Atom        81          82          83          84          85          86          87          88          89          90
 IAtWgt=          12           1           1           1          12          12           1           1           1           1
 AtmWgt=  12.0000000   1.0078250   1.0078250   1.0078250  12.0000000  12.0000000   1.0078250   1.0078250   1.0078250   1.0078250
 NucSpn=           0           1           1           1           0           0           1           1           1           1
 AtZEff=  -0.0000000  -0.0000000  -0.0000000  -0.0000000  -0.0000000  -0.0000000  -0.0000000  -0.0000000  -0.0000000  -0.0000000
 NQMom=    0.0000000   0.0000000   0.0000000   0.0000000   0.0000000   0.0000000   0.0000000   0.0000000   0.0000000   0.0000000
 NMagM=    0.0000000   2.7928460   2.7928460   2.7928460   0.0000000   0.0000000   2.7928460   2.7928460   2.7928460   2.7928460
 AtZNuc=   6.0000000   1.0000000   1.0000000   1.0000000   6.0000000   6.0000000   1.0000000   1.0000000   1.0000000   1.0000000

  Atom        91          92          93          94          95          96          97          98          99         100
 IAtWgt=           1           1           1           1           1           1           1           1           1           1
 AtmWgt=   1.0078250   1.0078250   1.0078250   1.0078250   1.0078250   1.0078250   1.0078250   1.0078250   1.0078250   1.0078250
 NucSpn=           1           1           1           1           1           1           1           1           1           1
 AtZEff=  -0.0000000  -0.0000000  -0.0000000  -0.0000000  -0.0000000  -0.0000000  -0.0000000  -0.0000000  -0.0000000  -0.0000000
 NQMom=    0.0000000   0.0000000   0.0000000   0.0000000   0.0000000   0.0000000   0.0000000   0.0000000   0.0000000   0.0000000
 NMagM=    2.7928460   2.7928460   2.7928460   2.7928460   2.7928460   2.7928460   2.7928460   2.7928460   2.7928460   2.7928460
 AtZNuc=   1.0000000   1.0000000   1.0000000   1.0000000   1.0000000   1.0000000   1.0000000   1.0000000   1.0000000   1.0000000

  Atom       101         102         103         104         105         106         107         108         109         110
 IAtWgt=           1           1           1           1           1           1           1           1           1          12
 AtmWgt=   1.0078250   1.0078250   1.0078250   1.0078250   1.0078250   1.0078250   1.0078250   1.0078250   1.0078250  12.0000000
 NucSpn=           1           1           1           1           1           1           1           1           1           0
 AtZEff=  -0.0000000  -0.0000000  -0.0000000  -0.0000000  -0.0000000  -0.0000000  -0.0000000  -0.0000000  -0.0000000  -0.0000000
 NQMom=    0.0000000   0.0000000   0.0000000   0.0000000   0.0000000   0.0000000   0.0000000   0.0000000   0.0000000   0.0000000
 NMagM=    2.7928460   2.7928460   2.7928460   2.7928460   2.7928460   2.7928460   2.7928460   2.7928460   2.7928460   0.0000000
 AtZNuc=   1.0000000   1.0000000   1.0000000   1.0000000   1.0000000   1.0000000   1.0000000   1.0000000   1.0000000   6.0000000

  Atom       111         112         113         114         115         116         117
 IAtWgt=           1           1           1          12           1           1           1
 AtmWgt=   1.0078250   1.0078250   1.0078250  12.0000000   1.0078250   1.0078250   1.0078250
 NucSpn=           1           1           1           0           1           1           1
 AtZEff=  -0.0000000  -0.0000000  -0.0000000  -0.0000000  -0.0000000  -0.0000000  -0.0000000
 NQMom=    0.0000000   0.0000000   0.0000000   0.0000000   0.0000000   0.0000000   0.0000000
 NMagM=    2.7928460   2.7928460   2.7928460   0.0000000   2.7928460   2.7928460   2.7928460
 AtZNuc=   1.0000000   1.0000000   1.0000000   6.0000000   1.0000000   1.0000000   1.0000000
 Leave Link  101 at Tue Nov  2 18:51:32 2021, MaxMem=  7864320000 cpu:               3.3 elap:               0.1
 (Enter /apps/gaussian/g16-c01-avx/g16/l202.exe)
 Stoichiometry    C47H60N10
 Framework group  C1[X(C47H60N10)]
 Deg. of freedom   345
 Full point group                 C1      NOp   1
 Largest Abelian subgroup         C1      NOp   1
 Largest concise Abelian subgroup C1      NOp   1
                         Standard orientation:                         
 ---------------------------------------------------------------------
 Center     Atomic      Atomic             Coordinates (Angstroms)
 Number     Number       Type             X           Y           Z
 ---------------------------------------------------------------------
      1          6           0       -2.530528    2.457952   -0.535201
      2          6           0       -2.797442    3.357366    0.577289
      3          6           0       -3.255749    1.283195   -0.717855
      4          6           0       -2.922710    0.400773   -1.741886
      5          1           0       -4.080437    1.054732   -0.063154
      6          6           0       -1.829613    0.681240   -2.560025
      7          6           0       -1.100926    1.854913   -2.394886
      8          1           0       -1.555404   -0.018461   -3.337566
      9          6           0       -1.476456    2.748955   -1.395986
     10          6           0        0.081089    2.111986   -3.210617
     11          1           0       -0.906995    3.658632   -1.289898
     12          6           0       -3.680319   -0.822158   -1.961169
     13          1           0        0.441697    1.243130   -3.775095
     14          1           0       -2.270409    4.323092    0.537118
     15          1           0       -3.259448   -1.512653   -2.708252
     16          6           0        0.529899   -3.552440   -0.954428
     17          6           0        1.171023   -3.836214   -2.299134
     18          6           0        1.315164   -3.430603    0.179955
     19          6           0        0.738495   -3.121113    1.411340
     20          1           0        2.383635   -3.556074    0.117999
     21          6           0       -0.638478   -2.939462    1.491775
     22          6           0       -1.440949   -3.111373    0.368467
     23          1           0       -1.091946   -2.686337    2.440918
     24          6           0       -0.846210   -3.418229   -0.854126
     25          6           0       -2.887190   -2.960002    0.483813
     26          1           0       -1.469250   -3.531190   -1.726203
     27          6           0        1.564333   -2.965907    2.597443
     28          1           0       -3.222039   -2.436397    1.388039
     29          1           0        1.046729   -2.587242    3.493890
     30          6           0        0.613619    2.115977    2.388900
     31          6           0       -0.596176    2.231322    3.197408
     32          6           0        0.824927    2.979178    1.315549
     33          6           0        1.898985    2.794924    0.452486
     34          1           0        0.113329    3.773713    1.156574
     35          6           0        2.795810    1.754831    0.692914
     36          6           0        2.633334    0.923561    1.795099
     37          1           0        3.623139    1.620141    0.013315
     38          6           0        1.530468    1.099461    2.629790
     39          6           0        3.596863   -0.141960    2.053916
     40          1           0        1.409161    0.425052    3.463790
     41          6           0        2.029709    3.657326   -0.711106
     42          1           0        4.253063   -0.380289    1.209650
     43          1           0        1.369259    4.537393   -0.718167
     44          6           0       -2.615332    3.375293    3.770776
     45          6           0       -3.578723    3.921139    2.675771
     46          7           0       -1.349902    3.235246    3.100758
     47          7           0       -3.534551    3.042173    1.551639
     48          1           0       -3.259019    4.942417    2.416955
     49          6           0        2.468653   -1.948244   -2.839884
     50          6           0        0.978214   -1.791833   -3.277235
     51          7           0        2.538575   -3.322005   -2.324969
     52          7           0        0.428190   -3.135467   -3.344791
     53          6           0       -5.402034   -2.321757   -1.564268
     54          6           0       -5.090275   -3.269013   -0.370731
     55          7           0       -4.755860   -1.069177   -1.349710
     56          1           0       -6.480040   -2.150035   -1.602577
     57          7           0       -3.662078   -3.426730   -0.392369
     58          6           0       -5.687592   -4.649711   -0.663180
     59          6           0        1.859881    3.551903   -3.902596
     60          6           0        2.744645    4.246530   -2.825398
     61          7           0        0.634437    3.242741   -3.217675
     62          6           0        2.623864    2.364628   -4.496041
     63          7           0        2.814171    3.409001   -1.669251
     64          1           0        2.298383    5.226491   -2.598039
     65          6           0        3.566532   -2.996657    3.774862
     66          6           0        4.520882   -1.802818    3.494299
     67          7           0        2.792688   -3.252266    2.605741
     68          1           0        2.942231   -2.749331    4.648666
     69          7           0        3.645485   -0.707297    3.178023
     70          1           0       -0.792350    1.369183    3.846684
     71          1           0        0.638695   -3.551154   -4.248684
     72          1           0        1.155401   -4.918528   -2.471867
     73          1           0        3.134752   -3.896062   -2.909574
     74          1           0       -4.596702    3.938996    3.069485
     75          1           0       -5.066002   -2.814854   -2.489464
     76          6           0       -5.699818   -2.687917    0.908794
     77          6           0        1.523656    4.566149   -5.001977
     78          1           0        3.752747    4.381208   -3.222326
     79          1           0        4.168741   -3.882501    3.990561
     80          6           0        5.530308   -2.206086    2.415901
     81          6           0        5.247581   -1.427193    4.790212
     82          1           0        6.158641   -1.359938    2.143333
     83          1           0        5.010313   -2.576208    1.536050
     84          1           0        6.167512   -2.998467    2.799328
     85          6           0       -2.444015    4.439389    4.861036
     86          6           0       -3.202902    2.093414    4.368033
     87          1           0       -1.974312    5.327357    4.445983
     88          1           0       -1.809436    4.054316    5.656433
     89          1           0       -3.410673    4.709171    5.278530
     90          1           0        0.919762    5.371774   -4.592981
     91          1           0        0.957113    4.079091   -5.792762
     92          1           0        2.435295    4.981406   -5.423834
     93          1           0       -6.783472   -2.704162    0.828943
     94          1           0       -5.380788   -1.657961    1.046240
     95          1           0       -5.408027   -3.281251    1.773696
     96          1           0       -4.181123    2.306462    4.790591
     97          1           0       -2.567565    1.705058    5.161691
     98          1           0       -3.314832    1.342893    3.589125
     99          1           0        2.895562    1.669219   -3.705363
    100          1           0        3.532867    2.721915   -4.973019
    101          1           0        2.024559    1.851203   -5.245970
    102          1           0        5.955759   -0.625050    4.595150
    103          1           0        5.785052   -2.284624    5.187147
    104          1           0        4.531021   -1.080287    5.529784
    105          1           0       -6.755413   -4.571855   -0.851257
    106          1           0       -5.525460   -5.307126    0.187918
    107          1           0       -5.201138   -5.085846   -1.531277
    108          1           0        0.876016   -1.277876   -4.232410
    109          1           0        0.428860   -1.242657   -2.507776
    110          6           0        2.820307   -0.963585   -1.723793
    111          1           0        2.664037    0.061674   -2.052037
    112          1           0        3.862073   -1.089333   -1.439334
    113          1           0        2.198562   -1.147567   -0.851606
    114          6           0        3.416370   -1.761432   -4.025484
    115          1           0        3.144946   -2.423691   -4.848044
    116          1           0        4.439023   -1.983016   -3.726045
    117          1           0        3.379225   -0.735419   -4.383700
 ---------------------------------------------------------------------
 Rotational constants (GHZ):           0.0442393           0.0415164           0.0388546
 Leave Link  202 at Tue Nov  2 18:51:33 2021, MaxMem=  7864320000 cpu:               0.3 elap:               0.0
 (Enter /apps/gaussian/g16-c01-avx/g16/l301.exe)
 Standard basis: Aug-CC-pVDZ (5D, 7F)
 Ernie: Thresh=  0.10000D-02 Tol=  0.10000D-05 Strict=F.
 Ernie:  114 primitive shells out of 1845 were deleted.
 There are  1965 symmetry adapted cartesian basis functions of A   symmetry.
 There are  1851 symmetry adapted basis functions of A   symmetry.
  1851 basis functions,  3111 primitive gaussians,  1965 cartesian basis functions
   206 alpha electrons      206 beta electrons
       nuclear repulsion energy      8493.5020635774 Hartrees.
 IExCor=    0 DFT=F Ex=HF Corr=None ExCW=0 ScaHFX=  1.000000
 ScaDFX=  1.000000  1.000000  1.000000  1.000000 ScalE2=  1.000000  1.000000
 IRadAn=      7 IRanWt=     -1 IRanGd=            0 ICorTp=0 IEmpDi=  4
 NAtoms=  117 NActive=  117 NUniq=  117 SFac= 1.00D+00 NAtFMM=   60 NAOKFM=T Big=T
 Integral buffers will be    131072 words long.
 Raffenetti 1 integral format.
 Two-electron integral symmetry is turned on.
 Leave Link  301 at Tue Nov  2 18:51:33 2021, MaxMem=  7864320000 cpu:               2.4 elap:               0.1
 (Enter /apps/gaussian/g16-c01-avx/g16/l302.exe)
 NPDir=0 NMtPBC=     1 NCelOv=     1 NCel=       1 NClECP=     1 NCelD=      1
         NCelK=      1 NCelE2=     1 NClLst=     1 CellRange=     0.0.
 One-electron integrals computed using PRISM.
 One-electron integral symmetry used in STVInt
 NBasis=  1851 RedAO= T EigKep=  1.01D-06  NBF=  1851
 NBsUse=  1831 1.00D-06 EigRej=  9.66D-07 NBFU=  1831
 Leave Link  302 at Tue Nov  2 18:51:47 2021, MaxMem=  7864320000 cpu:             412.2 elap:              13.0
 (Enter /apps/gaussian/g16-c01-avx/g16/l303.exe)
 DipDrv:  MaxL=1.
 Leave Link  303 at Tue Nov  2 18:51:48 2021, MaxMem=  7864320000 cpu:              19.1 elap:               0.8
 (Enter /apps/gaussian/g16-c01-avx/g16/l401.exe)
 ExpMin= 2.97D-02 ExpMax= 9.05D+03 ExpMxC= 3.09D+02 IAcc=3 IRadAn=         7 AccDes= 0.00D+00
 Harris functional with IExCor=  205 and IRadAn=       7 diagonalized for initial guess.
 HarFok:  IExCor=  205 AccDes= 0.00D+00 IRadAn=         7 IDoV= 1 UseB2=F ITyADJ=14
 ICtDFT=  3500011 ScaDFX=  1.000000  1.000000  1.000000  1.000000
 FoFCou: FMM=F IPFlag=           0 FMFlag=      100000 FMFlg1=        2001
         NFxFlg=           0 DoJE=T BraDBF=F KetDBF=T FulRan=T
         wScrn=  0.000000 ICntrl=       500 IOpCl=  0 I1Cent=   200000004 NGrid=           0
         NMat0=    1 NMatS0=      1 NMatT0=    0 NMatD0=    1 NMtDS0=    0 NMtDT0=    0
 Petite list used in FoFCou.
 Harris En= -2362.92458725024    
 JPrj=0 DoOrth=F DoCkMO=F.
 Leave Link  401 at Tue Nov  2 18:52:26 2021, MaxMem=  7864320000 cpu:            1186.8 elap:              37.3
 (Enter /apps/gaussian/g16-c01-avx/g16/l508.exe)
 Integral symmetry usage will be decided dynamically.
 Tight linear equation convergence will be used.
 RHF wavefunction.
 Linear searches until partial convergence.
 Full line searches.
 Fock matrices will be formed incrementally for  20 cycles.
 FoFJK:  IHMeth= 1 ICntrl=       0 DoSepK=F KAlg= 0 I1Cent=           0 FoldK=F
 IRaf= 990000000 NMat=       1 IRICut=       1 DoRegI=T DoRafI=F ISym2E= 1 IDoP0=0 IntGTp=1.
 FoFCou: FMM=T IPFlag=           0 FMFlag=      100000 FMFlg1=        2001
         NFxFlg=           0 DoJE=F BraDBF=F KetDBF=F FulRan=T
         wScrn=  0.000000 ICntrl=         0 IOpCl=  0 I1Cent=           0 NGrid=           0
         NMat0=    1 NMatS0=      1 NMatT0=    0 NMatD0=    1 NMtDS0=    0 NMtDT0=    0
 Petite list used in FoFCou.
 FMM levels:  10  Number of levels for PrismC:   9
 Iteration   1 EE= -2357.19026027158                                    Grad=2.347D+00 Max rot=    1.7147 deg.
 Gradient too large for Newton-Raphson -- use scaled steepest descent instead.
 Alpha Gap=     0.444 HL deriv= 6.13D-03
     ILin= 1 X=0.000D+00 Y=-2.357190260272D+03 DE= 0.00D+00 F= -6.68D+00
 RMSU=  8.90D-03    CP:  7.88D-01
     ILin= 2 X=3.000D-01 Y=-2.358706300567D+03 DE=-1.52D+00 F= -3.42D+00 OKLS=F
 RMSU=  3.73D-03    CP:  6.34D-01  1.83D+00
     ILin= 3 X=6.000D-01 Y=-2.359238191961D+03 DE=-2.05D+00 F= -1.30D-01
 RMSU=  3.27D-03    CP:  5.21D-01  2.68D+00  3.00D+00
     ILin= 4 X=1.000D+00 Y=-2.358421375828D+03 DE=-1.23D+00 F=  4.19D+00
     An  expanding polynomial of degree  4 produced  0.6125
     Minimum is close to point  3 DX=  1.25D-02 DF= -8.47D-04 DXR=  2.03D-02 DFR=  4.13D-04 which will be used.
 Iteration   2 EE= -2359.23819196107     Delta-E=       -2.047931689485 Grad=7.748D-01 Max rot=    0.8245 deg.
 Gradient too large for Newton-Raphson -- use scaled steepest descent instead.
 Alpha Gap=     0.470 HL deriv= 5.21D-03
     ILin= 1 X=0.000D+00 Y=-2.359238191961D+03 DE= 0.00D+00 F= -3.15D-01
 RMSU=  2.01D-03    CP:  5.77D-01  2.02D+00  1.61D+00  3.14D-03
     ILin= 2 X=4.000D-01 Y=-2.359335870393D+03 DE=-9.77D-02 F= -1.73D-01 OKLS=F
 RMSU=  5.41D-04    CP:  5.23D-01  2.22D+00  2.56D+00  6.67D-03  2.16D+00
     ILin= 3 X=9.000D-01 Y=-2.359377947938D+03 DE=-1.40D-01 F=  4.59D-03
     Accept linear search using points  2 and  3.
     An  expanding polynomial of degree  3 produced  0.7701
 RMSU=  8.36D-08    CP:  5.35D-01  2.17D+00  2.29D+00  5.80D-03  1.87D+00
                    CP:  6.33D-01
 Iteration   3 EE= -2359.37555145874     Delta-E=       -0.137359497669 Grad=2.288D-01 Max rot=    0.2924 deg.
 Gradient too large for Newton-Raphson -- use scaled steepest descent instead.
 Alpha Gap=     0.454 HL deriv= 1.38D-03
     ILin= 1 X=0.000D+00 Y=-2.359375551459D+03 DE= 0.00D+00 F= -3.99D-02
 RMSU=  1.01D-03    CP:  5.11D-01  2.20D+00  2.62D+00  6.31D-03  2.14D+00
                    CP:  1.38D+00 -3.00D+00
     ILin= 2 X=7.000D-01 Y=-2.359391696004D+03 DE=-1.61D-02 F= -6.25D-03 OKLS=T
     Reject lnstep IMin12=  1  2 Big=T Turn=F Min= 1.303D+00 FVal=-2.359395943143D+03 Lims=  0.00D+00  7.00D-01
 RMSU=  1.03D-04    CP:  4.90D-01  2.21D+00  2.98D+00  6.89D-03  2.39D+00
                    CP:  2.24D+00 -3.00D+00  1.98D+00
     ILin= 3 X=1.400D+00 Y=-2.359384298075D+03 DE=-8.75D-03 F=  2.74D-02
     An  expanding polynomial of degree  3 produced  0.8300
 RMSU=  2.18D-08    CP:  5.07D-01  2.20D+00  2.69D+00  6.41D-03  2.19D+00
                    CP:  1.53D+00 -3.00D+00  1.18D+00  1.10D-01
 Iteration   4 EE= -2359.39210227182     Delta-E=       -0.016550813085 Grad=8.019D-02 Max rot=    0.2071 deg.
 Gradient too large for Newton-Raphson -- use scaled steepest descent instead.
 Alpha Gap=     0.468 HL deriv= 1.29D-03
     ILin= 1 X=0.000D+00 Y=-2.359392102272D+03 DE= 0.00D+00 F= -8.80D-03
 RMSU=  3.73D-04    CP:  4.97D-01  2.18D+00  2.71D+00  7.22D-03  2.38D+00
                    CP:  1.93D+00 -3.00D+00  1.37D+00  7.92D-01  3.00D+00
     ILin= 2 X=8.000D-01 Y=-2.359394834094D+03 DE=-2.73D-03 F=  1.96D-03 OKLS=T
     Accept linear search using points  1 and  2.
     An  expanding polynomial of degree  2 produced  0.5984
 RMSU=  1.80D-06    CP:  4.99D-01  2.18D+00  2.70D+00  7.02D-03  2.33D+00
                    CP:  1.83D+00 -3.00D+00  1.33D+00  6.16D-01  3.00D+00
                    CP:  7.49D-01
 Iteration   5 EE= -2359.39495622265     Delta-E=       -0.002853950828 Grad=3.255D-02 Max rot=    0.0971 deg.
 Gradient too large for Newton-Raphson -- use scaled steepest descent instead.
 Alpha Gap=     0.463 HL deriv= 4.69D-04
     ILin= 1 X=0.000D+00 Y=-2.359394956223D+03 DE= 0.00D+00 F= -1.39D-03
 RMSU=  8.04D-05    CP:  4.96D-01  2.17D+00  2.71D+00  7.24D-03  2.39D+00
                    CP:  2.02D+00 -3.00D+00  1.55D+00  8.38D-01  3.00D+00
                    CP:  9.78D-01 -1.74D+00
     ILin= 2 X=7.000D-01 Y=-2.359395598944D+03 DE=-6.43D-04 F= -4.42D-04 OKLS=F
 RMSU=  5.25D-06    CP:  4.92D-01  2.16D+00  2.73D+00  7.47D-03  2.44D+00
                    CP:  2.22D+00 -3.00D+00  1.78D+00  1.09D+00  3.00D+00
                    CP:  1.20D+00 -3.00D+00  2.00D+00
     ILin= 3 X=1.400D+00 Y=-2.359395575350D+03 DE=-6.19D-04 F=  5.10D-04
     An  expanding polynomial of degree  3 produced  1.0252
 RMSU=  3.89D-07    CP:  4.94D-01  2.16D+00  2.72D+00  7.35D-03  2.41D+00
                    CP:  2.11D+00 -3.00D+00  1.66D+00  9.51D-01  3.00D+00
                    CP:  1.08D+00 -3.00D+00  1.46D+00  1.90D-01
 Iteration   6 EE= -2359.39567087963     Delta-E=       -0.000714656984 Grad=1.622D-02 Max rot=    0.0748 deg.
 Gradient too large for Newton-Raphson -- use scaled steepest descent instead.
 Alpha Gap=     0.466 HL deriv= 2.11D-04
     ILin= 1 X=0.000D+00 Y=-2.359395670880D+03 DE= 0.00D+00 F= -5.43D-04
 RMSU=  4.64D-05    CP:  4.93D-01  2.16D+00  2.71D+00  7.43D-03  2.43D+00
                    CP:  2.16D+00 -3.00D+00  1.69D+00  1.08D+00  3.00D+00
                    CP:  1.32D+00 -1.58D+00  1.47D+00 -3.51D-01 -3.00D+00
     ILin= 2 X=8.000D-01 Y=-2.359395797924D+03 DE=-1.27D-04 F=  2.25D-04 OKLS=T
     Accept linear search using points  1 and  2.
     An  expanding polynomial of degree  2 produced  0.5210
 RMSU=  6.44D-07    CP:  4.93D-01  2.16D+00  2.71D+00  7.40D-03  2.42D+00
                    CP:  2.14D+00 -3.00D+00  1.68D+00  1.03D+00  3.00D+00
                    CP:  1.24D+00 -2.18D+00  1.47D+00 -2.06D-01 -3.00D+00
                    CP:  6.51D-01
 Iteration   7 EE= -2359.39582332510     Delta-E=       -0.000152445471 Grad=5.662D-03 Max rot=    0.0291 deg.
 SCF Done:  E(RHF) =  -2359.39582333     a.u. after    7 cycles
            Convg  =    0.5662D-02                    17 Fock formations.
              S**2 =  0.0000                  -V/T =  2.0002
 Leave Link  508 at Tue Nov  2 20:56:38 2021, MaxMem=  7864320000 cpu:          236841.2 elap:            7451.9
 (Enter /apps/gaussian/g16-c01-avx/g16/l502.exe)
 Integral symmetry usage will be decided dynamically.
 Closed shell SCF:
 Using DIIS extrapolation, IDIIS=  1040.
 NGot=  7864320000 LenX=  7856513732 LenY=  7852650542
 Requested convergence on RMS density matrix=1.00D-08 within 128 cycles.
 Requested convergence on MAX density matrix=1.00D-06.
 Requested convergence on             energy=1.00D-06.
 No special actions if energy rises.
 Fock matrices will be formed incrementally for  20 cycles.

 Cycle   1  Pass 1  IDiag  1:
 FoFJK:  IHMeth= 1 ICntrl=       0 DoSepK=F KAlg= 0 I1Cent=           0 FoldK=F
 IRaf= 990000000 NMat=       1 IRICut=       1 DoRegI=T DoRafI=F ISym2E= 0 IDoP0=0 IntGTp=1.
 FoFCou: FMM=T IPFlag=           0 FMFlag=      100000 FMFlg1=        2001
         NFxFlg=           0 DoJE=F BraDBF=F KetDBF=F FulRan=T
         wScrn=  0.000000 ICntrl=         0 IOpCl=  0 I1Cent=           0 NGrid=           0
         NMat0=    1 NMatS0=      1 NMatT0=    0 NMatD0=    1 NMtDS0=    0 NMtDT0=    0
 Symmetry not used in FoFCou.
 FMM levels:  10  Number of levels for PrismC:   9
 E= -2359.39582330000    
 DIIS: error= 4.82D-05 at cycle   1 NSaved=   1.
 NSaved= 1 IEnMin= 1 EnMin= -2359.39582330000     IErMin= 1 ErrMin= 4.82D-05
 ErrMax= 4.82D-05  0.00D+00 EMaxC= 1.00D-01 BMatC= 1.60D-05 BMatP= 1.60D-05
 IDIUse=1 WtCom= 1.00D+00 WtEn= 0.00D+00
 Coeff-Com:  0.100D+01
 Coeff:      0.100D+01
 Gap=     0.465 Goal=   None    Shift=    0.000
 RMSDP=1.26D-04 MaxDP=1.84D-02              OVMax= 2.15D-03

 Cycle   2  Pass 1  IDiag  1:
 RMSU=  1.09D-04    CP:  9.99D-01
 E= -2359.39587404753     Delta-E=       -0.000050747527 Rises=F Damp=F
 DIIS: error= 1.72D-05 at cycle   2 NSaved=   2.
 NSaved= 2 IEnMin= 2 EnMin= -2359.39587404753     IErMin= 2 ErrMin= 1.72D-05
 ErrMax= 1.72D-05  0.00D+00 EMaxC= 1.00D-01 BMatC= 3.72D-06 BMatP= 1.60D-05
 IDIUse=1 WtCom= 1.00D+00 WtEn= 0.00D+00
 Coeff-Com: -0.196D-01 0.102D+01
 Coeff:     -0.196D-01 0.102D+01
 Gap=     0.332 Goal=   None    Shift=    0.000
 RMSDP=3.12D-05 MaxDP=4.80D-03 DE=-5.07D-05 OVMax= 9.66D-04

 Cycle   3  Pass 1  IDiag  1:
 RMSU=  1.65D-05    CP:  9.98D-01  1.20D+00
 E= -2359.39588499473     Delta-E=       -0.000010947198 Rises=F Damp=F
 DIIS: error= 1.33D-05 at cycle   3 NSaved=   3.
 NSaved= 3 IEnMin= 3 EnMin= -2359.39588499473     IErMin= 3 ErrMin= 1.33D-05
 ErrMax= 1.33D-05  0.00D+00 EMaxC= 1.00D-01 BMatC= 1.92D-06 BMatP= 3.72D-06
 IDIUse=1 WtCom= 1.00D+00 WtEn= 0.00D+00
 Coeff-Com: -0.281D+00 0.420D+00 0.861D+00
 Coeff:     -0.281D+00 0.420D+00 0.861D+00
 Gap=     0.332 Goal=   None    Shift=    0.000
 RMSDP=1.65D-05 MaxDP=1.90D-03 DE=-1.09D-05 OVMax= 8.52D-04

 Cycle   4  Pass 1  IDiag  1:
 RMSU=  1.02D-05    CP:  9.98D-01  1.30D+00  1.34D+00
 E= -2359.39588985524     Delta-E=       -0.000004860507 Rises=F Damp=F
 DIIS: error= 5.90D-06 at cycle   4 NSaved=   4.
 NSaved= 4 IEnMin= 4 EnMin= -2359.39588985524     IErMin= 4 ErrMin= 5.90D-06
 ErrMax= 5.90D-06  0.00D+00 EMaxC= 1.00D-01 BMatC= 1.91D-07 BMatP= 1.92D-06
 IDIUse=1 WtCom= 1.00D+00 WtEn= 0.00D+00
 Coeff-Com:  0.169D+00-0.359D+00-0.523D+00 0.171D+01
 Coeff:      0.169D+00-0.359D+00-0.523D+00 0.171D+01
 Gap=     0.332 Goal=   None    Shift=    0.000
 RMSDP=1.03D-05 MaxDP=9.46D-04 DE=-4.86D-06 OVMax= 5.56D-04

 Cycle   5  Pass 1  IDiag  1:
 RMSU=  5.71D-06    CP:  9.98D-01  1.29D+00  1.65D+00  1.60D+00
 E= -2359.39589122579     Delta-E=       -0.000001370554 Rises=F Damp=F
 DIIS: error= 2.16D-06 at cycle   5 NSaved=   5.
 NSaved= 5 IEnMin= 5 EnMin= -2359.39589122579     IErMin= 5 ErrMin= 2.16D-06
 ErrMax= 2.16D-06  0.00D+00 EMaxC= 1.00D-01 BMatC= 4.00D-08 BMatP= 1.91D-07
 IDIUse=1 WtCom= 1.00D+00 WtEn= 0.00D+00
 Coeff-Com:  0.654D-01-0.104D+00-0.223D+00 0.215D+00 0.105D+01
 Coeff:      0.654D-01-0.104D+00-0.223D+00 0.215D+00 0.105D+01
 Gap=     0.332 Goal=   None    Shift=    0.000
 RMSDP=3.76D-06 MaxDP=4.59D-04 DE=-1.37D-06 OVMax= 2.16D-04

 Cycle   6  Pass 1  IDiag  1:
 RMSU=  1.75D-06    CP:  9.98D-01  1.29D+00  1.72D+00  1.81D+00  1.38D+00
 E= -2359.39589142345     Delta-E=       -0.000000197659 Rises=F Damp=F
 DIIS: error= 1.14D-06 at cycle   6 NSaved=   6.
 NSaved= 6 IEnMin= 6 EnMin= -2359.39589142345     IErMin= 6 ErrMin= 1.14D-06
 ErrMax= 1.14D-06  0.00D+00 EMaxC= 1.00D-01 BMatC= 7.63D-09 BMatP= 4.00D-08
 IDIUse=1 WtCom= 1.00D+00 WtEn= 0.00D+00
 Coeff-Com: -0.366D-01 0.899D-01 0.999D-01-0.470D+00 0.191D+00 0.113D+01
 Coeff:     -0.366D-01 0.899D-01 0.999D-01-0.470D+00 0.191D+00 0.113D+01
 Gap=     0.332 Goal=   None    Shift=    0.000
 RMSDP=2.08D-06 MaxDP=1.97D-04 DE=-1.98D-07 OVMax= 1.12D-04

 Cycle   7  Pass 1  IDiag  1:
 RMSU=  8.47D-07    CP:  9.98D-01  1.30D+00  1.75D+00  1.89D+00  1.62D+00
                    CP:  1.34D+00
 E= -2359.39589146195     Delta-E=       -0.000000038504 Rises=F Damp=F
 DIIS: error= 2.02D-07 at cycle   7 NSaved=   7.
 NSaved= 7 IEnMin= 7 EnMin= -2359.39589146195     IErMin= 7 ErrMin= 2.02D-07
 ErrMax= 2.02D-07  0.00D+00 EMaxC= 1.00D-01 BMatC= 5.84D-10 BMatP= 7.63D-09
 IDIUse=1 WtCom= 1.00D+00 WtEn= 0.00D+00
 Coeff-Com: -0.116D-01 0.258D-01 0.331D-01-0.962D-01-0.431D-01 0.235D+00
 Coeff-Com:  0.857D+00
 Coeff:     -0.116D-01 0.258D-01 0.331D-01-0.962D-01-0.431D-01 0.235D+00
 Coeff:      0.857D+00
 Gap=     0.332 Goal=   None    Shift=    0.000
 RMSDP=2.94D-07 MaxDP=2.47D-05 DE=-3.85D-08 OVMax= 1.13D-05

 Cycle   8  Pass 1  IDiag  1:
 RMSU=  2.14D-07    CP:  9.98D-01  1.30D+00  1.75D+00  1.89D+00  1.61D+00
                    CP:  1.39D+00  1.15D+00
 E= -2359.39589146278     Delta-E=       -0.000000000826 Rises=F Damp=F
 DIIS: error= 1.18D-07 at cycle   8 NSaved=   8.
 NSaved= 8 IEnMin= 8 EnMin= -2359.39589146278     IErMin= 8 ErrMin= 1.18D-07
 ErrMax= 1.18D-07  0.00D+00 EMaxC= 1.00D-01 BMatC= 1.22D-10 BMatP= 5.84D-10
 IDIUse=1 WtCom= 1.00D+00 WtEn= 0.00D+00
 Coeff-Com:  0.450D-02-0.111D-01-0.142D-01 0.669D-01-0.467D-01-0.158D+00
 Coeff-Com:  0.150D+00 0.101D+01
 Coeff:      0.450D-02-0.111D-01-0.142D-01 0.669D-01-0.467D-01-0.158D+00
 Coeff:      0.150D+00 0.101D+01
 Gap=     0.332 Goal=   None    Shift=    0.000
 RMSDP=1.95D-07 MaxDP=1.41D-05 DE=-8.26D-10 OVMax= 7.70D-06

 Cycle   9  Pass 1  IDiag  1:
 RMSU=  9.43D-08    CP:  9.98D-01  1.30D+00  1.76D+00  1.90D+00  1.60D+00
                    CP:  1.43D+00  1.26D+00  1.22D+00
 E= -2359.39589146297     Delta-E=       -0.000000000186 Rises=F Damp=F
 DIIS: error= 3.16D-08 at cycle   9 NSaved=   9.
 NSaved= 9 IEnMin= 9 EnMin= -2359.39589146297     IErMin= 9 ErrMin= 3.16D-08
 ErrMax= 3.16D-08  0.00D+00 EMaxC= 1.00D-01 BMatC= 1.68D-11 BMatP= 1.22D-10
 IDIUse=1 WtCom= 1.00D+00 WtEn= 0.00D+00
 Coeff-Com:  0.200D-02-0.435D-02-0.676D-02 0.214D-01-0.545D-02-0.476D-01
 Coeff-Com: -0.630D-01 0.127D+00 0.977D+00
 Coeff:      0.200D-02-0.435D-02-0.676D-02 0.214D-01-0.545D-02-0.476D-01
 Coeff:     -0.630D-01 0.127D+00 0.977D+00
 Gap=     0.332 Goal=   None    Shift=    0.000
 RMSDP=6.11D-08 MaxDP=5.67D-06 DE=-1.86D-10 OVMax= 3.15D-06

 Cycle  10  Pass 1  IDiag  1:
 RMSU=  3.63D-08    CP:  9.98D-01  1.30D+00  1.76D+00  1.90D+00  1.61D+00
                    CP:  1.44D+00  1.27D+00  1.31D+00  1.21D+00
 E= -2359.39589146305     Delta-E=       -0.000000000084 Rises=F Damp=F
 DIIS: error= 2.57D-08 at cycle  10 NSaved=  10.
 NSaved=10 IEnMin=10 EnMin= -2359.39589146305     IErMin=10 ErrMin= 2.57D-08
 ErrMax= 2.57D-08  0.00D+00 EMaxC= 1.00D-01 BMatC= 4.43D-12 BMatP= 1.68D-11
 IDIUse=1 WtCom= 1.00D+00 WtEn= 0.00D+00
 Coeff-Com: -0.921D-03 0.249D-02 0.258D-02-0.137D-01 0.104D-01 0.375D-01
 Coeff-Com: -0.425D-01-0.258D+00 0.977D-01 0.116D+01
 Coeff:     -0.921D-03 0.249D-02 0.258D-02-0.137D-01 0.104D-01 0.375D-01
 Coeff:     -0.425D-01-0.258D+00 0.977D-01 0.116D+01
 Gap=     0.332 Goal=   None    Shift=    0.000
 RMSDP=3.27D-08 MaxDP=2.98D-06 DE=-8.37D-11 OVMax= 1.96D-06

 Cycle  11  Pass 1  IDiag  1:
 RMSU=  2.10D-08    CP:  9.98D-01  1.30D+00  1.76D+00  1.90D+00  1.61D+00
                    CP:  1.44D+00  1.27D+00  1.34D+00  1.41D+00  1.32D+00
 E= -2359.39589146341     Delta-E=       -0.000000000360 Rises=F Damp=F
 DIIS: error= 8.10D-09 at cycle  11 NSaved=  11.
 NSaved=11 IEnMin=11 EnMin= -2359.39589146341     IErMin=11 ErrMin= 8.10D-09
 ErrMax= 8.10D-09  0.00D+00 EMaxC= 1.00D-01 BMatC= 5.93D-13 BMatP= 4.43D-12
 IDIUse=1 WtCom= 1.00D+00 WtEn= 0.00D+00
 Coeff-Com: -0.447D-03 0.105D-02 0.145D-02-0.514D-02 0.175D-02 0.132D-01
 Coeff-Com:  0.744D-02-0.476D-01-0.163D+00 0.152D+00 0.104D+01
 Coeff:     -0.447D-03 0.105D-02 0.145D-02-0.514D-02 0.175D-02 0.132D-01
 Coeff:      0.744D-02-0.476D-01-0.163D+00 0.152D+00 0.104D+01
 Gap=     0.332 Goal=   None    Shift=    0.000
 RMSDP=1.82D-08 MaxDP=1.05D-06 DE=-3.60D-10 OVMax= 8.30D-07

 Cycle  12  Pass 1  IDiag  1:
 RMSU=  1.24D-08    CP:  9.98D-01  1.30D+00  1.76D+00  1.90D+00  1.61D+00
                    CP:  1.44D+00  1.28D+00  1.35D+00  1.43D+00  1.52D+00
                    CP:  1.44D+00
 E= -2359.39589146342     Delta-E=       -0.000000000011 Rises=F Damp=F
 DIIS: error= 3.99D-09 at cycle  12 NSaved=  12.
 NSaved=12 IEnMin=12 EnMin= -2359.39589146342     IErMin=12 ErrMin= 3.99D-09
 ErrMax= 3.99D-09  0.00D+00 EMaxC= 1.00D-01 BMatC= 1.25D-13 BMatP= 5.93D-13
 IDIUse=1 WtCom= 1.00D+00 WtEn= 0.00D+00
 Coeff-Com:  0.103D-03-0.321D-03-0.225D-03 0.168D-02-0.186D-02-0.482D-02
 Coeff-Com:  0.932D-02 0.416D-01-0.581D-01-0.189D+00 0.175D+00 0.103D+01
 Coeff:      0.103D-03-0.321D-03-0.225D-03 0.168D-02-0.186D-02-0.482D-02
 Coeff:      0.932D-02 0.416D-01-0.581D-01-0.189D+00 0.175D+00 0.103D+01
 Gap=     0.332 Goal=   None    Shift=    0.000
 RMSDP=2.17D-08 MaxDP=1.51D-06 DE=-1.09D-11 OVMax= 3.65D-07

 Cycle  13  Pass 1  IDiag  1:
 RMSU=  1.27D-08    CP:  9.98D-01  1.30D+00  1.76D+00  1.90D+00  1.61D+00
                    CP:  1.44D+00  1.28D+00  1.35D+00  1.45D+00  1.61D+00
                    CP:  1.90D+00  2.06D+00
 E= -2359.39589146351     Delta-E=       -0.000000000091 Rises=F Damp=F
 DIIS: error= 1.50D-09 at cycle  13 NSaved=  13.
 NSaved=13 IEnMin=13 EnMin= -2359.39589146351     IErMin=13 ErrMin= 1.50D-09
 ErrMax= 1.50D-09  0.00D+00 EMaxC= 1.00D-01 BMatC= 1.80D-14 BMatP= 1.25D-13
 IDIUse=1 WtCom= 1.00D+00 WtEn= 0.00D+00
 Coeff-Com:  0.658D-04-0.169D-03-0.185D-03 0.825D-03-0.436D-03-0.197D-02
 Coeff-Com:  0.113D-04 0.955D-02 0.145D-01-0.238D-01-0.139D+00 0.495D-01
 Coeff-Com:  0.109D+01
 Coeff:      0.658D-04-0.169D-03-0.185D-03 0.825D-03-0.436D-03-0.197D-02
 Coeff:      0.113D-04 0.955D-02 0.145D-01-0.238D-01-0.139D+00 0.495D-01
 Coeff:      0.109D+01
 Gap=     0.332 Goal=   None    Shift=    0.000
 RMSDP=3.57D-08 MaxDP=1.99D-06 DE=-9.09D-11 OVMax= 1.29D-07

 Cycle  14  Pass 1  IDiag  1:
 RMSU=  1.82D-08    CP:  9.98D-01  1.30D+00  1.76D+00  1.90D+00  1.61D+00
                    CP:  1.45D+00  1.28D+00  1.37D+00  1.47D+00  1.72D+00
                    CP:  2.45D+00  3.00D+00  2.43D+00
 E= -2359.39589146304     Delta-E=        0.000000000473 Rises=F Damp=F
 DIIS: error= 2.39D-09 at cycle  14 NSaved=  14.
 NSaved=14 IEnMin=13 EnMin= -2359.39589146351     IErMin=13 ErrMin= 1.50D-09
 ErrMax= 2.39D-09  0.00D+00 EMaxC= 1.00D-01 BMatC= 9.49D-15 BMatP= 1.80D-14
 IDIUse=1 WtCom= 1.00D+00 WtEn= 0.00D+00
 Coeff-Com:  0.141D-04-0.344D-04-0.365D-04 0.148D-03-0.280D-04-0.260D-03
 Coeff-Com: -0.622D-03-0.191D-03 0.862D-02 0.108D-01-0.655D-01-0.703D-01
 Coeff-Com:  0.419D+00 0.698D+00
 Coeff:      0.141D-04-0.344D-04-0.365D-04 0.148D-03-0.280D-04-0.260D-03
 Coeff:     -0.622D-03-0.191D-03 0.862D-02 0.108D-01-0.655D-01-0.703D-01
 Coeff:      0.419D+00 0.698D+00
 Gap=     0.332 Goal=   None    Shift=    0.000
 RMSDP=3.67D-08 MaxDP=2.33D-06 DE= 4.73D-10 OVMax= 3.07D-08

 Cycle  15  Pass 1  IDiag  1:
 RMSU=  1.70D-08    CP:  9.98D-01  1.30D+00  1.76D+00  1.90D+00  1.61D+00
                    CP:  1.45D+00  1.29D+00  1.38D+00  1.49D+00  1.82D+00
                    CP:  3.00D+00  3.00D+00  3.00D+00  2.37D+00
 E= -2359.39589146314     Delta-E=       -0.000000000098 Rises=F Damp=F
 DIIS: error= 3.21D-09 at cycle  15 NSaved=  15.
 NSaved=15 IEnMin=13 EnMin= -2359.39589146351     IErMin=13 ErrMin= 1.50D-09
 ErrMax= 3.21D-09  0.00D+00 EMaxC= 1.00D-01 BMatC= 1.16D-14 BMatP= 9.49D-15
 IDIUse=1 WtCom= 1.00D+00 WtEn= 0.00D+00
 Coeff-Com:  0.125D-04-0.275D-04-0.336D-04 0.106D-03 0.447D-04-0.981D-04
 Coeff-Com: -0.113D-02-0.199D-02 0.127D-01 0.214D-01-0.846D-01-0.127D+00
 Coeff-Com:  0.506D+00 0.119D+01-0.520D+00
 Coeff:      0.125D-04-0.275D-04-0.336D-04 0.106D-03 0.447D-04-0.981D-04
 Coeff:     -0.113D-02-0.199D-02 0.127D-01 0.214D-01-0.846D-01-0.127D+00
 Coeff:      0.506D+00 0.119D+01-0.520D+00
 Gap=     0.332 Goal=   None    Shift=    0.000
 RMSDP=2.72D-08 MaxDP=1.64D-06 DE=-9.82D-11 OVMax= 6.19D-09

 Cycle  16  Pass 1  IDiag  1:
 RMSU=  4.80D-09    CP:  9.98D-01  1.30D+00  1.76D+00  1.90D+00  1.61D+00
                    CP:  1.45D+00  1.28D+00  1.37D+00  1.48D+00  1.75D+00
                    CP:  2.61D+00  3.00D+00  2.96D+00  1.35D+00  5.96D-02
 E= -2359.39589146376     Delta-E=       -0.000000000622 Rises=F Damp=F
 DIIS: error= 2.70D-09 at cycle  16 NSaved=  16.
 NSaved=16 IEnMin=16 EnMin= -2359.39589146376     IErMin=13 ErrMin= 1.50D-09
 ErrMax= 2.70D-09  0.00D+00 EMaxC= 1.00D-01 BMatC= 9.11D-15 BMatP= 9.49D-15
 IDIUse=1 WtCom= 1.00D+00 WtEn= 0.00D+00
 Large coefficients: NSaved= 16 BigCof=    0.00 CofMax=   10.00 Det=-4.74D-16
 Inversion failed.  Reducing to 15 matrices.
 Coeff-Com:  0.374D-05 0.501D-05-0.550D-04 0.110D-03 0.272D-03-0.936D-03
 Coeff-Com: -0.367D-02 0.716D-02 0.242D-01-0.456D-01-0.125D+00 0.197D+00
 Coeff-Com:  0.109D+01-0.204D+01 0.189D+01
 Coeff:      0.374D-05 0.501D-05-0.550D-04 0.110D-03 0.272D-03-0.936D-03
 Coeff:     -0.367D-02 0.716D-02 0.242D-01-0.456D-01-0.125D+00 0.197D+00
 Coeff:      0.109D+01-0.204D+01 0.189D+01
 Gap=     0.332 Goal=   None    Shift=    0.000
 RMSDP=4.59D-08 MaxDP=3.00D-06 DE=-6.22D-10 OVMax= 1.09D-08

 Cycle  17  Pass 1  IDiag  1:
 RMSU=  2.55D-08    CP:  9.98D-01  1.30D+00  1.76D+00  1.90D+00  1.61D+00
                    CP:  1.44D+00  1.28D+00  1.36D+00  1.45D+00  1.69D+00
                    CP:  2.00D+00  2.96D+00  7.56D-01  4.44D-01 -6.15D-01
                    CP:  2.22D+00
 E= -2359.39589146299     Delta-E=        0.000000000768 Rises=F Damp=F
 DIIS: error= 1.67D-09 at cycle  17 NSaved=  16.
 NSaved=16 IEnMin=15 EnMin= -2359.39589146376     IErMin=12 ErrMin= 1.50D-09
 ErrMax= 1.67D-09  0.00D+00 EMaxC= 1.00D-01 BMatC= 5.00D-15 BMatP= 9.11D-15
 IDIUse=1 WtCom= 1.00D+00 WtEn= 0.00D+00
 Large coefficients: NSaved= 16 BigCof=    0.00 CofMax=   10.00 Det=-4.47D-16
 Inversion failed.  Reducing to 15 matrices.
 Coeff-Com:  0.440D-05-0.224D-04 0.450D-04 0.132D-03-0.383D-03-0.205D-02
 Coeff-Com:  0.230D-02 0.138D-01-0.157D-01-0.726D-01 0.640D-02 0.495D+00
 Coeff-Com: -0.181D+01 0.144D+01 0.944D+00
 Coeff:      0.440D-05-0.224D-04 0.450D-04 0.132D-03-0.383D-03-0.205D-02
 Coeff:      0.230D-02 0.138D-01-0.157D-01-0.726D-01 0.640D-02 0.495D+00
 Coeff:     -0.181D+01 0.144D+01 0.944D+00
 Gap=     0.332 Goal=   None    Shift=    0.000
 RMSDP=3.81D-08 MaxDP=2.84D-06 DE= 7.68D-10 OVMax= 1.79D-08

 Cycle  18  Pass 1  IDiag  1:
 RMSU=  1.76D-08    CP:  9.98D-01  1.30D+00  1.76D+00  1.90D+00  1.61D+00
                    CP:  1.44D+00  1.28D+00  1.35D+00  1.43D+00  1.61D+00
                    CP:  1.53D+00  1.43D+00 -6.32D-01 -1.33D-01 -6.20D-01
                    CP:  3.00D+00  1.54D+00
 E= -2359.39589146282     Delta-E=        0.000000000167 Rises=F Damp=F
 DIIS: error= 9.39D-10 at cycle  18 NSaved=  16.
 NSaved=16 IEnMin=14 EnMin= -2359.39589146376     IErMin=16 ErrMin= 9.39D-10
 ErrMax= 9.39D-10  0.00D+00 EMaxC= 1.00D-01 BMatC= 1.99D-15 BMatP= 5.00D-15
 IDIUse=1 WtCom= 1.00D+00 WtEn= 0.00D+00
 Large coefficients: NSaved= 16 BigCof=    0.00 CofMax=   10.00 Det=-3.90D-16
 Inversion failed.  Reducing to 15 matrices.
 Coeff-Com: -0.118D-04 0.425D-04 0.915D-04-0.353D-03-0.155D-02 0.285D-02
 Coeff-Com:  0.107D-01-0.159D-01-0.554D-01 0.330D-01 0.333D+00-0.968D+00
 Coeff-Com:  0.684D+00 0.445D-01 0.932D+00
 Coeff:     -0.118D-04 0.425D-04 0.915D-04-0.353D-03-0.155D-02 0.285D-02
 Coeff:      0.107D-01-0.159D-01-0.554D-01 0.330D-01 0.333D+00-0.968D+00
 Coeff:      0.684D+00 0.445D-01 0.932D+00
 Gap=     0.332 Goal=   None    Shift=    0.000
 RMSDP=2.29D-08 MaxDP=1.30D-06 DE= 1.67D-10 OVMax= 1.12D-08

 Cycle  19  Pass 1  IDiag  1:
 RMSU=  9.51D-09    CP:  9.98D-01  1.30D+00  1.76D+00  1.90D+00  1.61D+00
                    CP:  1.44D+00  1.28D+00  1.34D+00  1.42D+00  1.58D+00
                    CP:  1.24D+00  7.80D-01 -1.85D+00 -2.58D-01 -6.42D-01
                    CP:  2.66D+00  1.65D+00  1.40D+00
 E= -2359.39589146329     Delta-E=       -0.000000000469 Rises=F Damp=F
 DIIS: error= 1.83D-09 at cycle  19 NSaved=  16.
 NSaved=16 IEnMin=13 EnMin= -2359.39589146376     IErMin=15 ErrMin= 9.39D-10
 ErrMax= 1.83D-09  0.00D+00 EMaxC= 1.00D-01 BMatC= 1.94D-15 BMatP= 1.99D-15
 IDIUse=1 WtCom= 1.00D+00 WtEn= 0.00D+00
 Large coefficients: NSaved= 16 BigCof=    0.00 CofMax=   10.00 Det=-3.78D-16
 Inversion failed.  Reducing to 15 matrices.
 Coeff-Com:  0.120D-04 0.332D-04-0.139D-03-0.872D-03 0.869D-03 0.607D-02
 Coeff-Com: -0.509D-02-0.330D-01-0.187D-01 0.192D+00-0.690D+00 0.900D+00
 Coeff-Com: -0.448D+00 0.279D+00 0.819D+00
 Coeff:      0.120D-04 0.332D-04-0.139D-03-0.872D-03 0.869D-03 0.607D-02
 Coeff:     -0.509D-02-0.330D-01-0.187D-01 0.192D+00-0.690D+00 0.900D+00
 Coeff:     -0.448D+00 0.279D+00 0.819D+00
 Gap=     0.332 Goal=   None    Shift=    0.000
 RMSDP=1.17D-08 MaxDP=1.20D-06 DE=-4.69D-10 OVMax= 8.84D-09

 Cycle  20  Pass 1  IDiag  1:
 RMSU=  8.10D-09    CP:  9.98D-01  1.30D+00  1.76D+00  1.90D+00  1.61D+00
                    CP:  1.44D+00  1.28D+00  1.35D+00  1.42D+00  1.58D+00
                    CP:  1.23D+00  8.45D-01 -2.02D+00 -1.96D-01 -5.91D-01
                    CP:  1.72D+00  1.55D+00  1.43D+00  1.63D+00
 E= -2359.39589146353     Delta-E=       -0.000000000240 Rises=F Damp=F
 DIIS: error= 2.01D-09 at cycle  20 NSaved=  16.
 NSaved=16 IEnMin=12 EnMin= -2359.39589146376     IErMin=14 ErrMin= 9.39D-10
 ErrMax= 2.01D-09  0.00D+00 EMaxC= 1.00D-01 BMatC= 2.29D-15 BMatP= 1.94D-15
 IDIUse=1 WtCom= 1.00D+00 WtEn= 0.00D+00
 Large coefficients: NSaved= 16 BigCof=    0.00 CofMax=   10.00 Det=-2.16D-16
 Inversion failed.  Reducing to 15 matrices.
 Coeff-Com:  0.299D-04-0.646D-04-0.633D-03 0.546D-03 0.469D-02-0.351D-02
 Coeff-Com: -0.261D-01-0.209D-01 0.143D+00-0.649D+00 0.893D+00-0.449D+00
 Coeff-Com:  0.318D+00 0.504D+00 0.285D+00
 Coeff:      0.299D-04-0.646D-04-0.633D-03 0.546D-03 0.469D-02-0.351D-02
 Coeff:     -0.261D-01-0.209D-01 0.143D+00-0.649D+00 0.893D+00-0.449D+00
 Coeff:      0.318D+00 0.504D+00 0.285D+00
 Gap=     0.332 Goal=   None    Shift=    0.000
 RMSDP=4.89D-09 MaxDP=4.05D-07 DE=-2.40D-10 OVMax= 1.47D-09

 SCF Done:  E(RHF) =  -2359.39589146     A.U. after   20 cycles
            NFock= 20  Conv=0.49D-08     -V/T= 2.0002
 KE= 2.358985180191D+03 PE=-2.249077831439D+04 EE= 9.278895179163D+03
 Leave Link  502 at Tue Nov  2 22:58:33 2021, MaxMem=  7864320000 cpu:          232437.8 elap:            7314.7
 (Enter /apps/gaussian/g16-c01-avx/g16/l508.exe)
 QCSCF skips out because SCF is already converged.
 Leave Link  508 at Tue Nov  2 22:58:33 2021, MaxMem=  7864320000 cpu:               0.1 elap:               0.0
 (Enter /apps/gaussian/g16-c01-avx/g16/l801.exe)
 ExpMin= 2.97D-02 ExpMax= 9.05D+03 ExpMxC= 3.09D+02 IAcc=3 IRadAn=         7 AccDes= 0.00D+00
 HarFok:  IExCor=  205 AccDes= 0.00D+00 IRadAn=         7 IDoV=-2 UseB2=F ITyADJ=14
 ICtDFT= 12500011 ScaDFX=  1.000000  1.000000  1.000000  1.000000
 GSVD:  LWork=       -3705 too small for GESVD, short by       17100 words or       17100 for optimal perf.
 Largest valence mixing into a core orbital is  1.12D-04
 Largest core mixing into a valence orbital is  4.46D-05
 Range of M.O.s used for correlation:    58  1831
 NBasis=  1851 NAE=   206 NBE=   206 NFC=    57 NFV=     0
 NROrb=   1774 NOA=   149 NOB=   149 NVA=  1625 NVB=  1625

 **** Warning!!: The largest alpha MO coefficient is  0.16312722D+03

 Leave Link  801 at Tue Nov  2 22:58:34 2021, MaxMem=  7864320000 cpu:              23.0 elap:               0.7
 (Enter /apps/gaussian/g16-c01-avx/g16/l906.exe)
 FulOut=F Deriv=F AODrv=F NAtomX=   117
   MMem=           0  MDisk=         149 MDiskD=         149
  W3Min=   475775625 MinDsk=   426324520 NBas6D=        1965
 NBas2D=     1934178    NTT=     1931595    LW2=     2000000
    MDV=  7845492659 MDiskM=       55438 NBas2p=     1416890
 Disk-based method using OVN memory for149 occupieds at a time.
 Estimated scratch disk usage=************ words.
 IMap=   1   2   3   4   5   6   7   8   9  10  11  12  13  14  15  16  17  18  19  20
 IMap=  21  22  23  24  25  26  27  28  29  30  31  32  33  34  35  36  37  38  39  40
 IMap=  41  42  43  44  45  46  47  48  49  50  51  52  53  54  55  56  57  58  59  60
 IMap=  61  62  63  64  65  66  67  68  69  70  71  72  73  74  75  76  77  78  79  80
 IMap=  81  82  83  84  85  86  87  88  89  90  91  92  93  94  95  96  97  98  99 100
 IMap= 101 102 103 104 105 106 107 108 109 110 111 112 113 114 115 116 117 118 119 120
 IMap= 121 122 123 124 125 126 127 128 129 130 131 132 133 134 135 136 137 138 139 140
 IMap= 141 142 143 144 145 146 147 148 149
 Actual    scratch disk usage=************ words.
 JobTyp=1 Pass  1:  I=   1 to 149 NPSUse= 32 ParTrn=T ParDer=T DoDerP=F.
 Spin components of T(2) and E(2):
     alpha-alpha T2 =       0.4129376220D+00 E2=     -0.1102230933D+01
     alpha-beta  T2 =       0.2164200610D+01 E2=     -0.6172767892D+01
     beta-beta   T2 =       0.4129376220D+00 E2=     -0.1102230933D+01
 The integrals were generated   1 times.
 ANorm=    0.1997517423D+01
 E2 =    -0.8377229758D+01 EUMP2 =    -0.23677731212218D+04
 Leave Link  906 at Thu Nov  4 06:15:52 2021, MaxMem=  7864320000 cpu:         3537741.1 elap:          112637.9
 (Enter /apps/gaussian/g16-c01-avx/g16/l601.exe)
 Copying SCF densities to generalized density rwf, IOpCl= 0 IROHF=0.
 Hyperfine terms turned off by default for NAtoms > 100.

 **********************************************************************

            Population analysis using the SCF Density.

 **********************************************************************

 Orbital symmetries:
       Occupied  (A) (A) (A) (A) (A) (A) (A) (A) (A) (A) (A) (A)
                 (A) (A) (A) (A) (A) (A) (A) (A) (A) (A) (A) (A)
                 (A) (A) (A) (A) (A) (A) (A) (A) (A) (A) (A) (A)
                 (A) (A) (A) (A) (A) (A) (A) (A) (A) (A) (A) (A)
                 (A) (A) (A) (A) (A) (A) (A) (A) (A) (A) (A) (A)
                 (A) (A) (A) (A) (A) (A) (A) (A) (A) (A) (A) (A)
                 (A) (A) (A) (A) (A) (A) (A) (A) (A) (A) (A) (A)
                 (A) (A) (A) (A) (A) (A) (A) (A) (A) (A) (A) (A)
                 (A) (A) (A) (A) (A) (A) (A) (A) (A) (A) (A) (A)
                 (A) (A) (A) (A) (A) (A) (A) (A) (A) (A) (A) (A)
                 (A) (A) (A) (A) (A) (A) (A) (A) (A) (A) (A) (A)
                 (A) (A) (A) (A) (A) (A) (A) (A) (A) (A) (A) (A)
                 (A) (A) (A) (A) (A) (A) (A) (A) (A) (A) (A) (A)
                 (A) (A) (A) (A) (A) (A) (A) (A) (A) (A) (A) (A)
                 (A) (A) (A) (A) (A) (A) (A) (A) (A) (A) (A) (A)
                 (A) (A) (A) (A) (A) (A) (A) (A) (A) (A) (A) (A)
                 (A) (A) (A) (A) (A) (A) (A) (A) (A) (A) (A) (A)
                 (A) (A)
       Virtual   (A) (A) (A) (A) (A) (A) (A) (A) (A) (A) (A) (A)
                 (A) (A) (A) (A) (A) (A) (A) (A) (A) (A) (A) (A)
                 (A) (A) (A) (A) (A) (A) (A) (A) (A) (A) (A) (A)
                 (A) (A) (A) (A) (A) (A) (A) (A) (A) (A) (A) (A)
                 (A) (A) (A) (A) (A) (A) (A) (A) (A) (A) (A) (A)
                 (A) (A) (A) (A) (A) (A) (A) (A) (A) (A) (A) (A)
                 (A) (A) (A) (A) (A) (A) (A) (A) (A) (A) (A) (A)
                 (A) (A) (A) (A) (A) (A) (A) (A) (A) (A) (A) (A)
                 (A) (A) (A) (A) (A) (A) (A) (A) (A) (A) (A) (A)
                 (A) (A) (A) (A) (A) (A) (A) (A) (A) (A) (A) (A)
                 (A) (A) (A) (A) (A) (A) (A) (A) (A) (A) (A) (A)
                 (A) (A) (A) (A) (A) (A) (A) (A) (A) (A) (A) (A)
                 (A) (A) (A) (A) (A) (A) (A) (A) (A) (A) (A) (A)
                 (A) (A) (A) (A) (A) (A) (A) (A) (A) (A) (A) (A)
                 (A) (A) (A) (A) (A) (A) (A) (A) (A) (A) (A) (A)
                 (A) (A) (A) (A) (A) (A) (A) (A) (A) (A) (A) (A)
                 (A) (A) (A) (A) (A) (A) (A) (A) (A) (A) (A) (A)
                 (A) (A) (A) (A) (A) (A) (A) (A) (A) (A) (A) (A)
                 (A) (A) (A) (A) (A) (A) (A) (A) (A) (A) (A) (A)
                 (A) (A) (A) (A) (A) (A) (A) (A) (A) (A) (A) (A)
                 (A) (A) (A) (A) (A) (A) (A) (A) (A) (A) (A) (A)
                 (A) (A) (A) (A) (A) (A) (A) (A) (A) (A) (A) (A)
                 (A) (A) (A) (A) (A) (A) (A) (A) (A) (A) (A) (A)
                 (A) (A) (A) (A) (A) (A) (A) (A) (A) (A) (A) (A)
                 (A) (A) (A) (A) (A) (A) (A) (A) (A) (A) (A) (A)
                 (A) (A) (A) (A) (A) (A) (A) (A) (A) (A) (A) (A)
                 (A) (A) (A) (A) (A) (A) (A) (A) (A) (A) (A) (A)
                 (A) (A) (A) (A) (A) (A) (A) (A) (A) (A) (A) (A)
                 (A) (A) (A) (A) (A) (A) (A) (A) (A) (A) (A) (A)
                 (A) (A) (A) (A) (A) (A) (A) (A) (A) (A) (A) (A)
                 (A) (A) (A) (A) (A) (A) (A) (A) (A) (A) (A) (A)
                 (A) (A) (A) (A) (A) (A) (A) (A) (A) (A) (A) (A)
                 (A) (A) (A) (A) (A) (A) (A) (A) (A) (A) (A) (A)
                 (A) (A) (A) (A) (A) (A) (A) (A) (A) (A) (A) (A)
                 (A) (A) (A) (A) (A) (A) (A) (A) (A) (A) (A) (A)
                 (A) (A) (A) (A) (A) (A) (A) (A) (A) (A) (A) (A)
                 (A) (A) (A) (A) (A) (A) (A) (A) (A) (A) (A) (A)
                 (A) (A) (A) (A) (A) (A) (A) (A) (A) (A) (A) (A)
                 (A) (A) (A) (A) (A) (A) (A) (A) (A) (A) (A) (A)
                 (A) (A) (A) (A) (A) (A) (A) (A) (A) (A) (A) (A)
                 (A) (A) (A) (A) (A) (A) (A) (A) (A) (A) (A) (A)
                 (A) (A) (A) (A) (A) (A) (A) (A) (A) (A) (A) (A)
                 (A) (A) (A) (A) (A) (A) (A) (A) (A) (A) (A) (A)
                 (A) (A) (A) (A) (A) (A) (A) (A) (A) (A) (A) (A)
                 (A) (A) (A) (A) (A) (A) (A) (A) (A) (A) (A) (A)
                 (A) (A) (A) (A) (A) (A) (A) (A) (A) (A) (A) (A)
                 (A) (A) (A) (A) (A) (A) (A) (A) (A) (A) (A) (A)
                 (A) (A) (A) (A) (A) (A) (A) (A) (A) (A) (A) (A)
                 (A) (A) (A) (A) (A) (A) (A) (A) (A) (A) (A) (A)
                 (A) (A) (A) (A) (A) (A) (A) (A) (A) (A) (A) (A)
                 (A) (A) (A) (A) (A) (A) (A) (A) (A) (A) (A) (A)
                 (A) (A) (A) (A) (A) (A) (A) (A) (A) (A) (A) (A)
                 (A) (A) (A) (A) (A) (A) (A) (A) (A) (A) (A) (A)
                 (A) (A) (A) (A) (A) (A) (A) (A) (A) (A) (A) (A)
                 (A) (A) (A) (A) (A) (A) (A) (A) (A) (A) (A) (A)
                 (A) (A) (A) (A) (A) (A) (A) (A) (A) (A) (A) (A)
                 (A) (A) (A) (A) (A) (A) (A) (A) (A) (A) (A) (A)
                 (A) (A) (A) (A) (A) (A) (A) (A) (A) (A) (A) (A)
                 (A) (A) (A) (A) (A) (A) (A) (A) (A) (A) (A) (A)
                 (A) (A) (A) (A) (A) (A) (A) (A) (A) (A) (A) (A)
                 (A) (A) (A) (A) (A) (A) (A) (A) (A) (A) (A) (A)
                 (A) (A) (A) (A) (A) (A) (A) (A) (A) (A) (A) (A)
                 (A) (A) (A) (A) (A) (A) (A) (A) (A) (A) (A) (A)
                 (A) (A) (A) (A) (A) (A) (A) (A) (A) (A) (A) (A)
                 (A) (A) (A) (A) (A) (A) (A) (A) (A) (A) (A) (A)
                 (A) (A) (A) (A) (A) (A) (A) (A) (A) (A) (A) (A)
                 (A) (A) (A) (A) (A) (A) (A) (A) (A) (A) (A) (A)
                 (A) (A) (A) (A) (A) (A) (A) (A) (A) (A) (A) (A)
                 (A) (A) (A) (A) (A) (A) (A) (A) (A) (A) (A) (A)
                 (A) (A) (A) (A) (A) (A) (A) (A) (A) (A) (A) (A)
                 (A) (A) (A) (A) (A) (A) (A) (A) (A) (A) (A) (A)
                 (A) (A) (A) (A) (A) (A) (A) (A) (A) (A) (A) (A)
                 (A) (A) (A) (A) (A) (A) (A) (A) (A) (A) (A) (A)
                 (A) (A) (A) (A) (A) (A) (A) (A) (A) (A) (A) (A)
                 (A) (A) (A) (A) (A) (A) (A) (A) (A) (A) (A) (A)
                 (A) (A) (A) (A) (A) (A) (A) (A) (A) (A) (A) (A)
                 (A) (A) (A) (A) (A) (A) (A) (A) (A) (A) (A) (A)
                 (A) (A) (A) (A) (A) (A) (A) (A) (A) (A) (A) (A)
                 (A) (A) (A) (A) (A) (A) (A) (A) (A) (A) (A) (A)
                 (A) (A) (A) (A) (A) (A) (A) (A) (A) (A) (A) (A)
                 (A) (A) (A) (A) (A) (A) (A) (A) (A) (A) (A) (A)
                 (A) (A) (A) (A) (A) (A) (A) (A) (A) (A) (A) (A)
                 (A) (A) (A) (A) (A) (A) (A) (A) (A) (A) (A) (A)
                 (A) (A) (A) (A) (A) (A) (A) (A) (A) (A) (A) (A)
                 (A) (A) (A) (A) (A) (A) (A) (A) (A) (A) (A) (A)
                 (A) (A) (A) (A) (A) (A) (A) (A) (A) (A) (A) (A)
                 (A) (A) (A) (A) (A) (A) (A) (A) (A) (A) (A) (A)
                 (A) (A) (A) (A) (A) (A) (A) (A) (A) (A) (A) (A)
                 (A) (A) (A) (A) (A) (A) (A) (A) (A) (A) (A) (A)
                 (A) (A) (A) (A) (A) (A) (A) (A) (A) (A) (A) (A)
                 (A) (A) (A) (A) (A) (A) (A) (A) (A) (A) (A) (A)
                 (A) (A) (A) (A) (A) (A) (A) (A) (A) (A) (A) (A)
                 (A) (A) (A) (A) (A) (A) (A) (A) (A) (A) (A) (A)
                 (A) (A) (A) (A) (A) (A) (A) (A) (A) (A) (A) (A)
                 (A) (A) (A) (A) (A) (A) (A) (A) (A) (A) (A) (A)
                 (A) (A) (A) (A) (A) (A) (A) (A) (A) (A) (A) (A)
                 (A) (A) (A) (A) (A) (A) (A) (A) (A) (A) (A) (A)
                 (A) (A) (A) (A) (A) (A) (A) (A) (A) (A) (A) (A)
                 (A) (A) (A) (A) (A) (A) (A) (A) (A) (A) (A) (A)
                 (A) (A) (A) (A) (A) (A) (A) (A) (A) (A) (A) (A)
                 (A) (A) (A) (A) (A) (A) (A) (A) (A) (A) (A) (A)
                 (A) (A) (A) (A) (A) (A) (A) (A) (A) (A) (A) (A)
                 (A) (A) (A) (A) (A) (A) (A) (A) (A) (A) (A) (A)
                 (A) (A) (A) (A) (A) (A) (A) (A) (A) (A) (A) (A)
                 (A) (A) (A) (A) (A) (A) (A) (A) (A) (A) (A) (A)
                 (A) (A) (A) (A) (A) (A) (A) (A) (A) (A) (A) (A)
                 (A) (A) (A) (A) (A) (A) (A) (A) (A) (A) (A) (A)
                 (A) (A) (A) (A) (A) (A) (A) (A) (A) (A) (A) (A)
                 (A) (A) (A) (A) (A) (A) (A) (A) (A) (A) (A) (A)
                 (A) (A) (A) (A) (A) (A) (A) (A) (A) (A) (A) (A)
                 (A) (A) (A) (A) (A) (A) (A) (A) (A) (A) (A) (A)
                 (A) (A) (A) (A) (A) (A) (A) (A) (A) (A) (A) (A)
                 (A) (A) (A) (A) (A) (A) (A) (A) (A) (A) (A) (A)
                 (A) (A) (A) (A) (A) (A) (A) (A) (A) (A) (A) (A)
                 (A) (A) (A) (A) (A) (A) (A) (A) (A) (A) (A) (A)
                 (A) (A) (A) (A) (A) (A) (A) (A) (A) (A) (A) (A)
                 (A) (A) (A) (A) (A) (A) (A) (A) (A) (A) (A) (A)
                 (A) (A) (A) (A) (A) (A) (A) (A) (A) (A) (A) (A)
                 (A) (A) (A) (A) (A) (A) (A) (A) (A) (A) (A) (A)
                 (A) (A) (A) (A) (A) (A) (A) (A) (A) (A) (A) (A)
                 (A) (A) (A) (A) (A) (A) (A) (A) (A) (A) (A) (A)
                 (A) (A) (A) (A) (A) (A) (A) (A) (A) (A) (A) (A)
                 (A) (A) (A) (A) (A) (A) (A) (A) (A) (A) (A) (A)
                 (A) (A) (A) (A) (A) (A) (A) (A) (A) (A) (A) (A)
                 (A) (A) (A) (A) (A) (A) (A) (A) (A) (A) (A) (A)
                 (A) (A) (A) (A) (A) (A) (A) (A) (A) (A) (A) (A)
                 (A) (A) (A) (A) (A) (A) (A) (A) (A) (A) (A) (A)
                 (A) (A) (A) (A) (A) (A) (A) (A) (A) (A) (A) (A)
                 (A) (A) (A) (A) (A) (A) (A) (A) (A) (A) (A) (A)
                 (A) (A) (A) (A) (A) (A) (A) (A) (A) (A) (A) (A)
                 (A) (A) (A) (A) (A) (A) (A) (A) (A) (A) (A) (A)
                 (A) (A) (A) (A) (A) (A) (A) (A) (A) (A) (A) (A)
                 (A) (A) (A) (A) (A) (A) (A) (A) (A) (A) (A) (A)
                 (A) (A) (A) (A) (A) (A) (A) (A) (A) (A) (A) (A)
                 (A) (A) (A) (A) (A) (A) (A) (A) (A) (A) (A) (A)
                 (A) (A) (A) (A) (A)
 The electronic state is 1-A.
 Alpha  occ. eigenvalues --  -15.55844 -15.55718 -15.55546 -15.55498 -15.55257
 Alpha  occ. eigenvalues --  -15.55192 -15.55062 -15.55059 -15.54842 -15.54777
 Alpha  occ. eigenvalues --  -11.29378 -11.28570 -11.28252 -11.28239 -11.27885
 Alpha  occ. eigenvalues --  -11.27882 -11.27832 -11.27794 -11.27617 -11.27078
 Alpha  occ. eigenvalues --  -11.26692 -11.26497 -11.26304 -11.26091 -11.25378
 Alpha  occ. eigenvalues --  -11.25271 -11.25207 -11.24883 -11.24880 -11.24717
 Alpha  occ. eigenvalues --  -11.24678 -11.24675 -11.24641 -11.24627 -11.24559
 Alpha  occ. eigenvalues --  -11.24444 -11.24419 -11.24406 -11.24391 -11.24347
 Alpha  occ. eigenvalues --  -11.24294 -11.24144 -11.23734 -11.23719 -11.23395
 Alpha  occ. eigenvalues --  -11.23080 -11.22910 -11.22770 -11.22080 -11.22071
 Alpha  occ. eigenvalues --  -11.21800 -11.21492 -11.21308 -11.21095 -11.21030
 Alpha  occ. eigenvalues --  -11.20921 -11.20885  -1.28554  -1.26388  -1.25995
 Alpha  occ. eigenvalues --   -1.25770  -1.25623  -1.23211  -1.22675  -1.22655
 Alpha  occ. eigenvalues --   -1.22322  -1.17102  -1.16261  -1.15921  -1.15370
 Alpha  occ. eigenvalues --   -1.09151  -1.08653  -1.08216  -1.07203  -1.06310
 Alpha  occ. eigenvalues --   -1.05215  -1.04343  -1.03204  -1.02720  -1.02334
 Alpha  occ. eigenvalues --   -1.01805  -0.94606  -0.94402  -0.94350  -0.94220
 Alpha  occ. eigenvalues --   -0.93985  -0.93946  -0.93863  -0.93698  -0.93474
 Alpha  occ. eigenvalues --   -0.92283  -0.89705  -0.89259  -0.88599  -0.88384
 Alpha  occ. eigenvalues --   -0.87109  -0.86036  -0.85151  -0.84338  -0.83228
 Alpha  occ. eigenvalues --   -0.79861  -0.78761  -0.77812  -0.76682  -0.76451
 Alpha  occ. eigenvalues --   -0.75984  -0.75638  -0.73168  -0.72728  -0.72436
 Alpha  occ. eigenvalues --   -0.71484  -0.70619  -0.70448  -0.69843  -0.68895
 Alpha  occ. eigenvalues --   -0.68536  -0.67567  -0.67066  -0.66525  -0.65953
 Alpha  occ. eigenvalues --   -0.65815  -0.65398  -0.65030  -0.64798  -0.63991
 Alpha  occ. eigenvalues --   -0.63311  -0.63108  -0.62927  -0.62522  -0.62298
 Alpha  occ. eigenvalues --   -0.62144  -0.62033  -0.61711  -0.61308  -0.60419
 Alpha  occ. eigenvalues --   -0.60355  -0.59982  -0.59977  -0.59745  -0.59682
 Alpha  occ. eigenvalues --   -0.59316  -0.58961  -0.57510  -0.56005  -0.55727
 Alpha  occ. eigenvalues --   -0.55666  -0.55459  -0.55273  -0.55161  -0.54728
 Alpha  occ. eigenvalues --   -0.54436  -0.54232  -0.54190  -0.53998  -0.53832
 Alpha  occ. eigenvalues --   -0.53756  -0.53583  -0.53503  -0.53190  -0.53168
 Alpha  occ. eigenvalues --   -0.52997  -0.52739  -0.52564  -0.52175  -0.51880
 Alpha  occ. eigenvalues --   -0.51671  -0.51491  -0.51007  -0.50892  -0.50629
 Alpha  occ. eigenvalues --   -0.50198  -0.50003  -0.49485  -0.49304  -0.49052
 Alpha  occ. eigenvalues --   -0.48618  -0.48432  -0.47908  -0.47717  -0.47507
 Alpha  occ. eigenvalues --   -0.47098  -0.46828  -0.44814  -0.44781  -0.44140
 Alpha  occ. eigenvalues --   -0.43946  -0.43411  -0.40532  -0.40272  -0.40018
 Alpha  occ. eigenvalues --   -0.39790  -0.39589  -0.39501  -0.39418  -0.39265
 Alpha  occ. eigenvalues --   -0.39043  -0.38910  -0.38775  -0.38668  -0.37358
 Alpha  occ. eigenvalues --   -0.32456  -0.32331  -0.31893  -0.31654  -0.31173
 Alpha  occ. eigenvalues --   -0.30701
 Alpha virt. eigenvalues --    0.02510   0.03219   0.03322   0.03544   0.03843
 Alpha virt. eigenvalues --    0.03992   0.04030   0.04295   0.04594   0.04914
 Alpha virt. eigenvalues --    0.04971   0.05176   0.05188   0.05315   0.05605
 Alpha virt. eigenvalues --    0.05724   0.06138   0.06317   0.06360   0.06515
 Alpha virt. eigenvalues --    0.06574   0.06697   0.06842   0.06930   0.07104
 Alpha virt. eigenvalues --    0.07275   0.07587   0.07844   0.07877   0.08170
 Alpha virt. eigenvalues --    0.08227   0.08369   0.08421   0.08445   0.08478
 Alpha virt. eigenvalues --    0.08679   0.08919   0.08988   0.09226   0.09446
 Alpha virt. eigenvalues --    0.09661   0.09826   0.10146   0.10362   0.10505
 Alpha virt. eigenvalues --    0.10530   0.10756   0.10951   0.11202   0.11363
 Alpha virt. eigenvalues --    0.11514   0.11680   0.11877   0.12062   0.12179
 Alpha virt. eigenvalues --    0.12301   0.12487   0.12783   0.12814   0.13013
 Alpha virt. eigenvalues --    0.13291   0.13368   0.13505   0.13687   0.13729
 Alpha virt. eigenvalues --    0.13900   0.13936   0.14119   0.14201   0.14363
 Alpha virt. eigenvalues --    0.14565   0.14609   0.14777   0.14968   0.15061
 Alpha virt. eigenvalues --    0.15273   0.15407   0.15494   0.15624   0.15709
 Alpha virt. eigenvalues --    0.15714   0.16045   0.16110   0.16247   0.16299
 Alpha virt. eigenvalues --    0.16342   0.16477   0.16704   0.16792   0.16914
 Alpha virt. eigenvalues --    0.17071   0.17168   0.17290   0.17364   0.17532
 Alpha virt. eigenvalues --    0.17666   0.17780   0.17905   0.18195   0.18242
 Alpha virt. eigenvalues --    0.18360   0.18475   0.18699   0.18808   0.18910
 Alpha virt. eigenvalues --    0.19047   0.19155   0.19278   0.19417   0.19503
 Alpha virt. eigenvalues --    0.19695   0.19853   0.19948   0.20010   0.20277
 Alpha virt. eigenvalues --    0.20363   0.20383   0.20531   0.20630   0.20751
[...]
 Alpha virt. eigenvalues --    1.68048   1.68441   1.68557   1.68901   1.69281
 Alpha virt. eigenvalues --    1.69582   1.69776   1.69939   1.70301   1.70522
 Alpha virt. eigenvalues --    1.70962   1.71301   1.71472   1.71576   1.71947
 Alpha virt. eigenvalues --    1.72362   1.72689   1.72843   1.73177   1.73458
 Alpha virt. eigenvalues --    1.73610   1.74090   1.74251   1.74494   1.74756
 Alpha virt. eigenvalues --    1.75006   1.75202   1.75464   1.75941   1.76246
 Alpha virt. eigenvalues --    1.76450   1.76777   1.77139   1.77279   1.77513
 Alpha virt. eigenvalues --    1.77656   1.77804   1.78132   1.78364   1.78581
 Alpha virt. eigenvalues --    1.79045   1.79355   1.79553   1.79753   1.79808
 Alpha virt. eigenvalues --    1.80192   1.80440   1.80608   1.80824   1.81340
 Alpha virt. eigenvalues --    1.81591   1.81882   1.82088   1.82228   1.82451
 Alpha virt. eigenvalues --    1.82722   1.82824   1.83144   1.83402   1.83670
 Alpha virt. eigenvalues --    1.83850   1.84039   1.84247   1.84338   1.84725
 Alpha virt. eigenvalues --    1.84947   1.85251   1.85396   1.85584   1.85731
 Alpha virt. eigenvalues --    1.85990   1.86044   1.86135   1.86661   1.86827
 Alpha virt. eigenvalues --    1.87009   1.87266   1.87378   1.87547   1.88187
 Alpha virt. eigenvalues --    1.88325   1.88386   1.88633   1.88673   1.88987
 Alpha virt. eigenvalues --    1.89104   1.89280   1.89614   1.89672   1.90113
 Alpha virt. eigenvalues --    1.90563   1.90715   1.90854   1.91075   1.91271
 Alpha virt. eigenvalues --    1.91358   1.91575   1.92213   1.92242   1.92510
 Alpha virt. eigenvalues --    1.92759   1.92809   1.93069   1.93321   1.93660
 Alpha virt. eigenvalues --    1.93989   1.94181   1.94275   1.94470   1.94733
 Alpha virt. eigenvalues --    1.94859   1.95164   1.95371   1.95486   1.95743
 Alpha virt. eigenvalues --    1.95878   1.96192   1.96611   1.96737   1.97066
 Alpha virt. eigenvalues --    1.97364   1.97635   1.97840   1.98014   1.98232
 Alpha virt. eigenvalues --    1.98421   1.98857   1.98984   1.99118   1.99300
 Alpha virt. eigenvalues --    1.99435   1.99756   1.99912   2.00169   2.00376
 Alpha virt. eigenvalues --    2.00711   2.00907   2.01123   2.01605   2.01774
 Alpha virt. eigenvalues --    2.01978   2.02292   2.02533   2.02611   2.02669
 Alpha virt. eigenvalues --    2.02777   2.03124   2.03632   2.03706   2.04017
 Alpha virt. eigenvalues --    2.04246   2.04434   2.04773   2.05005   2.05153
 Alpha virt. eigenvalues --    2.05469   2.05594   2.06004   2.06387   2.06613
 Alpha virt. eigenvalues --    2.06835   2.07108   2.07320   2.07514   2.07791
 Alpha virt. eigenvalues --    2.08153   2.08227   2.08520   2.08765   2.09279
 Alpha virt. eigenvalues --    2.09459   2.09679   2.09963   2.10272   2.10439
 Alpha virt. eigenvalues --    2.10522   2.10693   2.10939   2.11424   2.11880
 Alpha virt. eigenvalues --    2.12122   2.12234   2.12566   2.12749   2.12954
 Alpha virt. eigenvalues --    2.13249   2.13328   2.13830   2.13964   2.14047
 Alpha virt. eigenvalues --    2.14439   2.14645   2.15011   2.15276   2.15583
 Alpha virt. eigenvalues --    2.15961   2.16196   2.16413   2.16483   2.16787
 Alpha virt. eigenvalues --    2.16986   2.17035   2.17254   2.17552   2.17652
 Alpha virt. eigenvalues --    2.17839   2.18036   2.18361   2.18728   2.18875
 Alpha virt. eigenvalues --    2.19220   2.19336   2.19679   2.19791   2.20225
 Alpha virt. eigenvalues --    2.20457   2.20627   2.20869   2.20979   2.21207
 Alpha virt. eigenvalues --    2.21762   2.21876   2.22243   2.22535   2.22745
 Alpha virt. eigenvalues --    2.22900   2.23216   2.23758   2.24102   2.24332
 Alpha virt. eigenvalues --    2.24427   2.24793   2.24994   2.25170   2.25394
 Alpha virt. eigenvalues --    2.25718   2.26126   2.26480   2.26862   2.27184
 Alpha virt. eigenvalues --    2.27404   2.27667   2.27780   2.28130   2.28242
 Alpha virt. eigenvalues --    2.28541   2.28807   2.29050   2.29110   2.29265
 Alpha virt. eigenvalues --    2.29516   2.29912   2.29986   2.30442   2.30888
 Alpha virt. eigenvalues --    2.31087   2.31526   2.31618   2.31770   2.31899
 Alpha virt. eigenvalues --    2.32362   2.32568   2.32797   2.33026   2.33234
 Alpha virt. eigenvalues --    2.33265   2.33655   2.33957   2.34003   2.34301
 Alpha virt. eigenvalues --    2.34559   2.35216   2.35239   2.35783   2.35934
 Alpha virt. eigenvalues --    2.36204   2.36779   2.36848   2.37056   2.37314
 Alpha virt. eigenvalues --    2.37437   2.37879   2.37989   2.38268   2.38589
 Alpha virt. eigenvalues --    2.38735   2.39002   2.39036   2.39211   2.39581
 Alpha virt. eigenvalues --    2.39724   2.40081   2.40460   2.40609   2.40870
 Alpha virt. eigenvalues --    2.41326   2.41524   2.41626   2.41800   2.41912
 Alpha virt. eigenvalues --    2.42130   2.42442   2.42684   2.42983   2.43243
 Alpha virt. eigenvalues --    2.43518   2.43875   2.43970   2.44160   2.44290
 Alpha virt. eigenvalues --    2.44458   2.44901   2.45055   2.45203   2.45322
 Alpha virt. eigenvalues --    2.45880   2.46281   2.46544   2.46849   2.46904
 Alpha virt. eigenvalues --    2.47274   2.47418   2.47560   2.47804   2.48263
 Alpha virt. eigenvalues --    2.48504   2.48518   2.49020   2.49186   2.49465
 Alpha virt. eigenvalues --    2.49564   2.49718   2.50032   2.50233   2.50297
 Alpha virt. eigenvalues --    2.50623   2.50918   2.51227   2.51583   2.51660
 Alpha virt. eigenvalues --    2.51805   2.52030   2.52260   2.52599   2.52820
 Alpha virt. eigenvalues --    2.52921   2.53214   2.53239   2.53665   2.53813
 Alpha virt. eigenvalues --    2.54208   2.54369   2.54574   2.54689   2.55162
 Alpha virt. eigenvalues --    2.55379   2.55725   2.55815   2.55965   2.56259
 Alpha virt. eigenvalues --    2.56635   2.57108   2.57296   2.57641   2.58169
 Alpha virt. eigenvalues --    2.58194   2.58330   2.58670   2.58683   2.58819
 Alpha virt. eigenvalues --    2.59548   2.59787   2.60027   2.60483   2.60605
 Alpha virt. eigenvalues --    2.60987   2.61173   2.61294   2.61630   2.61786
 Alpha virt. eigenvalues --    2.62275   2.62391   2.62455   2.62652   2.62840
 Alpha virt. eigenvalues --    2.63081   2.63622   2.64116   2.64301   2.64631
 Alpha virt. eigenvalues --    2.64919   2.64982   2.65491   2.65835   2.66158
 Alpha virt. eigenvalues --    2.66430   2.66531   2.66877   2.67035   2.67459
 Alpha virt. eigenvalues --    2.67616   2.67743   2.68259   2.68498   2.68848
 Alpha virt. eigenvalues --    2.69102   2.69238   2.69641   2.69786   2.70080
 Alpha virt. eigenvalues --    2.70395   2.70674   2.70972   2.71171   2.71329
 Alpha virt. eigenvalues --    2.71530   2.71832   2.72008   2.72143   2.72498
 Alpha virt. eigenvalues --    2.72952   2.73222   2.73372   2.73528   2.73747
 Alpha virt. eigenvalues --    2.73849   2.74180   2.74566   2.75083   2.75156
 Alpha virt. eigenvalues --    2.75339   2.75635   2.75777   2.76016   2.76553
 Alpha virt. eigenvalues --    2.77100   2.77333   2.77901   2.78297   2.78446
 Alpha virt. eigenvalues --    2.78784   2.79339   2.79520   2.79954   2.80209
 Alpha virt. eigenvalues --    2.80804   2.81014   2.81292   2.81870   2.81912
 Alpha virt. eigenvalues --    2.82658   2.82935   2.83608   2.84099   2.84407
 Alpha virt. eigenvalues --    2.84661   2.85570   2.85677   2.86164   2.86235
 Alpha virt. eigenvalues --    2.86596   2.87077   2.87730   2.87992   2.88304
 Alpha virt. eigenvalues --    2.88490   2.89039   2.89501   2.90690   2.90830
 Alpha virt. eigenvalues --    2.92067   2.92369   2.92562   2.92891   2.93231
 Alpha virt. eigenvalues --    2.93844   2.94022   2.94351   2.94975   2.95333
 Alpha virt. eigenvalues --    2.95545   2.95662   2.96163   2.96361   2.96889
 Alpha virt. eigenvalues --    2.97203   2.97318   2.97674   2.97833   2.98147
 Alpha virt. eigenvalues --    2.98538   2.98843   2.99199   2.99563   2.99660
 Alpha virt. eigenvalues --    3.00051   3.00280   3.00466   3.00925   3.01395
 Alpha virt. eigenvalues --    3.01796   3.02175   3.02512   3.02968   3.03205
 Alpha virt. eigenvalues --    3.03747   3.04173   3.05251   3.05564   3.06563
 Alpha virt. eigenvalues --    3.06932   3.07158   3.07425   3.07888   3.08125
 Alpha virt. eigenvalues --    3.08445   3.08717   3.09338   3.09547   3.09954
 Alpha virt. eigenvalues --    3.10124   3.10341   3.10852   3.10924   3.11129
 Alpha virt. eigenvalues --    3.11402   3.12178   3.12242   3.13275   3.13613
 Alpha virt. eigenvalues --    3.13968   3.14425   3.15058   3.15598   3.15977
 Alpha virt. eigenvalues --    3.16224   3.16905   3.17047   3.18000   3.18629
 Alpha virt. eigenvalues --    3.18908   3.19387   3.19589   3.20213   3.21033
 Alpha virt. eigenvalues --    3.21605   3.21680   3.22306   3.22445   3.23024
 Alpha virt. eigenvalues --    3.23814   3.24059   3.24852   3.25057   3.25596
 Alpha virt. eigenvalues --    3.26313   3.26716   3.27482   3.28368   3.29011
 Alpha virt. eigenvalues --    3.29331   3.29444   3.30609   3.30959   3.31404
 Alpha virt. eigenvalues --    3.32905   3.33270   3.34277   3.34890   3.35627
 Alpha virt. eigenvalues --    3.35938   3.36455   3.36861   3.37220   3.38045
 Alpha virt. eigenvalues --    3.38633   3.39374   3.40140   3.41055   3.42214
 Alpha virt. eigenvalues --    3.43035   3.43100   3.43866   3.46802   3.47230
 Alpha virt. eigenvalues --    3.48502   3.49838   3.50911   3.51598   3.52207
 Alpha virt. eigenvalues --    3.53648   3.54670   3.56465   3.58442   3.59059
 Alpha virt. eigenvalues --    3.60323   3.62163   3.64298   3.65203   3.66231
 Alpha virt. eigenvalues --    3.67184   3.67987   3.70416   3.72262   3.74858
 Alpha virt. eigenvalues --    3.76297   3.77144   3.79314   3.80130   3.81058
 Alpha virt. eigenvalues --    3.81435   3.83456   3.85380   3.86485   3.87722
 Alpha virt. eigenvalues --    3.88507   3.90724   3.91936   3.93253   3.94734
 Alpha virt. eigenvalues --    3.96383   3.99081   4.01589   4.03341   4.03838
 Alpha virt. eigenvalues --    4.07753   4.09461   4.11651   4.12233   4.15867
 Alpha virt. eigenvalues --    4.18146   4.19477   4.21308   4.25519   4.28831
 Alpha virt. eigenvalues --    4.33550   4.40248   4.40977   4.42709   4.45590
 Alpha virt. eigenvalues --    4.48360   4.49409   4.53527   4.57694   4.62617
 Alpha virt. eigenvalues --    4.64279   5.21026   5.23887   5.27656   5.67420
          Condensed to atoms (all electrons):
 Mulliken charges:
               1
     1  C    1.711956
     2  C    0.537341
     3  C   -0.298799
     4  C    1.359344
     5  H   -1.087320
     6  C    0.597845
     7  C    1.059320
     8  H   -0.879789
     9  C    0.292477
    10  C    0.657168
    11  H   -1.094111
    12  C    0.921844
    13  H   -0.994560
    14  H   -0.651644
    15  H   -0.757278
    16  C    0.680464
    17  C    0.730299
    18  C    0.366045
    19  C    1.094137
    20  H   -1.088094
    21  C    0.123056
    22  C    0.957994
    23  H   -0.878494
    24  C    0.434495
    25  C    0.807667
    26  H   -1.129305
    27  C    0.587023
    28  H   -0.950940
    29  H   -0.723485
    30  C    1.346642
    31  C    0.195865
    32  C   -0.143555
    33  C    2.151412
    34  H   -1.081403
    35  C   -0.594517
    36  C    1.495422
    37  H   -0.962472
    38  C    0.253411
    39  C    0.584119
    40  H   -0.994447
    41  C    0.618878
    42  H   -0.890849
    43  H   -0.690870
    44  C   -3.419605
    45  C    1.212854
    46  N    0.118406
    47  N   -0.530775
    48  H   -0.142498
    49  C   -0.339710
    50  C    2.140890
    51  N   -0.691300
    52  N   -0.718687
    53  C    1.315772
    54  C   -3.731244
    55  N   -0.622137
    56  H   -0.286025
    57  N   -0.120691
    58  C    1.642633
    59  C   -3.677800
    60  C    1.204134
    61  N   -0.044508
    62  C    1.888945
    63  N   -0.605550
    64  H   -0.134076
    65  C    1.328420
    66  C   -3.658867
    67  N   -0.492849
    68  H   -0.173730
    69  N   -0.085143
    70  H   -0.946656
    71  H    0.000651
    72  H   -0.194240
    73  H   -0.016093
    74  H   -0.300065
    75  H   -0.137295
    76  C    1.567713
    77  C    1.822662
    78  H   -0.278740
    79  H   -0.285575
    80  C    1.604772
    81  C    1.766487
    82  H    0.025929
    83  H    0.030469
    84  H   -0.157403
    85  C    1.570565
    86  C    1.625826
    87  H   -0.052561
    88  H   -0.053461
    89  H   -0.003058
    90  H   -0.045862
    91  H   -0.040586
    92  H    0.003213
    93  H   -0.152034
    94  H    0.031395
    95  H    0.074009
    96  H   -0.183856
    97  H    0.032989
    98  H    0.041940
    99  H   -0.091440
   100  H   -0.164723
   101  H   -0.054390
   102  H   -0.040739
   103  H   -0.023347
   104  H   -0.044046
   105  H   -0.032727
   106  H   -0.046289
   107  H   -0.049991
   108  H   -0.424375
   109  H   -1.112064
   110  C    0.300970
   111  H   -1.015430
   112  H   -0.209768
   113  H   -0.278943
   114  C    1.258387
   115  H   -0.022696
   116  H   -0.039911
   117  H   -0.308767
 Sum of Mulliken charges =   0.00000
 Mulliken charges with hydrogens summed into heavy atoms:
               1
     1  C    1.711956
     2  C   -0.114302
     3  C   -1.386119
     4  C    1.359344
     6  C   -0.281944
     7  C    1.059320
     9  C   -0.801634
    10  C   -0.337391
    12  C    0.164565
    16  C    0.680464
    17  C    0.536059
    18  C   -0.722049
    19  C    1.094137
    21  C   -0.755438
    22  C    0.957994
    24  C   -0.694810
    25  C   -0.143272
    27  C   -0.136462
    30  C    1.346642
    31  C   -0.750791
    32  C   -1.224958
    33  C    2.151412
    35  C   -1.556989
    36  C    1.495422
    38  C   -0.741035
    39  C   -0.306730
    41  C   -0.071992
    44  C   -3.419605
    45  C    0.770291
    46  N    0.118406
    47  N   -0.530775
    49  C   -0.339710
    50  C    0.604451
    51  N   -0.707393
    52  N   -0.718036
    53  C    0.892452
    54  C   -3.731244
    55  N   -0.622137
    57  N   -0.120691
    58  C    1.513627
    59  C   -3.677800
    60  C    0.791318
    61  N   -0.044508
    62  C    1.578392
    63  N   -0.605550
    65  C    0.869115
    66  C   -3.658867
    67  N   -0.492849
    69  N   -0.085143
    76  C    1.521083
    77  C    1.739427
    80  C    1.503767
    81  C    1.658356
    85  C    1.461484
    86  C    1.516899
   110  C   -1.203172
   114  C    0.887014
 Electronic spatial extent (au):  <R**2>=          37108.9315
 Charge=              0.0000 electrons
 Dipole moment (field-independent basis, Debye):
    X=              1.7913    Y=             -0.3979    Z=             -2.0389  Tot=              2.7430
 Quadrupole moment (field-independent basis, Debye-Ang):
   XX=           -349.9507   YY=           -346.9838   ZZ=           -320.0510
   XY=             -2.8871   XZ=            -17.0572   YZ=              5.2459
 Traceless Quadrupole moment (field-independent basis, Debye-Ang):
   XX=            -10.9555   YY=             -7.9887   ZZ=             18.9442
   XY=             -2.8871   XZ=            -17.0572   YZ=              5.2459
 Octapole moment (field-independent basis, Debye-Ang**2):
  XXX=             45.8561  YYY=             58.1644  ZZZ=            -56.0840  XYY=             13.7730
  XXY=            -51.1682  XXZ=              4.0144  XZZ=             15.2816  YZZ=            -60.5034
  YYZ=            -43.8605  XYZ=            -19.9637
 Hexadecapole moment (field-independent basis, Debye-Ang**3):
 XXXX=         -19315.8884 YYYY=         -17127.7935 ZZZZ=         -14778.4923 XXXY=             70.8004
 XXXZ=            -91.4884 YYYX=           -207.7109 YYYZ=            193.0049 ZZZX=           -315.0775
 ZZZY=            125.1460 XXYY=          -6052.1809 XXZZ=          -5661.6076 YYZZ=          -5198.1157
 XXYZ=             30.9307 YYXZ=           -272.0119 ZZXY=           -139.6221
 N-N= 8.493502063577D+03 E-N=-2.249077831440D+04  KE= 2.358985180191D+03
 Leave Link  601 at Thu Nov  4 06:15:55 2021, MaxMem=  7864320000 cpu:              79.3 elap:               3.0
 (Enter /apps/gaussian/g16-c01-avx/g16/l9999.exe)
 Unable to Open any file for archive entry.
 1\1\GINC-CX3-12-20\SP\RMP2-FC\Aug-CC-pVDZ\C47H60N10\ATARZIA\04-Nov-202
 1\0\\#P MP2/aug-cc-pVDZ SP SCF=(YQC,MaxCycle=900) int=(Grid=Superfineg
 rid)\\_3_alde1_5_ami2_1_opt_gas_mp2\\0,1\C,0,-3.5783,-1.7631,-1.1263\C
 ,0,-4.4619,-0.8438,-0.4249\C,0,-3.0545,-2.8938,-0.5046\C,0,-2.1457,-3.
 7092,-1.1735\H,0,-3.354,-3.1404,0.5006\C,0,-1.7306,-3.363,-2.4583\C,0,
 -2.2515,-2.2411,-3.0953\H,0,-1.004,-3.9823,-2.9661\C,0,-3.1947,-1.4628
 ,-2.4299\C,0,-1.7652,-1.847,-4.4132\H,0,-3.5957,-0.6034,-2.9434\C,0,-1
 .602,-4.9055,-0.5483\H,0,-0.8508,-2.3619,-4.7331\H,0,-4.9333,-0.0734,-
 1.0544\H,0,-0.7966,-5.4074,-1.1064\C,0,3.0826,-2.8636,-0.8295\C,0,3.68
 8,-3.3913,-2.1159\C,0,3.4466,-1.6169,-0.3483\C,0,2.8582,-1.1036,0.8071
 \H,0,4.1762,-1.0228,-0.8736\C,0,1.9018,-1.8595,1.4775\C,0,1.5682,-3.13
 42,1.0312\H,0,1.4312,-1.4628,2.3673\C,0,2.1651,-3.6293,-0.1269\C,0,0.5
 956,-3.9281,1.7739\H,0,1.8895,-4.6093,-0.4806\C,0,3.2191,0.2161,1.2981
 \H,0,-0.0241,-3.3546,2.4746\H,0,2.6092,0.5987,2.1327\C,0,-1.4509,1.865
 7,-0.1995\C,0,-2.2548,1.6244,0.9947\C,0,-2.0258,1.7627,-1.4647\C,0,-1.
 246,1.8511,-2.6121\H,0,-3.087,1.5809,-1.5258\C,0,0.1228,2.0861,-2.4894
 \C,0,0.7006,2.253,-1.2362\H,0,0.7176,2.1487,-3.3876\C,0,-0.0894,2.125,
 -0.0945\C,0,2.1292,2.5302,-1.1223\H,0,0.3855,2.231,0.869\C,0,-1.8677,1
 .6414,-3.9099\H,0,2.7071,2.3345,-2.0322\H,0,-2.9679,1.6242,-3.9047\C,0
 ,-4.3668,1.2024,2.0319\C,0,-5.3756,0.1782,1.4332\N,0,-3.5101,1.5513,0.
 93\N,0,-4.6395,-0.8824,0.8237\H,0,-6.014,0.7093,0.7103\C,0,2.9232,-1.9
 904,-3.846\C,0,1.9201,-3.1428,-3.5252\N,0,4.076,-2.2815,-2.9837\N,0,2.
 6836,-4.1705,-2.8372\C,0,-1.4008,-6.4843,1.1362\C,0,-0.4503,-6.0106,2.
 2725\N,0,-2.034,-5.3489,0.551\H,0,-2.1735,-7.1231,1.5697\N,0,0.5169,-5
 .175,1.6157\C,0,0.3152,-7.2215,2.8169\C,0,-1.8848,-0.4368,-6.3402\C,0,
 -1.9257,1.1091,-6.1553\N,0,-2.3546,-0.9621,-5.0873\C,0,-0.4757,-0.8582
 ,-6.7672\N,0,-1.2064,1.4554,-4.9697\H,0,-2.9806,1.4182,-6.1023\C,0,4.4
 22,2.2032,1.2752\C,0,4.0171,3.2124,0.1651\N,0,4.1729,0.8801,0.8079\H,0
 ,3.8556,2.4415,2.19\N,0,2.616,2.9717,-0.0482\H,0,-1.6722,1.4827,1.9133
 \H,0,3.1429,-4.7734,-3.5152\H,0,4.5542,-4.0141,-1.8643\H,0,4.8904,-2.5
 177,-3.5384\H,0,-5.9882,-0.2344,2.237\H,0,-0.8051,-7.0553,0.4074\C,0,-
 1.2777,-5.3619,3.3865\C,0,-2.9038,-0.8382,-7.413\H,0,-1.4423,1.5851,-7
 .0107\H,0,5.4928,2.3055,1.4671\C,0,4.9359,3.0266,-1.0456\C,0,4.1415,4.
 6377,0.7143\H,0,4.6206,3.6665,-1.8679\H,0,4.9289,1.9876,-1.3649\H,0,5.
 9518,3.2963,-0.7697\C,0,-5.126,2.4689,2.4441\C,0,-3.6748,0.5792,3.2476
 \H,0,-5.5685,2.9403,1.5704\H,0,-4.4408,3.1761,2.9067\H,0,-5.9122,2.222
 2,3.153\H,0,-3.9102,-0.6037,-7.0766\H,0,-2.8435,-1.9087,-7.5972\H,0,-2
 .7041,-0.3076,-8.3404\H,0,-1.9017,-6.1177,3.8559\H,0,-1.9232,-4.5889,2
 .9775\H,0,-0.6255,-4.9323,4.145\H,0,-4.4219,0.3014,3.9862\H,0,-2.9865,
 1.2843,3.7096\H,0,-3.1341,-0.3143,2.9446\H,0,0.2472,-0.5342,-6.0222\H,
 0,-0.2307,-0.3897,-7.7169\H,0,-0.4133,-1.9377,-6.8935\H,0,3.9088,5.355
 1,-0.0694\H,0,5.1514,4.8205,1.0725\H,0,3.4402,4.7825,1.5316\H,0,-0.375
 7,-7.9879,3.1589\H,0,0.943,-6.9141,3.6501\H,0,0.9533,-7.6342,2.0404\H,
 0,1.4435,-3.5415,-4.4201\H,0,1.1535,-2.7769,-2.8368\C,0,2.3343,-0.6292
 ,-3.4729\H,0,1.4128,-0.4455,-4.021\H,0,3.0487,0.1558,-3.7083\H,0,2.118
 3,-0.593,-2.4084\C,0,3.3283,-2.0031,-5.3206\H,0,3.7038,-2.9844,-5.612\
 H,0,4.109,-1.2665,-5.5009\H,0,2.4762,-1.7601,-5.9509\\Version=ES64L-G1
 6RevC.01\State=1-A\HF=-2359.3958915\MP2=-2367.7731212\RMSD=4.893e-09\P
 G=C01 [X(C47H60N10)]\\@
 The archive entry for this job was punched.


 There was a great rattling of the words for the fewness of ideas.
                   -- Charles Baxter in Gryphon
 Job cpu time:      46 days  9 hours 33 minutes  7.3 seconds.
 Elapsed time:       1 days 11 hours 24 minutes 21.1 seconds.
 File lengths (MBytes):  RWF=7853728 Int=      0 D2E=      0 Chk=    232 Scr=     16
 Normal termination of Gaussian 16 at Thu Nov  4 06:15:57 2021.
