 Entering Gaussian System, Link 0=g16
 Initial command:
 /apps/gaussian/g16-c01-avx/g16/l1.exe "/rds/general/ephemeral/user/atarzia/ephemeral/Gau-3442970.inp" -scrdir="/rds/general/ephemeral/user/atarzia/ephemeral/"
 Entering Link 1 = /apps/gaussian/g16-c01-avx/g16/l1.exe PID=   3442971.
  
 Copyright (c) 1988-2019, Gaussian, Inc.  All Rights Reserved.
  
 This is part of the Gaussian(R) 16 program.  It is based on
 the Gaussian(R) 09 system (copyright 2009, Gaussian, Inc.),
 the Gaussian(R) 03 system (copyright 2003, Gaussian, Inc.),
 the Gaussian(R) 98 system (copyright 1998, Gaussian, Inc.),
 the Gaussian(R) 94 system (copyright 1995, Gaussian, Inc.),
 the Gaussian 92(TM) system (copyright 1992, Gaussian, Inc.),
 the Gaussian 90(TM) system (copyright 1990, Gaussian, Inc.),
 the Gaussian 88(TM) system (copyright 1988, Gaussian, Inc.),
 the Gaussian 86(TM) system (copyright 1986, Carnegie Mellon
 University), and the Gaussian 82(TM) system (copyright 1983,
 Carnegie Mellon University). Gaussian is a federally registered
 trademark of Gaussian, Inc.
  
 This software contains proprietary and confidential information,
 including trade secrets, belonging to Gaussian, Inc.
  
 This software is provided under written license and may be
 used, copied, transmitted, or stored only in accord with that
 written license.
  
 The following legend is applicable only to US Government
 contracts under FAR:
  
                    RESTRICTED RIGHTS LEGEND
  
 Use, reproduction and disclosure by the US Government is
 subject to restrictions as set forth in subparagraphs (a)
 and (c) of the Commercial Computer Software - Restricted
 Rights clause in FAR 52.227-19.
  
 Gaussian, Inc.
 340 Quinnipiac St., Bldg. 40, Wallingford CT 06492
  
  
 ---------------------------------------------------------------
 Warning -- This program may not be used in any manner that
 competes with the business of Gaussian, Inc. or will provide
 assistance to any competitor of Gaussian, Inc.  The licensee
 of this program is prohibited from giving any competitor of
 Gaussian, Inc. access to this program.  By using this program,
 the user acknowledges that Gaussian, Inc. is engaged in the
 business of creating and licensing software in the field of
 computational chemistry and represents and warrants to the
 licensee that it is not a competitor of Gaussian, Inc. and that
 it will not use this program in any manner prohibited above.
 ---------------------------------------------------------------
  

 Cite this work as:
 Gaussian 16, Revision C.01,
 M. J. Frisch, G. W. Trucks, H. B. Schlegel, G. E. Scuseria, 
 M. A. Robb, J. R. Cheeseman, G. Scalmani, V. Barone, 
 G. A. Petersson, H. Nakatsuji, X. Li, M. Caricato, A. V. Marenich, 
 J. Bloino, B. G. Janesko, R. Gomperts, B. Mennucci, H. P. Hratchian, 
 J. V. Ortiz, A. F. Izmaylov, J. L. Sonnenberg, D. Williams-Young, 
 F. Ding, F. Lipparini, F. Egidi, J. Goings, B. Peng, A. Petrone, 
 T. Henderson, D. Ranasinghe, V. G. Zakrzewski, J. Gao, N. Rega, 
 G. Zheng, W. Liang, M. Hada, M. Ehara, K. Toyota, R. Fukuda, 
 J. Hasegawa, M. Ishida, T. Nakajima, Y. Honda, O. Kitao, H. Nakai, 
 T. Vreven, K. Throssell, J. A. Montgomery, Jr., J. E. Peralta, 
 F. Ogliaro, M. J. Bearpark, J. J. Heyd, E. N. Brothers, K. N. Kudin, 
 V. N. Staroverov, T. A. Keith, R. Kobayashi, J. Normand, 
 K. Raghavachari, A. P. Rendell, J. C. Burant, S. S. Iyengar, 
 J. Tomasi, M. Cossi, J. M. Millam, M. Klene, C. Adamo, R. Cammi, 
 J. W. Ochterski, R. L. Martin, K. Morokuma, O. Farkas, 
 J. B. Foresman, and D. J. Fox, Gaussian, Inc., Wallingford CT, 2019.
 
 ******************************************
 Gaussian 16:  ES64L-G16RevC.01  3-Jul-2019
                18-Oct-2021 
 ******************************************
 %chk=_3_alde1_6_ami2_1_opt_gas.chk
 %mem=60000mb
 %nprocshared=32
 Will use up to   32 processors via shared memory.
 ----------------------------------------------------------------------
 #P PBE1PBE/Def2TZVP SP SCF=(YQC,MaxCycle=900) int=(Grid=Superfinegrid)
  EmpiricalDispersion=GD3
 ----------------------------------------------------------------------
 1/38=1,172=1/1;
 2/12=2,17=6,18=5,40=1/2;
 3/5=44,7=101,11=2,25=1,30=1,74=-13,75=-7,124=31/1,2,3;
 4//1;
 5/5=2,7=900,8=4,13=1,38=1/8,2,8;
 6/7=2,8=2,9=2,10=2,28=1/1;
 99/5=1,9=1/99;
 Leave Link    1 at Mon Oct 18 18:15:17 2021, MaxMem=  7864320000 cpu:               4.4 elap:               0.1
 (Enter /apps/gaussian/g16-c01-avx/g16/l101.exe)
 -------------------------
 _3_alde1_6_ami2_1_opt_gas
 -------------------------
 Symbolic Z-matrix:
 Charge =  0 Multiplicity = 1
 C                    -3.9845   -1.337     0.0777 
 C                    -4.6071   -2.0069    1.2762 
 C                    -3.1511   -2.0606   -0.7595 
 C                    -2.5702   -1.4688   -1.8805 
 H                    -2.9213   -3.0951   -0.5601 
 C                    -2.8237   -0.1289   -2.15 
 C                    -3.6465    0.6143   -1.3094 
 H                    -2.3889    0.3625   -3.0072 
 C                    -4.2208    0.0016   -0.1971 
 C                    -3.8931    2.0294   -1.566 
 H                    -4.8662    0.577     0.4523 
 C                    -1.7339   -2.2553   -2.7812 
 H                    -4.2554    2.5907   -0.6968 
 H                    -1.272    -1.686    -3.5964 
 C                     4.0834   -1.5185    0.6948 
 C                     4.4814   -1.2991    2.1261 
 C                     4.6836   -0.8197   -0.3401 
 C                     4.2498   -0.9914   -1.6563 
 H                     5.4943   -0.1359   -0.1463 
 C                     3.2256   -1.8895   -1.9268 
 C                     2.6541   -2.641    -0.9025 
 H                     2.8714   -2.0412   -2.9349 
 C                     3.0857   -2.4411    0.4063 
 C                     1.6316   -3.6362   -1.1895 
 H                     2.6543   -3.0076    1.2174 
 C                     4.8247   -0.2087   -2.7441 
 H                     1.2064   -4.1546   -0.3161 
 H                     4.2279   -0.212    -3.6643 
 C                     1.1378    2.1664    0.2509 
 C                     0.7395    1.6341    1.6106 
 C                     0.1999    2.6348   -0.6535 
 C                     0.5922    3.0525   -1.9258 
 H                    -0.8427    2.676    -0.3843 
 C                     1.9344    3.0146   -2.2817 
 C                     2.8923    2.5962   -1.3615 
 H                     2.2636    3.3354   -3.2582 
 C                     2.4797    2.1632   -0.104 
 C                     4.3087    2.5907   -1.6831 
 H                     3.2184    1.8172    0.6057 
 C                    -0.4085    3.5061   -2.885 
 H                     4.9745    2.3075   -0.8542 
 H                    -0.1471    3.3687   -3.9471 
 C                    -5.4204   -4.0057    2.0583 
 C                    -3.9981   -3.8612    2.66 
 N                    -5.4504   -3.1267    0.9028 
 H                    -5.6667   -5.0287    1.7815 
 N                    -3.5601   -2.5514    2.1617 
 C                    -4.015    -3.9195    4.1853 
 C                    -3.056    -4.9347    2.1036 
 C                     3.8559   -0.8461    4.2683 
 C                     4.8483    0.2776    3.8159 
 N                     3.3624   -1.468     3.0528 
 H                     3.037    -0.4585    4.8723 
 N                     5.0541    0.0212    2.3851 
 C                     6.1902    0.155     4.5382 
 C                     4.2505    1.6644    4.0404 
 C                    -0.2101   -0.5073    2.0429 
 C                    -1.2863    0.5184    1.62 
 N                     1.0455    0.1877    1.7125 
 C                    -0.3541   -1.8279    1.3024 
 C                    -0.2485   -0.7484    3.5562 
 N                    -0.6823    1.8167    1.868 
 H                    -2.2269    0.4089    2.1554 
 C                    -0.8519   -4.3641   -3.4794 
 C                     0.3091   -4.9197   -2.6181 
 N                    -1.6086   -3.4983   -2.617 
 C                    -1.7961   -5.521    -3.8345 
 C                    -0.2877   -3.7366   -4.7572 
 N                     1.2829   -3.9098   -2.3702 
 H                     0.8033   -5.7116   -3.19 
 H                     0.2005   -4.5058   -5.3493 
 C                    -3.8673    3.9244   -3.0087 
 C                    -2.4723    4.4013   -3.4875 
 N                    -3.6985    2.5275   -2.7054 
 C                    -4.858     4.0095   -4.1753 
 C                    -4.3297    4.8191   -1.854 
 N                    -1.4941    4.0265   -2.5177 
 H                    -2.4867    5.4932   -3.5596 
 H                    -5.2804    4.4734   -1.4523 
 C                     6.4429    1.3022   -3.6051 
 C                     6.1611    2.7338   -3.0491 
 N                     5.9134    0.4125   -2.6103 
 C                     7.957     1.0762   -3.6458 
 C                     5.8503    1.1867   -5.0135 
 N                     4.7602    2.8899   -2.8254 
 H                     6.4789    3.4663   -3.7934 
 H                     2.5664   -0.9356    2.6938 
 H                     5.2462   -2.0416    2.4114 
 H                     4.5504    0.7134    1.8379 
 H                    -0.8302    2.0879    2.8334 
 H                     1.3961   -0.1476    0.8188 
 H                     1.3238    2.1722    2.3736 
 H                    -3.3495   -1.9117    2.9169 
 H                    -5.0464   -3.5942    0.0968 
 H                    -5.2417   -1.2809    1.8157 
 H                     4.3938   -1.6039    4.8465 
 H                     4.1436    1.8622    5.1047 
 H                     3.2681    1.7341    3.5739 
 H                     4.8969    2.4277    3.6108 
 H                    -6.1655   -3.645     2.7758 
 H                    -3.0708   -4.9258    1.0166 
 H                    -3.3551   -5.9202    2.4525 
 H                    -2.0381   -4.7377    2.4306 
 H                    -1.4781    0.4205    0.5472 
 H                    -0.1679    0.1902    4.101 
 H                     0.5819   -1.3856    3.8497 
 H                    -1.1791   -1.2377    3.8323 
 H                    -0.104    -5.3478   -1.6901 
 H                    -1.087    -3.2957   -5.3501 
 H                     0.4485   -2.9765   -4.5108 
 H                    -2.2532    3.9837   -4.483 
 H                    -4.4632    5.8348   -2.2176 
 H                    -3.5795    4.8269   -1.0672 
 H                     6.7456    2.8562   -2.1257 
 H                     6.8625    0.9417    4.2058 
 H                     6.6482   -0.8039    4.3113 
 H                     6.0515    0.2372    5.6136 
 H                    -3.0065   -3.8048    4.5781 
 H                    -4.409    -4.8764    4.5194 
 H                    -4.6426   -3.1283    4.5935 
 H                     0.3953   -2.5327    1.6529 
 H                    -0.2302   -1.6865    0.2294 
 H                    -1.3451   -2.2397    1.482 
 H                    -1.2677   -6.286    -4.3974 
 H                    -2.623    -5.1485   -4.4348 
 H                    -2.201    -5.9609   -2.9271 
 H                     5.902     0.1572   -5.364 
 H                     6.4201    1.8133   -5.6946 
 H                     4.8166    1.523    -5.0213 
 H                     8.3553    1.066    -2.635 
 H                     8.4462    1.8613   -4.2167 
 H                     8.1713    0.116    -4.1092 
 H                    -4.8849    5.0194   -4.5769 
 H                    -5.8544    3.7378   -3.8342 
 H                    -4.5641    3.319    -4.9613 
 
 ITRead=  0  0  0  0  0  0  0  0  0  0  0  0  0  0  0  0  0  0  0  0
 ITRead=  0  0  0  0  0  0  0  0  0  0  0  0  0  0  0  0  0  0  0  0
 ITRead=  0  0  0  0  0  0  0  0  0  0  0  0  0  0  0  0  0  0  0  0
 ITRead=  0  0  0  0  0  0  0  0  0  0  0  0  0  0  0  0  0  0  0  0
 ITRead=  0  0  0  0  0  0  0  0  0  0  0  0  0  0  0  0  0  0  0  0
 ITRead=  0  0  0  0  0  0  0  0  0  0  0  0  0  0  0  0  0  0  0  0
 ITRead=  0  0  0  0  0  0  0  0  0  0  0  0  0  0  0
 MicOpt= -1 -1 -1 -1 -1 -1 -1 -1 -1 -1 -1 -1 -1 -1 -1 -1 -1 -1 -1 -1
 MicOpt= -1 -1 -1 -1 -1 -1 -1 -1 -1 -1 -1 -1 -1 -1 -1 -1 -1 -1 -1 -1
 MicOpt= -1 -1 -1 -1 -1 -1 -1 -1 -1 -1 -1 -1 -1 -1 -1 -1 -1 -1 -1 -1
 MicOpt= -1 -1 -1 -1 -1 -1 -1 -1 -1 -1 -1 -1 -1 -1 -1 -1 -1 -1 -1 -1
 MicOpt= -1 -1 -1 -1 -1 -1 -1 -1 -1 -1 -1 -1 -1 -1 -1 -1 -1 -1 -1 -1
 MicOpt= -1 -1 -1 -1 -1 -1 -1 -1 -1 -1 -1 -1 -1 -1 -1 -1 -1 -1 -1 -1
 MicOpt= -1 -1 -1 -1 -1 -1 -1 -1 -1 -1 -1 -1 -1 -1 -1
 NAtoms=    135 NQM=      135 NQMF=       0 NMMI=      0 NMMIF=      0
                NMic=       0 NMicF=      0.
                    Isotopes and Nuclear Properties:
 (Nuclear quadrupole moments (NQMom) in fm**2, nuclear magnetic moments (NMagM)
  in nuclear magnetons)

  Atom         1           2           3           4           5           6           7           8           9          10
 IAtWgt=          12          12          12          12           1          12          12           1          12          12
 AtmWgt=  12.0000000  12.0000000  12.0000000  12.0000000   1.0078250  12.0000000  12.0000000   1.0078250  12.0000000  12.0000000
 NucSpn=           0           0           0           0           1           0           0           1           0           0
 AtZEff=  -0.0000000  -0.0000000  -0.0000000  -0.0000000  -0.0000000  -0.0000000  -0.0000000  -0.0000000  -0.0000000  -0.0000000
 NQMom=    0.0000000   0.0000000   0.0000000   0.0000000   0.0000000   0.0000000   0.0000000   0.0000000   0.0000000   0.0000000
 NMagM=    0.0000000   0.0000000   0.0000000   0.0000000   2.7928460   0.0000000   0.0000000   2.7928460   0.0000000   0.0000000
 AtZNuc=   6.0000000   6.0000000   6.0000000   6.0000000   1.0000000   6.0000000   6.0000000   1.0000000   6.0000000   6.0000000

  Atom        11          12          13          14          15          16          17          18          19          20
 IAtWgt=           1          12           1           1          12          12          12          12           1          12
 AtmWgt=   1.0078250  12.0000000   1.0078250   1.0078250  12.0000000  12.0000000  12.0000000  12.0000000   1.0078250  12.0000000
 NucSpn=           1           0           1           1           0           0           0           0           1           0
 AtZEff=  -0.0000000  -0.0000000  -0.0000000  -0.0000000  -0.0000000  -0.0000000  -0.0000000  -0.0000000  -0.0000000  -0.0000000
 NQMom=    0.0000000   0.0000000   0.0000000   0.0000000   0.0000000   0.0000000   0.0000000   0.0000000   0.0000000   0.0000000
 NMagM=    2.7928460   0.0000000   2.7928460   2.7928460   0.0000000   0.0000000   0.0000000   0.0000000   2.7928460   0.0000000
 AtZNuc=   1.0000000   6.0000000   1.0000000   1.0000000   6.0000000   6.0000000   6.0000000   6.0000000   1.0000000   6.0000000

  Atom        21          22          23          24          25          26          27          28          29          30
 IAtWgt=          12           1          12          12           1          12           1           1          12          12
 AtmWgt=  12.0000000   1.0078250  12.0000000  12.0000000   1.0078250  12.0000000   1.0078250   1.0078250  12.0000000  12.0000000
 NucSpn=           0           1           0           0           1           0           1           1           0           0
 AtZEff=  -0.0000000  -0.0000000  -0.0000000  -0.0000000  -0.0000000  -0.0000000  -0.0000000  -0.0000000  -0.0000000  -0.0000000
 NQMom=    0.0000000   0.0000000   0.0000000   0.0000000   0.0000000   0.0000000   0.0000000   0.0000000   0.0000000   0.0000000
 NMagM=    0.0000000   2.7928460   0.0000000   0.0000000   2.7928460   0.0000000   2.7928460   2.7928460   0.0000000   0.0000000
 AtZNuc=   6.0000000   1.0000000   6.0000000   6.0000000   1.0000000   6.0000000   1.0000000   1.0000000   6.0000000   6.0000000

  Atom        31          32          33          34          35          36          37          38          39          40
 IAtWgt=          12          12           1          12          12           1          12          12           1          12
 AtmWgt=  12.0000000  12.0000000   1.0078250  12.0000000  12.0000000   1.0078250  12.0000000  12.0000000   1.0078250  12.0000000
 NucSpn=           0           0           1           0           0           1           0           0           1           0
 AtZEff=  -0.0000000  -0.0000000  -0.0000000  -0.0000000  -0.0000000  -0.0000000  -0.0000000  -0.0000000  -0.0000000  -0.0000000
 NQMom=    0.0000000   0.0000000   0.0000000   0.0000000   0.0000000   0.0000000   0.0000000   0.0000000   0.0000000   0.0000000
 NMagM=    0.0000000   0.0000000   2.7928460   0.0000000   0.0000000   2.7928460   0.0000000   0.0000000   2.7928460   0.0000000
 AtZNuc=   6.0000000   6.0000000   1.0000000   6.0000000   6.0000000   1.0000000   6.0000000   6.0000000   1.0000000   6.0000000

  Atom        41          42          43          44          45          46          47          48          49          50
 IAtWgt=           1           1          12          12          14           1          14          12          12          12
 AtmWgt=   1.0078250   1.0078250  12.0000000  12.0000000  14.0030740   1.0078250  14.0030740  12.0000000  12.0000000  12.0000000
 NucSpn=           1           1           0           0           2           1           2           0           0           0
 AtZEff=  -0.0000000  -0.0000000  -0.0000000  -0.0000000  -0.0000000  -0.0000000  -0.0000000  -0.0000000  -0.0000000  -0.0000000
 NQMom=    0.0000000   0.0000000   0.0000000   0.0000000   2.0440000   0.0000000   2.0440000   0.0000000   0.0000000   0.0000000
 NMagM=    2.7928460   2.7928460   0.0000000   0.0000000   0.4037610   2.7928460   0.4037610   0.0000000   0.0000000   0.0000000
 AtZNuc=   1.0000000   1.0000000   6.0000000   6.0000000   7.0000000   1.0000000   7.0000000   6.0000000   6.0000000   6.0000000

  Atom        51          52          53          54          55          56          57          58          59          60
 IAtWgt=          12          14           1          14          12          12          12          12          14          12
 AtmWgt=  12.0000000  14.0030740   1.0078250  14.0030740  12.0000000  12.0000000  12.0000000  12.0000000  14.0030740  12.0000000
 NucSpn=           0           2           1           2           0           0           0           0           2           0
 AtZEff=  -0.0000000  -0.0000000  -0.0000000  -0.0000000  -0.0000000  -0.0000000  -0.0000000  -0.0000000  -0.0000000  -0.0000000
 NQMom=    0.0000000   2.0440000   0.0000000   2.0440000   0.0000000   0.0000000   0.0000000   0.0000000   2.0440000   0.0000000
 NMagM=    0.0000000   0.4037610   2.7928460   0.4037610   0.0000000   0.0000000   0.0000000   0.0000000   0.4037610   0.0000000
 AtZNuc=   6.0000000   7.0000000   1.0000000   7.0000000   6.0000000   6.0000000   6.0000000   6.0000000   7.0000000   6.0000000

  Atom        61          62          63          64          65          66          67          68          69          70
 IAtWgt=          12          14           1          12          12          14          12          12          14           1
 AtmWgt=  12.0000000  14.0030740   1.0078250  12.0000000  12.0000000  14.0030740  12.0000000  12.0000000  14.0030740   1.0078250
 NucSpn=           0           2           1           0           0           2           0           0           2           1
 AtZEff=  -0.0000000  -0.0000000  -0.0000000  -0.0000000  -0.0000000  -0.0000000  -0.0000000  -0.0000000  -0.0000000  -0.0000000
 NQMom=    0.0000000   2.0440000   0.0000000   0.0000000   0.0000000   2.0440000   0.0000000   0.0000000   2.0440000   0.0000000
 NMagM=    0.0000000   0.4037610   2.7928460   0.0000000   0.0000000   0.4037610   0.0000000   0.0000000   0.4037610   2.7928460
 AtZNuc=   6.0000000   7.0000000   1.0000000   6.0000000   6.0000000   7.0000000   6.0000000   6.0000000   7.0000000   1.0000000

  Atom        71          72          73          74          75          76          77          78          79          80
 IAtWgt=           1          12          12          14          12          12          14           1           1          12
 AtmWgt=   1.0078250  12.0000000  12.0000000  14.0030740  12.0000000  12.0000000  14.0030740   1.0078250   1.0078250  12.0000000
 NucSpn=           1           0           0           2           0           0           2           1           1           0
 AtZEff=  -0.0000000  -0.0000000  -0.0000000  -0.0000000  -0.0000000  -0.0000000  -0.0000000  -0.0000000  -0.0000000  -0.0000000
 NQMom=    0.0000000   0.0000000   0.0000000   2.0440000   0.0000000   0.0000000   2.0440000   0.0000000   0.0000000   0.0000000
 NMagM=    2.7928460   0.0000000   0.0000000   0.4037610   0.0000000   0.0000000   0.4037610   2.7928460   2.7928460   0.0000000
 AtZNuc=   1.0000000   6.0000000   6.0000000   7.0000000   6.0000000   6.0000000   7.0000000   1.0000000   1.0000000   6.0000000

  Atom        81          82          83          84          85          86          87          88          89          90
 IAtWgt=          12          14          12          12          14           1           1           1           1           1
 AtmWgt=  12.0000000  14.0030740  12.0000000  12.0000000  14.0030740   1.0078250   1.0078250   1.0078250   1.0078250   1.0078250
 NucSpn=           0           2           0           0           2           1           1           1           1           1
 AtZEff=  -0.0000000  -0.0000000  -0.0000000  -0.0000000  -0.0000000  -0.0000000  -0.0000000  -0.0000000  -0.0000000  -0.0000000
 NQMom=    0.0000000   2.0440000   0.0000000   0.0000000   2.0440000   0.0000000   0.0000000   0.0000000   0.0000000   0.0000000
 NMagM=    0.0000000   0.4037610   0.0000000   0.0000000   0.4037610   2.7928460   2.7928460   2.7928460   2.7928460   2.7928460
 AtZNuc=   6.0000000   7.0000000   6.0000000   6.0000000   7.0000000   1.0000000   1.0000000   1.0000000   1.0000000   1.0000000

  Atom        91          92          93          94          95          96          97          98          99         100
 IAtWgt=           1           1           1           1           1           1           1           1           1           1
 AtmWgt=   1.0078250   1.0078250   1.0078250   1.0078250   1.0078250   1.0078250   1.0078250   1.0078250   1.0078250   1.0078250
 NucSpn=           1           1           1           1           1           1           1           1           1           1
 AtZEff=  -0.0000000  -0.0000000  -0.0000000  -0.0000000  -0.0000000  -0.0000000  -0.0000000  -0.0000000  -0.0000000  -0.0000000
 NQMom=    0.0000000   0.0000000   0.0000000   0.0000000   0.0000000   0.0000000   0.0000000   0.0000000   0.0000000   0.0000000
 NMagM=    2.7928460   2.7928460   2.7928460   2.7928460   2.7928460   2.7928460   2.7928460   2.7928460   2.7928460   2.7928460
 AtZNuc=   1.0000000   1.0000000   1.0000000   1.0000000   1.0000000   1.0000000   1.0000000   1.0000000   1.0000000   1.0000000

  Atom       101         102         103         104         105         106         107         108         109         110
 IAtWgt=           1           1           1           1           1           1           1           1           1           1
 AtmWgt=   1.0078250   1.0078250   1.0078250   1.0078250   1.0078250   1.0078250   1.0078250   1.0078250   1.0078250   1.0078250
 NucSpn=           1           1           1           1           1           1           1           1           1           1
 AtZEff=  -0.0000000  -0.0000000  -0.0000000  -0.0000000  -0.0000000  -0.0000000  -0.0000000  -0.0000000  -0.0000000  -0.0000000
 NQMom=    0.0000000   0.0000000   0.0000000   0.0000000   0.0000000   0.0000000   0.0000000   0.0000000   0.0000000   0.0000000
 NMagM=    2.7928460   2.7928460   2.7928460   2.7928460   2.7928460   2.7928460   2.7928460   2.7928460   2.7928460   2.7928460
 AtZNuc=   1.0000000   1.0000000   1.0000000   1.0000000   1.0000000   1.0000000   1.0000000   1.0000000   1.0000000   1.0000000

  Atom       111         112         113         114         115         116         117         118         119         120
 IAtWgt=           1           1           1           1           1           1           1           1           1           1
 AtmWgt=   1.0078250   1.0078250   1.0078250   1.0078250   1.0078250   1.0078250   1.0078250   1.0078250   1.0078250   1.0078250
 NucSpn=           1           1           1           1           1           1           1           1           1           1
 AtZEff=  -0.0000000  -0.0000000  -0.0000000  -0.0000000  -0.0000000  -0.0000000  -0.0000000  -0.0000000  -0.0000000  -0.0000000
 NQMom=    0.0000000   0.0000000   0.0000000   0.0000000   0.0000000   0.0000000   0.0000000   0.0000000   0.0000000   0.0000000
 NMagM=    2.7928460   2.7928460   2.7928460   2.7928460   2.7928460   2.7928460   2.7928460   2.7928460   2.7928460   2.7928460
 AtZNuc=   1.0000000   1.0000000   1.0000000   1.0000000   1.0000000   1.0000000   1.0000000   1.0000000   1.0000000   1.0000000

  Atom       121         122         123         124         125         126         127         128         129         130
 IAtWgt=           1           1           1           1           1           1           1           1           1           1
 AtmWgt=   1.0078250   1.0078250   1.0078250   1.0078250   1.0078250   1.0078250   1.0078250   1.0078250   1.0078250   1.0078250
 NucSpn=           1           1           1           1           1           1           1           1           1           1
 AtZEff=  -0.0000000  -0.0000000  -0.0000000  -0.0000000  -0.0000000  -0.0000000  -0.0000000  -0.0000000  -0.0000000  -0.0000000
 NQMom=    0.0000000   0.0000000   0.0000000   0.0000000   0.0000000   0.0000000   0.0000000   0.0000000   0.0000000   0.0000000
 NMagM=    2.7928460   2.7928460   2.7928460   2.7928460   2.7928460   2.7928460   2.7928460   2.7928460   2.7928460   2.7928460
 AtZNuc=   1.0000000   1.0000000   1.0000000   1.0000000   1.0000000   1.0000000   1.0000000   1.0000000   1.0000000   1.0000000

  Atom       131         132         133         134         135
 IAtWgt=           1           1           1           1           1
 AtmWgt=   1.0078250   1.0078250   1.0078250   1.0078250   1.0078250
 NucSpn=           1           1           1           1           1
 AtZEff=  -0.0000000  -0.0000000  -0.0000000  -0.0000000  -0.0000000
 NQMom=    0.0000000   0.0000000   0.0000000   0.0000000   0.0000000
 NMagM=    2.7928460   2.7928460   2.7928460   2.7928460   2.7928460
 AtZNuc=   1.0000000   1.0000000   1.0000000   1.0000000   1.0000000
 Leave Link  101 at Mon Oct 18 18:15:17 2021, MaxMem=  7864320000 cpu:               2.7 elap:               0.1
 (Enter /apps/gaussian/g16-c01-avx/g16/l202.exe)
 Stoichiometry    C51H72N12
 Framework group  C1[X(C51H72N12)]
 Deg. of freedom   399
 Full point group                 C1      NOp   1
 Largest Abelian subgroup         C1      NOp   1
 Largest concise Abelian subgroup C1      NOp   1
                         Standard orientation:                         
 ---------------------------------------------------------------------
 Center     Atomic      Atomic             Coordinates (Angstroms)
 Number     Number       Type             X           Y           Z
 ---------------------------------------------------------------------
      1          6           0        4.601102   -0.057915   -0.219484
      2          6           0        5.467600   -1.197569   -0.691892
      3          6           0        3.919302   -0.163855    0.981758
      4          6           0        3.119191    0.878888    1.447400
      5          1           0        3.980413   -1.058114    1.581195
      6          6           0        2.996649    2.034451    0.684588
      7          6           0        3.663455    2.148776   -0.531246
      8          1           0        2.383855    2.860374    1.012689
      9          6           0        4.461916    1.096360   -0.975447
     10          6           0        3.515894    3.344655   -1.354205
     11          1           0        4.986122    1.187848   -1.916821
     12          6           0        2.445824    0.773847    2.737665
     13          1           0        3.788394    3.206178   -2.407009
     14          1           0        1.790149    1.616851    2.985539
     15          6           0       -3.072860   -2.532000    0.483351
     16          6           0       -3.400176   -3.474390   -0.639113
     17          6           0       -3.912377   -1.481303    0.816258
     18          6           0       -3.553836   -0.578186    1.819190
     19          1           0       -4.854140   -1.346100    0.309132
     20          6           0       -2.357251   -0.754312    2.501761
     21          6           0       -1.532617   -1.840165    2.216351
     22          1           0       -2.056299   -0.071050    3.281067
     23          6           0       -1.896892   -2.718505    1.198992
     24          6           0       -0.313930   -2.070985    2.977812
     25          1           0       -1.271632   -3.564023    0.955965
     26          6           0       -4.394780    0.572188    2.128854
     27          1           0        0.297854   -2.928759    2.657963
     28          1           0       -3.891561    1.352575    2.712563
     29          6           0       -1.221279    0.974591   -2.110405
     30          6           0       -0.593584   -0.237480   -2.764358
     31          6           0       -0.509963    2.144740   -1.906013
     32          6           0       -1.095461    3.219780   -1.236238
     33          1           0        0.504586    2.233608   -2.258111
     34          6           0       -2.406187    3.122133   -0.786723
     35          6           0       -3.148412    1.970091   -1.034317
     36          1           0       -2.882683    3.940684   -0.269264
     37          6           0       -2.540584    0.899823   -1.685550
     38          6           0       -4.536250    1.852844   -0.622241
     39          1           0       -3.106938   -0.004455   -1.860454
     40          6           0       -0.324162    4.433004   -0.990463
     41          1           0       -5.039223    0.925502   -0.934687
     42          1           0       -0.623957    5.016912   -0.104778
     43          6           0        6.827639   -2.902136    0.024405
     44          6           0        5.468030   -3.561817   -0.325089
     45          7           0        6.539053   -1.495335    0.239696
     46          1           0        7.306826   -3.343764    0.895700
     47          7           0        4.669358   -2.432097   -0.816595
     48          6           0        5.619247   -4.658917   -1.375674
     49          6           0        4.793845   -4.126100    0.930536
     50          6           0       -2.746218   -4.509567   -2.559068
     51          6           0       -4.027179   -3.669901   -2.885146
     52          7           0       -2.206194   -3.967271   -1.325362
     53          1           0       -2.010083   -4.472366   -3.360546
     54          7           0       -4.271735   -2.896735   -1.661344
     55          6           0       -5.231015   -4.575296   -3.146833
     56          6           0       -3.791421   -2.744395   -4.076296
     57          6           0        0.906978   -1.762709   -1.717360
     58          6           0        1.645637   -0.517254   -2.258041
     59          7           0       -0.507316   -1.361035   -1.801927
     60          6           0        1.327929   -2.107544   -0.297166
     61          6           0        1.125088   -2.970159   -2.636148
     62          7           0        0.748744    0.045701   -3.253314
     63          1           0        2.621744   -0.740039   -2.683426
     64          6           0        2.085302   -0.378707    4.800209
     65          6           0        1.178239   -1.631062    4.714813
     66          7           0        2.658558   -0.212253    3.492689
     67          6           0        3.264925   -0.690308    5.731564
     68          6           0        1.279741    0.801331    5.351057
     69          7           0       -0.000414   -1.351471    3.964984
     70          1           0        0.861551   -1.887129    5.730957
     71          1           0        0.961389    0.576129    6.365220
     72          6           0        2.889036    5.626269   -1.626898
     73          6           0        1.385070    5.950296   -1.437691
     74          7           0        3.110496    4.428745   -0.859627
     75          6           0        3.729413    6.731854   -0.977949
     76          6           0        3.194413    5.538756   -3.125804
     77          7           0        0.615954    4.788430   -1.748162
     78          1           0        1.111740    6.743528   -2.140346
     79          1           0        4.230637    5.251439   -3.294304
     80          6           0       -6.410332    1.809470    1.906605
     81          6           0       -6.464368    2.459326    0.487875
     82          7           0       -5.592830    0.640534    1.742766
     83          6           0       -7.813318    1.324081    2.282450
     84          6           0       -5.920608    2.852651    2.916579
     85          7           0       -5.137983    2.743034    0.043868
     86          1           0       -7.017781    3.397851    0.554520
     87          1           0       -1.605151   -3.167177   -1.536413
     88          1           0       -3.922797   -4.358073   -0.234645
     89          1           0       -4.008169   -1.927027   -1.811284
     90          1           0        0.897140   -0.407305   -4.147845
     91          1           0       -0.828745   -1.049633   -0.888823
     92          1           0       -1.235014   -0.543218   -3.605916
     93          1           0        4.360986   -2.574577   -1.769748
     94          1           0        6.207181   -1.347241    1.188030
     95          1           0        5.933936   -0.930150   -1.657227
     96          1           0       -3.023367   -5.553433   -2.381740
     97          1           0       -3.655808   -3.325721   -4.985667
     98          1           0       -2.900029   -2.138501   -3.915357
     99          1           0       -4.644472   -2.082311   -4.214005
    100          1           0        7.508565   -2.979732   -0.830232
    101          1           0        4.720348   -3.359976    1.698337
    102          1           0        5.363398   -4.965248    1.322764
    103          1           0        3.788535   -4.462702    0.689889
    104          1           0        1.771241    0.208802   -1.449129
    105          1           0        0.848298   -2.732768   -3.661480
    106          1           0        0.512790   -3.803847   -2.301803
    107          1           0        2.169106   -3.272114   -2.613533
    108          1           0        1.759382   -2.468555    4.295308
    109          1           0        1.889166    1.703030    5.369567
    110          1           0        0.394182    0.969351    4.744418
    111          1           0        1.203490    6.308125   -0.411825
    112          1           0        3.032506    6.511630   -3.582944
    113          1           0        2.531824    4.817729   -3.598044
    114          1           0       -6.986199    1.760316   -0.181727
    115          1           0       -6.107400   -3.971183   -3.366769
    116          1           0       -5.442664   -5.175987   -2.266429
    117          1           0       -5.034101   -5.235077   -3.988494
    118          1           0        4.649382   -5.094825   -1.607766
    119          1           0        6.271650   -5.445787   -1.004565
    120          1           0        6.051709   -4.257613   -2.291337
    121          1           0        0.815544   -3.007402    0.032850
    122          1           0        1.087804   -1.294449    0.386858
    123          1           0        2.402543   -2.275451   -0.266696
    124          1           0        2.909074   -0.942563    6.727066
    125          1           0        3.917982    0.176784    5.798999
    126          1           0        3.839594   -1.523409    5.335926
    127          1           0       -5.732509    2.386939    3.882563
    128          1           0       -6.684420    3.615432    3.042884
    129          1           0       -5.012492    3.332088    2.559984
    130          1           0       -8.114781    0.518769    1.618329
    131          1           0       -8.531717    2.136721    2.210728
    132          1           0       -7.808544    0.945162    3.301786
    133          1           0        3.463359    7.701857   -1.390519
    134          1           0        4.785801    6.547726   -1.159951
    135          1           0        3.562634    6.741198    0.095858
 ---------------------------------------------------------------------
 Rotational constants (GHZ):           0.0432158           0.0306400           0.0265339
 Leave Link  202 at Mon Oct 18 18:15:17 2021, MaxMem=  7864320000 cpu:               0.1 elap:               0.0
 (Enter /apps/gaussian/g16-c01-avx/g16/l301.exe)
 Standard basis: def2TZVP (5D, 7F)
 Ernie: Thresh=  0.10000D-02 Tol=  0.10000D-05 Strict=F.
 There are  2700 symmetry adapted cartesian basis functions of A   symmetry.
 There are  2385 symmetry adapted basis functions of A   symmetry.
  2385 basis functions,  3789 primitive gaussians,  2700 cartesian basis functions
   231 alpha electrons      231 beta electrons
       nuclear repulsion energy     10192.1247483392 Hartrees.
 IExCor= 1009 DFT=T Ex+Corr=PBE1PBE ExCW=0 ScaHFX=  0.250000
 ScaDFX=  0.750000  0.750000  1.000000  1.000000 ScalE2=  1.000000  1.000000
 IRadAn=      7 IRanWt=     -1 IRanGd=            0 ICorTp=0 IEmpDi=131
 NAtoms=  135 NActive=  135 NUniq=  135 SFac= 1.00D+00 NAtFMM=   60 NAOKFM=T Big=T
 Integral buffers will be    131072 words long.
 Raffenetti 2 integral format.
 Two-electron integral symmetry is turned on.
 R6Disp:  Grimme-D3 Dispersion energy=       -0.1295843816 Hartrees.
 Nuclear repulsion after empirical dispersion term =    10191.9951639576 Hartrees.
 Leave Link  301 at Mon Oct 18 18:15:17 2021, MaxMem=  7864320000 cpu:               1.0 elap:               0.0
 (Enter /apps/gaussian/g16-c01-avx/g16/l302.exe)
 NPDir=0 NMtPBC=     1 NCelOv=     1 NCel=       1 NClECP=     1 NCelD=      1
         NCelK=      1 NCelE2=     1 NClLst=     1 CellRange=     0.0.
 One-electron integrals computed using PRISM.
 One-electron integral symmetry used in STVInt
   1 Symmetry operations used in ECPInt.
 ECPInt:  NShTT=  481671 NPrTT= 1433880 LenC2=  327309 LenP2D=  624852.
 LDataN:  DoStor=T MaxTD1= 6 Len=  172
 Number of processors reduced to  30 by ecpmxn.
 NBasis=  2385 RedAO= T EigKep=  3.45D-06  NBF=  2385
 NBsUse=  2385 1.00D-06 EigRej= -1.00D+00 NBFU=  2385
 Precomputing XC quadrature grid using
 IXCGrd= 4 IRadAn=           7 IRanWt=          -1 IRanGd=           0 AccXCQ= 0.00D+00.
 Generated NRdTot=       0 NPtTot=           0 NUsed=           0 NTot=          32
 NSgBfM=  2356  2335  2350  2351  2356 MxSgAt=   135 MxSgA2=   135.
 Leave Link  302 at Mon Oct 18 18:15:30 2021, MaxMem=  7864320000 cpu:             410.9 elap:              13.0
 (Enter /apps/gaussian/g16-c01-avx/g16/l303.exe)
 DipDrv:  MaxL=1.
 Leave Link  303 at Mon Oct 18 18:15:31 2021, MaxMem=  7864320000 cpu:              20.3 elap:               0.8
 (Enter /apps/gaussian/g16-c01-avx/g16/l401.exe)
 ExpMin= 9.52D-02 ExpMax= 1.97D+04 ExpMxC= 6.73D+02 IAcc=3 IRadAn=         7 AccDes= 0.00D+00
 Harris functional with IExCor= 1009 and IRadAn=       7 diagonalized for initial guess.
 HarFok:  IExCor= 1009 AccDes= 0.00D+00 IRadAn=         7 IDoV= 1 UseB2=F ITyADJ=14
 ICtDFT=  3500011 ScaDFX=  1.000000  1.000000  1.000000  1.000000
 FoFCou: FMM=F IPFlag=           0 FMFlag=      100000 FMFlg1=        2001
         NFxFlg=           0 DoJE=T BraDBF=F KetDBF=T FulRan=T
         wScrn=  0.000000 ICntrl=       500 IOpCl=  0 I1Cent=   200000004 NGrid=           0
         NMat0=    1 NMatS0=      1 NMatT0=    0 NMatD0=    1 NMtDS0=    0 NMtDT0=    0
 Petite list used in FoFCou.
 Harris En= -2642.49651534874    
 JPrj=0 DoOrth=F DoCkMO=F.
 Leave Link  401 at Mon Oct 18 18:16:11 2021, MaxMem=  7864320000 cpu:            1270.3 elap:              40.0
 (Enter /apps/gaussian/g16-c01-avx/g16/l508.exe)
 Integral symmetry usage will be decided dynamically.
 Tight linear equation convergence will be used.
 RPBE1PBE wavefunction.
 Linear searches until partial convergence.
 Full line searches.
 Fock matrices will be formed incrementally for  20 cycles.
 FoFJK:  IHMeth= 1 ICntrl=       0 DoSepK=F KAlg= 0 I1Cent=           0 FoldK=F
 IRaf= 650000000 NMat=       1 IRICut=       1 DoRegI=T DoRafI=F ISym2E= 1 IDoP0=0 IntGTp=1.
 FoFCou: FMM=T IPFlag=           0 FMFlag=      100000 FMFlg1=        2001
         NFxFlg=           0 DoJE=F BraDBF=F KetDBF=F FulRan=T
         wScrn=  0.000000 ICntrl=         0 IOpCl=  0 I1Cent=           0 NGrid=           0
         NMat0=    1 NMatS0=      1 NMatT0=    0 NMatD0=    1 NMtDS0=    0 NMtDT0=    0
 Petite list used in FoFCou.
 FMM levels:  10  Number of levels for PrismC:   9
 Iteration   1 EE= -2640.12578069593                                    Grad=1.847D+00 Max rot=    1.9780 deg.
 Gradient too large for Newton-Raphson -- use scaled steepest descent instead.
 Alpha Gap=     0.174 HL deriv= 2.79D-03
     ILin= 1 X=0.000D+00 Y=-2.640125780696D+03 DE= 0.00D+00 F= -6.57D+00
 RMSU=  4.94D-04    CP:  1.00D+00
     ILin= 2 X=3.000D-01 Y=-2.641435695483D+03 DE=-1.31D+00 F= -2.15D+00 OKLS=F
 RMSU=  8.65D-05    CP:  1.00D+00  1.72D+00
     ILin= 3 X=5.000D-01 Y=-2.641567648994D+03 DE=-1.44D+00 F=  8.28D-01
     Accept linear search using points  2 and  3.
     An  expanding polynomial of degree  3 produced  0.3906
 RMSU=  4.31D-08    CP:  1.00D+00  1.32D+00  3.54D-01
 Iteration   2 EE= -2641.56920377523     Delta-E=       -1.443423079299 Grad=5.612D-01 Max rot=    1.5482 deg.
 Gradient too large for Newton-Raphson -- use scaled steepest descent instead.
 Alpha Gap=     0.194 HL deriv= 1.32D-03
     ILin= 1 X=0.000D+00 Y=-2.641569203775D+03 DE= 0.00D+00 F= -2.76D-01
 RMSU=  9.06D-05    CP:  9.99D-01  1.54D+00  6.06D-01 -3.00D+00
     ILin= 2 X=3.000D-01 Y=-2.641633033453D+03 DE=-6.38D-02 F= -1.50D-01 OKLS=F
 RMSU=  1.33D-05    CP:  9.97D-01  1.84D+00  1.17D+00 -3.00D+00  2.34D+00
     ILin= 3 X=7.000D-01 Y=-2.641659283639D+03 DE=-9.01D-02 F=  1.85D-02
     Accept linear search using points  2 and  3.
     An  expanding polynomial of degree  3 produced  0.5217
 RMSU=  3.15D-08    CP:  9.97D-01  1.70D+00  8.88D-01 -3.00D+00  1.74D+00
                    CP:  4.13D-01
 Iteration   3 EE= -2641.65589689270     Delta-E=       -0.086693117470 Grad=2.356D-01 Max rot=    0.7161 deg.
 Gradient too large for Newton-Raphson -- use scaled steepest descent instead.
 Alpha Gap=     0.186 HL deriv= 5.10D-05
     ILin= 1 X=0.000D+00 Y=-2.641655896893D+03 DE= 0.00D+00 F= -3.77D-02
 RMSU=  5.48D-05    CP:  9.96D-01  1.86D+00  1.25D+00 -3.00D+00  2.58D+00
                    CP:  9.41D-01  3.00D+00
     ILin= 2 X=5.000D-01 Y=-2.641666946590D+03 DE=-1.10D-02 F= -6.51D-03 OKLS=F
 RMSU=  2.34D-05    CP:  9.96D-01  1.98D+00  1.61D+00 -3.00D+00  3.00D+00
                    CP:  1.68D+00  3.00D+00  1.81D+00
     ILin= 3 X=9.000D-01 Y=-2.641664563642D+03 DE=-8.67D-03 F=  1.84D-02
     An  expanding polynomial of degree  3 produced  0.6045
 RMSU=  4.68D-07    CP:  9.96D-01  1.89D+00  1.33D+00 -3.00D+00  2.76D+00
                    CP:  1.11D+00  3.00D+00  1.21D+00  2.31D-03
 Iteration   4 EE= -2641.66728662861     Delta-E=       -0.011389735912 Grad=1.012D-01 Max rot=    0.2965 deg.
 Gradient too large for Newton-Raphson -- use scaled steepest descent instead.
 Alpha Gap=     0.186 HL deriv= 2.21D-05
     ILin= 1 X=0.000D+00 Y=-2.641667286629D+03 DE= 0.00D+00 F= -1.31D-02
 RMSU=  4.37D-05    CP:  9.95D-01  1.93D+00  1.44D+00 -3.00D+00  3.00D+00
                    CP:  1.33D+00 -3.00D+00  1.15D+00  6.37D-01 -3.00D+00
     ILin= 2 X=6.000D-01 Y=-2.641668592333D+03 DE=-1.31D-03 F=  8.76D-03 OKLS=T
     Accept linear search using points  1 and  2.
     An  expanding polynomial of degree  2 produced  0.3241
 RMSU=  1.19D-06    CP:  9.95D-01  1.91D+00  1.39D+00 -3.00D+00  2.98D+00
                    CP:  1.22D+00 -3.00D+00  1.18D+00 -3.82D-03 -1.71D+00
                    CP:  5.38D-01
 Iteration   5 EE= -2641.66962323596     Delta-E=       -0.002336607353 Grad=5.636D-02 Max rot=    0.1781 deg.
 Gradient too large for Newton-Raphson -- use scaled steepest descent instead.
 Alpha Gap=     0.187 HL deriv= 7.16D-05
     ILin= 1 X=0.000D+00 Y=-2.641669623236D+03 DE= 0.00D+00 F= -1.63D-03
 RMSU=  6.47D-06    CP:  9.96D-01  1.95D+00  1.51D+00 -3.00D+00  3.00D+00
                    CP:  1.48D+00 -3.00D+00  1.40D+00  6.63D-01 -3.00D+00
                    CP:  7.30D-01  6.96D-01
     ILin= 2 X=4.000D-01 Y=-2.641670122271D+03 DE=-4.99D-04 F= -8.65D-04 OKLS=F
 RMSU=  2.13D-07    CP:  9.96D-01  2.00D+00  1.67D+00 -3.00D+00  3.00D+00
                    CP:  1.84D+00 -3.00D+00  1.68D+00  1.59D+00 -3.00D+00
                    CP:  9.72D-01 -3.03D-01  2.25D+00
     ILin= 3 X=9.000D-01 Y=-2.641670315160D+03 DE=-6.92D-04 F=  9.31D-05
     Accept linear search using points  2 and  3.
     An  expanding polynomial of degree  3 produced  0.7225
 RMSU=  2.39D-08    CP:  9.96D-01  1.98D+00  1.61D+00 -3.00D+00  3.00D+00
                    CP:  1.70D+00 -3.00D+00  1.58D+00  1.26D+00 -3.00D+00
                    CP:  8.86D-01  2.48D-02  1.81D+00  5.08D-01
 Iteration   6 EE= -2641.67030149573     Delta-E=       -0.000678259770 Grad=1.757D-02 Max rot=    0.0470 deg.
 Gradient too large for Newton-Raphson -- use scaled steepest descent instead.
 Alpha Gap=     0.187 HL deriv= 3.41D-05
     ILin= 1 X=0.000D+00 Y=-2.641670301496D+03 DE= 0.00D+00 F= -3.65D-04
 RMSU=  2.86D-06    CP:  9.96D-01  1.99D+00  1.65D+00 -3.00D+00  3.00D+00
                    CP:  1.77D+00 -3.00D+00  1.62D+00  1.55D+00 -3.00D+00
                    CP:  1.11D+00 -3.25D-01  2.18D+00  2.72D+00 -3.00D+00
     ILin= 2 X=5.000D-01 Y=-2.641670367243D+03 DE=-6.57D-05 F=  1.02D-04 OKLS=T
     Accept linear search using points  1 and  2.
     An  expanding polynomial of degree  2 produced  0.2905
 RMSU=  4.81D-08    CP:  9.96D-01  1.99D+00  1.63D+00 -3.00D+00  3.00D+00
                    CP:  1.74D+00 -3.00D+00  1.60D+00  1.43D+00 -3.00D+00
                    CP:  1.01D+00 -1.80D-01  2.02D+00  1.77D+00 -3.00D+00
                    CP:  5.79D-01
 Iteration   7 EE= -2641.67036810435     Delta-E=       -0.000066608611 Grad=1.076D-02 Max rot=    0.0293 deg.
 Gradient too large for Newton-Raphson -- use scaled steepest descent instead.
 Alpha Gap=     0.187 HL deriv= 1.67D-05
     ILin= 1 X=0.000D+00 Y=-2.641670368104D+03 DE= 0.00D+00 F= -6.68D-05
 RMSU=  6.85D-07    CP:  9.96D-01  2.00D+00  1.69D+00 -3.00D+00  3.00D+00
                    CP:  1.87D+00 -3.00D+00  1.70D+00  1.75D+00 -3.00D+00
                    CP:  1.17D+00 -3.61D-01  2.75D+00  3.00D+00 -3.00D+00
                    CP:  1.45D+00 -1.63D+00
     ILin= 2 X=7.000D-01 Y=-2.641670399592D+03 DE=-3.15D-05 F= -2.31D-05 OKLS=F
 RMSU=  3.17D-06    CP:  9.96D-01  2.02D+00  1.75D+00 -3.00D+00  3.00D+00
                    CP:  2.01D+00 -3.00D+00  1.80D+00  2.06D+00 -3.00D+00
                    CP:  1.32D+00 -5.09D-01  3.00D+00  3.00D+00 -3.00D+00
                    CP:  2.32D+00 -3.00D+00  2.13D+00
     ILin= 3 X=1.400D+00 Y=-2.641670400503D+03 DE=-3.24D-05 F=  2.05D-05
     Accept linear search using points  2 and  3.
     An  expanding polynomial of degree  3 produced  1.0615
 RMSU=  6.87D-08    CP:  9.96D-01  2.01D+00  1.73D+00 -3.00D+00  3.00D+00
                    CP:  1.94D+00 -3.00D+00  1.75D+00  1.91D+00 -3.00D+00
                    CP:  1.25D+00 -4.42D-01  3.00D+00  3.00D+00 -3.00D+00
                    CP:  1.90D+00 -3.00D+00  1.58D+00  2.75D-01
 Iteration   8 EE= -2641.67040388005     Delta-E=       -0.000035775709 Grad=1.247D-03 Max rot=    0.0040 deg.
 SCF Done:  E(RPBE1PBE) =  -2641.67040388     a.u. after    8 cycles
            Convg  =    0.1247D-02                    20 Fock formations.
              S**2 =  0.0000                  -V/T =  2.0047
 Leave Link  508 at Mon Oct 18 19:40:09 2021, MaxMem=  7864320000 cpu:          159656.4 elap:            5038.3
 (Enter /apps/gaussian/g16-c01-avx/g16/l502.exe)
 Integral symmetry usage will be decided dynamically.
 Closed shell SCF:
 Using DIIS extrapolation, IDIIS=  1040.
 NGot=  7864320000 LenX=  7849626578 LenY=  7842333878
 Requested convergence on RMS density matrix=1.00D-08 within 128 cycles.
 Requested convergence on MAX density matrix=1.00D-06.
 Requested convergence on             energy=1.00D-06.
 No special actions if energy rises.
 Fock matrices will be formed incrementally for  20 cycles.

 Cycle   1  Pass 1  IDiag  1:
 FoFJK:  IHMeth= 1 ICntrl=       0 DoSepK=F KAlg= 0 I1Cent=           0 FoldK=F
 IRaf= 650000000 NMat=       1 IRICut=       1 DoRegI=T DoRafI=F ISym2E= 0 IDoP0=0 IntGTp=1.
 FoFCou: FMM=T IPFlag=           0 FMFlag=      100000 FMFlg1=        2001
         NFxFlg=           0 DoJE=F BraDBF=F KetDBF=F FulRan=T
         wScrn=  0.000000 ICntrl=         0 IOpCl=  0 I1Cent=           0 NGrid=           0
         NMat0=    1 NMatS0=      1 NMatT0=    0 NMatD0=    1 NMtDS0=    0 NMtDT0=    0
 Symmetry not used in FoFCou.
 FMM levels:  10  Number of levels for PrismC:   9
 E= -2641.67040388020    
 DIIS: error= 6.32D-06 at cycle   1 NSaved=   1.
 NSaved= 1 IEnMin= 1 EnMin= -2641.67040388020     IErMin= 1 ErrMin= 6.32D-06
 ErrMax= 6.32D-06  0.00D+00 EMaxC= 1.00D-01 BMatC= 7.77D-07 BMatP= 7.77D-07
 IDIUse=1 WtCom= 1.00D+00 WtEn= 0.00D+00
 Coeff-Com:  0.100D+01
 Coeff:      0.100D+01
 Gap=     0.187 Goal=   None    Shift=    0.000
 RMSDP=4.02D-06 MaxDP=6.25D-04              OVMax= 1.57D-04

 Cycle   2  Pass 1  IDiag  1:
 RMSU=  3.94D-06    CP:  1.00D+00
 E= -2641.67040419103     Delta-E=       -0.000000310831 Rises=F Damp=F
 DIIS: error= 4.23D-06 at cycle   2 NSaved=   2.
 NSaved= 2 IEnMin= 2 EnMin= -2641.67040419103     IErMin= 2 ErrMin= 4.23D-06
 ErrMax= 4.23D-06  0.00D+00 EMaxC= 1.00D-01 BMatC= 3.80D-07 BMatP= 7.77D-07
 IDIUse=1 WtCom= 1.00D+00 WtEn= 0.00D+00
 Coeff-Com:  0.385D+00 0.615D+00
 Coeff:      0.385D+00 0.615D+00
 Gap=     0.175 Goal=   None    Shift=    0.000
 RMSDP=8.58D-07 MaxDP=2.78D-04 DE=-3.11D-07 OVMax= 1.56D-04

 Cycle   3  Pass 1  IDiag  1:
 RMSU=  8.24D-07    CP:  1.00D+00  9.64D-01
 E= -2641.67040443217     Delta-E=       -0.000000241145 Rises=F Damp=F
 DIIS: error= 2.55D-06 at cycle   3 NSaved=   3.
 NSaved= 3 IEnMin= 3 EnMin= -2641.67040443217     IErMin= 3 ErrMin= 2.55D-06
 ErrMax= 2.55D-06  0.00D+00 EMaxC= 1.00D-01 BMatC= 1.26D-07 BMatP= 3.80D-07
 IDIUse=1 WtCom= 1.00D+00 WtEn= 0.00D+00
 Coeff-Com:  0.406D-01 0.364D+00 0.596D+00
 Coeff:      0.406D-01 0.364D+00 0.596D+00
 Gap=     0.175 Goal=   None    Shift=    0.000
 RMSDP=3.66D-07 MaxDP=1.18D-04 DE=-2.41D-07 OVMax= 8.27D-05

 Cycle   4  Pass 1  IDiag  1:
 RMSU=  1.91D-07    CP:  1.00D+00  1.01D+00  7.12D-01
 E= -2641.67040452745     Delta-E=       -0.000000095275 Rises=F Damp=F
 DIIS: error= 1.31D-06 at cycle   4 NSaved=   4.
 NSaved= 4 IEnMin= 4 EnMin= -2641.67040452745     IErMin= 4 ErrMin= 1.31D-06
 ErrMax= 1.31D-06  0.00D+00 EMaxC= 1.00D-01 BMatC= 2.04D-08 BMatP= 1.26D-07
 IDIUse=1 WtCom= 1.00D+00 WtEn= 0.00D+00
 Coeff-Com:  0.499D-02 0.207D+00 0.396D+00 0.392D+00
 Coeff:      0.499D-02 0.207D+00 0.396D+00 0.392D+00
 Gap=     0.175 Goal=   None    Shift=    0.000
 RMSDP=1.04D-07 MaxDP=3.05D-05 DE=-9.53D-08 OVMax= 2.56D-05

 Cycle   5  Pass 1  IDiag  1:
 RMSU=  5.35D-08    CP:  1.00D+00  1.02D+00  7.59D-01  5.86D-01
 E= -2641.67040454653     Delta-E=       -0.000000019079 Rises=F Damp=F
 DIIS: error= 1.92D-07 at cycle   5 NSaved=   5.
 NSaved= 5 IEnMin= 5 EnMin= -2641.67040454653     IErMin= 5 ErrMin= 1.92D-07
 ErrMax= 1.92D-07  0.00D+00 EMaxC= 1.00D-01 BMatC= 3.72D-10 BMatP= 2.04D-08
 IDIUse=1 WtCom= 1.00D+00 WtEn= 0.00D+00
 Coeff-Com: -0.142D-02 0.547D-01 0.110D+00 0.163D+00 0.673D+00
 Coeff:     -0.142D-02 0.547D-01 0.110D+00 0.163D+00 0.673D+00
 Gap=     0.175 Goal=   None    Shift=    0.000
 RMSDP=2.56D-08 MaxDP=4.88D-06 DE=-1.91D-08 OVMax= 3.82D-06

 Cycle   6  Pass 1  IDiag  1:
 RMSU=  1.63D-08    CP:  1.00D+00  1.02D+00  7.55D-01  6.01D-01  9.28D-01
 E= -2641.67040454683     Delta-E=       -0.000000000302 Rises=F Damp=F
 DIIS: error= 6.79D-08 at cycle   6 NSaved=   6.
 NSaved= 6 IEnMin= 6 EnMin= -2641.67040454683     IErMin= 6 ErrMin= 6.79D-08
 ErrMax= 6.79D-08  0.00D+00 EMaxC= 1.00D-01 BMatC= 7.65D-11 BMatP= 3.72D-10
 IDIUse=1 WtCom= 1.00D+00 WtEn= 0.00D+00
 Coeff-Com: -0.139D-02-0.617D-02-0.101D-01 0.209D-01 0.353D+00 0.643D+00
 Coeff:     -0.139D-02-0.617D-02-0.101D-01 0.209D-01 0.353D+00 0.643D+00
 Gap=     0.175 Goal=   None    Shift=    0.000
 RMSDP=1.10D-08 MaxDP=4.22D-06 DE=-3.02D-10 OVMax= 1.50D-06

 Cycle   7  Pass 1  IDiag  1:
 RMSU=  6.38D-09    CP:  1.00D+00  1.02D+00  7.62D-01  6.22D-01  9.92D-01
                    CP:  7.45D-01
 E= -2641.67040454667     Delta-E=        0.000000000160 Rises=F Damp=F
 DIIS: error= 3.39D-08 at cycle   7 NSaved=   7.
 NSaved= 7 IEnMin= 6 EnMin= -2641.67040454683     IErMin= 7 ErrMin= 3.39D-08
 ErrMax= 3.39D-08  0.00D+00 EMaxC= 1.00D-01 BMatC= 8.23D-12 BMatP= 7.65D-11
 IDIUse=1 WtCom= 1.00D+00 WtEn= 0.00D+00
 Coeff-Com: -0.762D-03-0.652D-02-0.119D-01 0.433D-02 0.175D+00 0.376D+00
 Coeff-Com:  0.463D+00
 Coeff:     -0.762D-03-0.652D-02-0.119D-01 0.433D-02 0.175D+00 0.376D+00
 Coeff:      0.463D+00
 Gap=     0.175 Goal=   None    Shift=    0.000
 RMSDP=2.70D-09 MaxDP=9.20D-07 DE= 1.60D-10 OVMax= 7.68D-07

 SCF Done:  E(RPBE1PBE) =  -2641.67040455     A.U. after    7 cycles
            NFock=  7  Conv=0.27D-08     -V/T= 2.0047
 KE= 2.629311449946D+03 PE=-2.652423576311D+04 EE= 1.106125874466D+04
 Leave Link  502 at Mon Oct 18 20:09:44 2021, MaxMem=  7864320000 cpu:           56234.7 elap:            1774.9
 (Enter /apps/gaussian/g16-c01-avx/g16/l508.exe)
 QCSCF skips out because SCF is already converged.
 Leave Link  508 at Mon Oct 18 20:09:44 2021, MaxMem=  7864320000 cpu:               0.1 elap:               0.0
 (Enter /apps/gaussian/g16-c01-avx/g16/l601.exe)
 Copying SCF densities to generalized density rwf, IOpCl= 0 IROHF=0.
 Hyperfine terms turned off by default for NAtoms > 100.

 **********************************************************************

            Population analysis using the SCF Density.

 **********************************************************************

 Orbital symmetries:
       Occupied  (A) (A) (A) (A) (A) (A) (A) (A) (A) (A) (A) (A)
                 (A) (A) (A) (A) (A) (A) (A) (A) (A) (A) (A) (A)
                 (A) (A) (A) (A) (A) (A) (A) (A) (A) (A) (A) (A)
                 (A) (A) (A) (A) (A) (A) (A) (A) (A) (A) (A) (A)
                 (A) (A) (A) (A) (A) (A) (A) (A) (A) (A) (A) (A)
                 (A) (A) (A) (A) (A) (A) (A) (A) (A) (A) (A) (A)
                 (A) (A) (A) (A) (A) (A) (A) (A) (A) (A) (A) (A)
                 (A) (A) (A) (A) (A) (A) (A) (A) (A) (A) (A) (A)
                 (A) (A) (A) (A) (A) (A) (A) (A) (A) (A) (A) (A)
                 (A) (A) (A) (A) (A) (A) (A) (A) (A) (A) (A) (A)
                 (A) (A) (A) (A) (A) (A) (A) (A) (A) (A) (A) (A)
                 (A) (A) (A) (A) (A) (A) (A) (A) (A) (A) (A) (A)
                 (A) (A) (A) (A) (A) (A) (A) (A) (A) (A) (A) (A)
                 (A) (A) (A) (A) (A) (A) (A) (A) (A) (A) (A) (A)
                 (A) (A) (A) (A) (A) (A) (A) (A) (A) (A) (A) (A)
                 (A) (A) (A) (A) (A) (A) (A) (A) (A) (A) (A) (A)
                 (A) (A) (A) (A) (A) (A) (A) (A) (A) (A) (A) (A)
                 (A) (A) (A) (A) (A) (A) (A) (A) (A) (A) (A) (A)
                 (A) (A) (A) (A) (A) (A) (A) (A) (A) (A) (A) (A)
                 (A) (A) (A)
       Virtual   (A) (A) (A) (A) (A) (A) (A) (A) (A) (A) (A) (A)
                 (A) (A) (A) (A) (A) (A) (A) (A) (A) (A) (A) (A)
                 (A) (A) (A) (A) (A) (A) (A) (A) (A) (A) (A) (A)
                 (A) (A) (A) (A) (A) (A) (A) (A) (A) (A) (A) (A)
                 (A) (A) (A) (A) (A) (A) (A) (A) (A) (A) (A) (A)
                 (A) (A) (A) (A) (A) (A) (A) (A) (A) (A) (A) (A)
                 (A) (A) (A) (A) (A) (A) (A) (A) (A) (A) (A) (A)
                 (A) (A) (A) (A) (A) (A) (A) (A) (A) (A) (A) (A)
                 (A) (A) (A) (A) (A) (A) (A) (A) (A) (A) (A) (A)
                 (A) (A) (A) (A) (A) (A) (A) (A) (A) (A) (A) (A)
                 (A) (A) (A) (A) (A) (A) (A) (A) (A) (A) (A) (A)
                 (A) (A) (A) (A) (A) (A) (A) (A) (A) (A) (A) (A)
                 (A) (A) (A) (A) (A) (A) (A) (A) (A) (A) (A) (A)
                 (A) (A) (A) (A) (A) (A) (A) (A) (A) (A) (A) (A)
                 (A) (A) (A) (A) (A) (A) (A) (A) (A) (A) (A) (A)
                 (A) (A) (A) (A) (A) (A) (A) (A) (A) (A) (A) (A)
                 (A) (A) (A) (A) (A) (A) (A) (A) (A) (A) (A) (A)
                 (A) (A) (A) (A) (A) (A) (A) (A) (A) (A) (A) (A)
                 (A) (A) (A) (A) (A) (A) (A) (A) (A) (A) (A) (A)
                 (A) (A) (A) (A) (A) (A) (A) (A) (A) (A) (A) (A)
                 (A) (A) (A) (A) (A) (A) (A) (A) (A) (A) (A) (A)
                 (A) (A) (A) (A) (A) (A) (A) (A) (A) (A) (A) (A)
                 (A) (A) (A) (A) (A) (A) (A) (A) (A) (A) (A) (A)
                 (A) (A) (A) (A) (A) (A) (A) (A) (A) (A) (A) (A)
                 (A) (A) (A) (A) (A) (A) (A) (A) (A) (A) (A) (A)
                 (A) (A) (A) (A) (A) (A) (A) (A) (A) (A) (A) (A)
                 (A) (A) (A) (A) (A) (A) (A) (A) (A) (A) (A) (A)
                 (A) (A) (A) (A) (A) (A) (A) (A) (A) (A) (A) (A)
                 (A) (A) (A) (A) (A) (A) (A) (A) (A) (A) (A) (A)
                 (A) (A) (A) (A) (A) (A) (A) (A) (A) (A) (A) (A)
                 (A) (A) (A) (A) (A) (A) (A) (A) (A) (A) (A) (A)
                 (A) (A) (A) (A) (A) (A) (A) (A) (A) (A) (A) (A)
                 (A) (A) (A) (A) (A) (A) (A) (A) (A) (A) (A) (A)
                 (A) (A) (A) (A) (A) (A) (A) (A) (A) (A) (A) (A)
                 (A) (A) (A) (A) (A) (A) (A) (A) (A) (A) (A) (A)
                 (A) (A) (A) (A) (A) (A) (A) (A) (A) (A) (A) (A)
                 (A) (A) (A) (A) (A) (A) (A) (A) (A) (A) (A) (A)
                 (A) (A) (A) (A) (A) (A) (A) (A) (A) (A) (A) (A)
                 (A) (A) (A) (A) (A) (A) (A) (A) (A) (A) (A) (A)
                 (A) (A) (A) (A) (A) (A) (A) (A) (A) (A) (A) (A)
                 (A) (A) (A) (A) (A) (A) (A) (A) (A) (A) (A) (A)
                 (A) (A) (A) (A) (A) (A) (A) (A) (A) (A) (A) (A)
                 (A) (A) (A) (A) (A) (A) (A) (A) (A) (A) (A) (A)
                 (A) (A) (A) (A) (A) (A) (A) (A) (A) (A) (A) (A)
                 (A) (A) (A) (A) (A) (A) (A) (A) (A) (A) (A) (A)
                 (A) (A) (A) (A) (A) (A) (A) (A) (A) (A) (A) (A)
                 (A) (A) (A) (A) (A) (A) (A) (A) (A) (A) (A) (A)
                 (A) (A) (A) (A) (A) (A) (A) (A) (A) (A) (A) (A)
                 (A) (A) (A) (A) (A) (A) (A) (A) (A) (A) (A) (A)
                 (A) (A) (A) (A) (A) (A) (A) (A) (A) (A) (A) (A)
                 (A) (A) (A) (A) (A) (A) (A) (A) (A) (A) (A) (A)
                 (A) (A) (A) (A) (A) (A) (A) (A) (A) (A) (A) (A)
                 (A) (A) (A) (A) (A) (A) (A) (A) (A) (A) (A) (A)
                 (A) (A) (A) (A) (A) (A) (A) (A) (A) (A) (A) (A)
                 (A) (A) (A) (A) (A) (A) (A) (A) (A) (A) (A) (A)
                 (A) (A) (A) (A) (A) (A) (A) (A) (A) (A) (A) (A)
                 (A) (A) (A) (A) (A) (A) (A) (A) (A) (A) (A) (A)
                 (A) (A) (A) (A) (A) (A) (A) (A) (A) (A) (A) (A)
                 (A) (A) (A) (A) (A) (A) (A) (A) (A) (A) (A) (A)
                 (A) (A) (A) (A) (A) (A) (A) (A) (A) (A) (A) (A)
                 (A) (A) (A) (A) (A) (A) (A) (A) (A) (A) (A) (A)
                 (A) (A) (A) (A) (A) (A) (A) (A) (A) (A) (A) (A)
                 (A) (A) (A) (A) (A) (A) (A) (A) (A) (A) (A) (A)
                 (A) (A) (A) (A) (A) (A) (A) (A) (A) (A) (A) (A)
                 (A) (A) (A) (A) (A) (A) (A) (A) (A) (A) (A) (A)
                 (A) (A) (A) (A) (A) (A) (A) (A) (A) (A) (A) (A)
                 (A) (A) (A) (A) (A) (A) (A) (A) (A) (A) (A) (A)
                 (A) (A) (A) (A) (A) (A) (A) (A) (A) (A) (A) (A)
                 (A) (A) (A) (A) (A) (A) (A) (A) (A) (A) (A) (A)
                 (A) (A) (A) (A) (A) (A) (A) (A) (A) (A) (A) (A)
                 (A) (A) (A) (A) (A) (A) (A) (A) (A) (A) (A) (A)
                 (A) (A) (A) (A) (A) (A) (A) (A) (A) (A) (A) (A)
                 (A) (A) (A) (A) (A) (A) (A) (A) (A) (A) (A) (A)
                 (A) (A) (A) (A) (A) (A) (A) (A) (A) (A) (A) (A)
                 (A) (A) (A) (A) (A) (A) (A) (A) (A) (A) (A) (A)
                 (A) (A) (A) (A) (A) (A) (A) (A) (A) (A) (A) (A)
                 (A) (A) (A) (A) (A) (A) (A) (A) (A) (A) (A) (A)
                 (A) (A) (A) (A) (A) (A) (A) (A) (A) (A) (A) (A)
                 (A) (A) (A) (A) (A) (A) (A) (A) (A) (A) (A) (A)
                 (A) (A) (A) (A) (A) (A) (A) (A) (A) (A) (A) (A)
                 (A) (A) (A) (A) (A) (A) (A) (A) (A) (A) (A) (A)
                 (A) (A) (A) (A) (A) (A) (A) (A) (A) (A) (A) (A)
                 (A) (A) (A) (A) (A) (A) (A) (A) (A) (A) (A) (A)
                 (A) (A) (A) (A) (A) (A) (A) (A) (A) (A) (A) (A)
                 (A) (A) (A) (A) (A) (A) (A) (A) (A) (A) (A) (A)
                 (A) (A) (A) (A) (A) (A) (A) (A) (A) (A) (A) (A)
                 (A) (A) (A) (A) (A) (A) (A) (A) (A) (A) (A) (A)
                 (A) (A) (A) (A) (A) (A) (A) (A) (A) (A) (A) (A)
                 (A) (A) (A) (A) (A) (A) (A) (A) (A) (A) (A) (A)
                 (A) (A) (A) (A) (A) (A) (A) (A) (A) (A) (A) (A)
                 (A) (A) (A) (A) (A) (A) (A) (A) (A) (A) (A) (A)
                 (A) (A) (A) (A) (A) (A) (A) (A) (A) (A) (A) (A)
                 (A) (A) (A) (A) (A) (A) (A) (A) (A) (A) (A) (A)
                 (A) (A) (A) (A) (A) (A) (A) (A) (A) (A) (A) (A)
                 (A) (A) (A) (A) (A) (A) (A) (A) (A) (A) (A) (A)
                 (A) (A) (A) (A) (A) (A) (A) (A) (A) (A) (A) (A)
                 (A) (A) (A) (A) (A) (A) (A) (A) (A) (A) (A) (A)
                 (A) (A) (A) (A) (A) (A) (A) (A) (A) (A) (A) (A)
                 (A) (A) (A) (A) (A) (A) (A) (A) (A) (A) (A) (A)
                 (A) (A) (A) (A) (A) (A) (A) (A) (A) (A) (A) (A)
                 (A) (A) (A) (A) (A) (A) (A) (A) (A) (A) (A) (A)
                 (A) (A) (A) (A) (A) (A) (A) (A) (A) (A) (A) (A)
                 (A) (A) (A) (A) (A) (A) (A) (A) (A) (A) (A) (A)
                 (A) (A) (A) (A) (A) (A) (A) (A) (A) (A) (A) (A)
                 (A) (A) (A) (A) (A) (A) (A) (A) (A) (A) (A) (A)
                 (A) (A) (A) (A) (A) (A) (A) (A) (A) (A) (A) (A)
                 (A) (A) (A) (A) (A) (A) (A) (A) (A) (A) (A) (A)
                 (A) (A) (A) (A) (A) (A) (A) (A) (A) (A) (A) (A)
                 (A) (A) (A) (A) (A) (A) (A) (A) (A) (A) (A) (A)
                 (A) (A) (A) (A) (A) (A) (A) (A) (A) (A) (A) (A)
                 (A) (A) (A) (A) (A) (A) (A) (A) (A) (A) (A) (A)
                 (A) (A) (A) (A) (A) (A) (A) (A) (A) (A) (A) (A)
                 (A) (A) (A) (A) (A) (A) (A) (A) (A) (A) (A) (A)
                 (A) (A) (A) (A) (A) (A) (A) (A) (A) (A) (A) (A)
                 (A) (A) (A) (A) (A) (A) (A) (A) (A) (A) (A) (A)
                 (A) (A) (A) (A) (A) (A) (A) (A) (A) (A) (A) (A)
                 (A) (A) (A) (A) (A) (A) (A) (A) (A) (A) (A) (A)
                 (A) (A) (A) (A) (A) (A) (A) (A) (A) (A) (A) (A)
                 (A) (A) (A) (A) (A) (A) (A) (A) (A) (A) (A) (A)
                 (A) (A) (A) (A) (A) (A) (A) (A) (A) (A) (A) (A)
                 (A) (A) (A) (A) (A) (A) (A) (A) (A) (A) (A) (A)
                 (A) (A) (A) (A) (A) (A) (A) (A) (A) (A) (A) (A)
                 (A) (A) (A) (A) (A) (A) (A) (A) (A) (A) (A) (A)
                 (A) (A) (A) (A) (A) (A) (A) (A) (A) (A) (A) (A)
                 (A) (A) (A) (A) (A) (A) (A) (A) (A) (A) (A) (A)
                 (A) (A) (A) (A) (A) (A) (A) (A) (A) (A) (A) (A)
                 (A) (A) (A) (A) (A) (A) (A) (A) (A) (A) (A) (A)
                 (A) (A) (A) (A) (A) (A) (A) (A) (A) (A) (A) (A)
                 (A) (A) (A) (A) (A) (A) (A) (A) (A) (A) (A) (A)
                 (A) (A) (A) (A) (A) (A) (A) (A) (A) (A) (A) (A)
                 (A) (A) (A) (A) (A) (A) (A) (A) (A) (A) (A) (A)
                 (A) (A) (A) (A) (A) (A) (A) (A) (A) (A) (A) (A)
                 (A) (A) (A) (A) (A) (A) (A) (A) (A) (A) (A) (A)
                 (A) (A) (A) (A) (A) (A) (A) (A) (A) (A) (A) (A)
                 (A) (A) (A) (A) (A) (A) (A) (A) (A) (A) (A) (A)
                 (A) (A) (A) (A) (A) (A) (A) (A) (A) (A) (A) (A)
                 (A) (A) (A) (A) (A) (A) (A) (A) (A) (A) (A) (A)
                 (A) (A) (A) (A) (A) (A) (A) (A) (A) (A) (A) (A)
                 (A) (A) (A) (A) (A) (A) (A) (A) (A) (A) (A) (A)
                 (A) (A) (A) (A) (A) (A) (A) (A) (A) (A) (A) (A)
                 (A) (A) (A) (A) (A) (A) (A) (A) (A) (A) (A) (A)
                 (A) (A) (A) (A) (A) (A) (A) (A) (A) (A) (A) (A)
                 (A) (A) (A) (A) (A) (A) (A) (A) (A) (A) (A) (A)
                 (A) (A) (A) (A) (A) (A) (A) (A) (A) (A) (A) (A)
                 (A) (A) (A) (A) (A) (A) (A) (A) (A) (A) (A) (A)
                 (A) (A) (A) (A) (A) (A) (A) (A) (A) (A) (A) (A)
                 (A) (A) (A) (A) (A) (A) (A) (A) (A) (A) (A) (A)
                 (A) (A) (A) (A) (A) (A) (A) (A) (A) (A) (A) (A)
                 (A) (A) (A) (A) (A) (A) (A) (A) (A) (A) (A) (A)
                 (A) (A) (A) (A) (A) (A) (A) (A) (A) (A) (A) (A)
                 (A) (A) (A) (A) (A) (A) (A) (A) (A) (A) (A) (A)
                 (A) (A) (A) (A) (A) (A) (A) (A) (A) (A) (A) (A)
                 (A) (A) (A) (A) (A) (A) (A) (A) (A) (A) (A) (A)
                 (A) (A) (A) (A) (A) (A) (A) (A) (A) (A) (A) (A)
                 (A) (A) (A) (A) (A) (A) (A) (A) (A) (A) (A) (A)
                 (A) (A) (A) (A) (A) (A) (A) (A) (A) (A) (A) (A)
                 (A) (A) (A) (A) (A) (A) (A) (A) (A) (A) (A) (A)
                 (A) (A) (A) (A) (A) (A) (A) (A) (A) (A) (A) (A)
                 (A) (A) (A) (A) (A) (A) (A) (A) (A) (A) (A) (A)
                 (A) (A) (A) (A) (A) (A) (A) (A) (A) (A) (A) (A)
                 (A) (A) (A) (A) (A) (A) (A) (A) (A) (A) (A) (A)
                 (A) (A) (A) (A) (A) (A) (A) (A) (A) (A) (A) (A)
                 (A) (A) (A) (A) (A) (A) (A) (A) (A) (A) (A) (A)
                 (A) (A) (A) (A) (A) (A) (A) (A) (A) (A) (A) (A)
                 (A) (A) (A) (A) (A) (A) (A) (A) (A) (A) (A) (A)
                 (A) (A) (A) (A) (A) (A) (A) (A) (A) (A) (A) (A)
                 (A) (A) (A) (A) (A) (A) (A) (A) (A) (A) (A) (A)
                 (A) (A) (A) (A) (A) (A) (A) (A) (A) (A) (A) (A)
                 (A) (A) (A) (A) (A) (A) (A) (A) (A) (A) (A) (A)
                 (A) (A) (A) (A) (A) (A) (A) (A) (A) (A) (A) (A)
                 (A) (A) (A) (A) (A) (A) (A) (A) (A) (A) (A) (A)
                 (A) (A) (A) (A) (A) (A) (A) (A) (A) (A) (A) (A)
                 (A) (A) (A) (A) (A) (A) (A) (A) (A) (A) (A) (A)
                 (A) (A) (A) (A) (A) (A) (A) (A) (A) (A) (A) (A)
                 (A) (A) (A) (A) (A) (A) (A) (A) (A) (A) (A) (A)
                 (A) (A) (A) (A) (A) (A) (A) (A) (A) (A) (A) (A)
                 (A) (A) (A) (A) (A) (A) (A) (A) (A) (A) (A) (A)
                 (A) (A) (A) (A) (A) (A) (A) (A) (A) (A) (A) (A)
                 (A) (A) (A) (A) (A) (A) (A) (A) (A) (A) (A) (A)
                 (A) (A) (A) (A) (A) (A)
 The electronic state is 1-A.
 Alpha  occ. eigenvalues --  -14.37691 -14.37501 -14.37451 -14.37345 -14.37341
 Alpha  occ. eigenvalues --  -14.37246 -14.37240 -14.37045 -14.36872 -14.36848
 Alpha  occ. eigenvalues --  -14.36159 -14.35390 -10.28409 -10.28299 -10.27055
 Alpha  occ. eigenvalues --  -10.26392 -10.26368 -10.26269 -10.26239 -10.26173
 Alpha  occ. eigenvalues --  -10.26082 -10.26081 -10.26016 -10.26006 -10.25962
 Alpha  occ. eigenvalues --  -10.25666 -10.25193 -10.24625 -10.24508 -10.24360
 Alpha  occ. eigenvalues --  -10.24168 -10.23864 -10.23803 -10.23751 -10.23692
 Alpha  occ. eigenvalues --  -10.23684 -10.23677 -10.23581 -10.23550 -10.23487
 Alpha  occ. eigenvalues --  -10.23467 -10.23458 -10.23292 -10.23203 -10.23056
 Alpha  occ. eigenvalues --  -10.23029 -10.22907 -10.22846 -10.22815 -10.22722
 Alpha  occ. eigenvalues --  -10.22396 -10.21895 -10.21081 -10.20826 -10.20801
 Alpha  occ. eigenvalues --  -10.20766 -10.20683 -10.20413 -10.20387 -10.20356
 Alpha  occ. eigenvalues --  -10.20348 -10.19835 -10.19732  -0.99886  -0.99529
 Alpha  occ. eigenvalues --   -0.98662  -0.97314  -0.97117  -0.97051  -0.94920
 Alpha  occ. eigenvalues --   -0.94565  -0.94051  -0.89835  -0.89457  -0.89188
 Alpha  occ. eigenvalues --   -0.88886  -0.88668  -0.87268  -0.83539  -0.83279
 Alpha  occ. eigenvalues --   -0.82935  -0.82140  -0.81768  -0.81052  -0.79798
 Alpha  occ. eigenvalues --   -0.78673  -0.78128  -0.77855  -0.77593  -0.77540
 Alpha  occ. eigenvalues --   -0.72043  -0.71865  -0.71825  -0.71393  -0.71286
 Alpha  occ. eigenvalues --   -0.71265  -0.71199  -0.71118  -0.71089  -0.70596
 Alpha  occ. eigenvalues --   -0.70072  -0.69528  -0.68026  -0.67401  -0.67334
 Alpha  occ. eigenvalues --   -0.66187  -0.65531  -0.65172  -0.64654  -0.63968
 Alpha  occ. eigenvalues --   -0.63150  -0.60581  -0.60256  -0.60155  -0.59073
 Alpha  occ. eigenvalues --   -0.58889  -0.58156  -0.57748  -0.57210  -0.56582
 Alpha  occ. eigenvalues --   -0.55564  -0.54196  -0.53875  -0.53624  -0.53575
 Alpha  occ. eigenvalues --   -0.53324  -0.52977  -0.52408  -0.51544  -0.51342
 Alpha  occ. eigenvalues --   -0.51030  -0.50874  -0.50565  -0.49958  -0.49507
 Alpha  occ. eigenvalues --   -0.49348  -0.48809  -0.48620  -0.48260  -0.48070
 Alpha  occ. eigenvalues --   -0.47871  -0.47671  -0.47525  -0.47343  -0.47068
 Alpha  occ. eigenvalues --   -0.46869  -0.46711  -0.46389  -0.46129  -0.46009
 Alpha  occ. eigenvalues --   -0.45721  -0.45379  -0.45092  -0.45013  -0.44838
 Alpha  occ. eigenvalues --   -0.44577  -0.43835  -0.43629  -0.43582  -0.42628
 Alpha  occ. eigenvalues --   -0.42518  -0.42424  -0.41843  -0.41727  -0.41502
 Alpha  occ. eigenvalues --   -0.41305  -0.41129  -0.40752  -0.40695  -0.40641
 Alpha  occ. eigenvalues --   -0.40502  -0.40338  -0.40304  -0.40046  -0.39856
 Alpha  occ. eigenvalues --   -0.39723  -0.39651  -0.39487  -0.39344  -0.39254
 Alpha  occ. eigenvalues --   -0.39178  -0.39050  -0.38899  -0.38493  -0.38407
 Alpha  occ. eigenvalues --   -0.38134  -0.37818  -0.37746  -0.37558  -0.37478
 Alpha  occ. eigenvalues --   -0.37363  -0.37087  -0.36856  -0.36755  -0.36288
 Alpha  occ. eigenvalues --   -0.36077  -0.35976  -0.35889  -0.35516  -0.35211
 Alpha  occ. eigenvalues --   -0.35097  -0.35028  -0.34803  -0.34530  -0.34324
 Alpha  occ. eigenvalues --   -0.34214  -0.34097  -0.33875  -0.33597  -0.33364
 Alpha  occ. eigenvalues --   -0.31629  -0.31168  -0.30820  -0.26938  -0.26762
 Alpha  occ. eigenvalues --   -0.26688  -0.26639  -0.26394  -0.26224  -0.26140
 Alpha  occ. eigenvalues --   -0.26020  -0.25955  -0.25693  -0.25483  -0.25380
 Alpha  occ. eigenvalues --   -0.25210  -0.25014  -0.24650  -0.24358  -0.24105
 Alpha  occ. eigenvalues --   -0.23195
 Alpha virt. eigenvalues --   -0.05649  -0.05347  -0.05034  -0.03926  -0.03760
 Alpha virt. eigenvalues --   -0.03618   0.01256   0.01793   0.01973   0.02306
 Alpha virt. eigenvalues --    0.03252   0.03800   0.04312   0.04671   0.04875
 Alpha virt. eigenvalues --    0.05160   0.05323   0.05770   0.05795   0.06077
 Alpha virt. eigenvalues --    0.06241   0.06375   0.06609   0.06786   0.06906
 Alpha virt. eigenvalues --    0.07398   0.07548   0.07774   0.07991   0.08256
 Alpha virt. eigenvalues --    0.08457   0.08867   0.09143   0.09192   0.09293
 Alpha virt. eigenvalues --    0.09378   0.09770   0.09807   0.10105   0.10167
 Alpha virt. eigenvalues --    0.10394   0.10581   0.10687   0.11135   0.11280
 Alpha virt. eigenvalues --    0.11382   0.11464   0.11572   0.11794   0.11935
 Alpha virt. eigenvalues --    0.12061   0.12150   0.12258   0.12580   0.12706
 Alpha virt. eigenvalues --    0.12724   0.12926   0.12976   0.13273   0.13280
 Alpha virt. eigenvalues --    0.13585   0.13815   0.14022   0.14235   0.14433
 Alpha virt. eigenvalues --    0.14549   0.14801   0.14890   0.15043   0.15157
 Alpha virt. eigenvalues --    0.15349   0.15484   0.15599   0.15830   0.15929
 Alpha virt. eigenvalues --    0.15977   0.16077   0.16297   0.16339   0.16477
 Alpha virt. eigenvalues --    0.16534   0.16630   0.16716   0.16750   0.16895
 Alpha virt. eigenvalues --    0.17043   0.17095   0.17106   0.17376   0.17536
 Alpha virt. eigenvalues --    0.17640   0.17701   0.17757   0.18049   0.18222
 Alpha virt. eigenvalues --    0.18283   0.18465   0.18569   0.18789   0.19002
 Alpha virt. eigenvalues --    0.19134   0.19347   0.19774   0.19908   0.19980
 Alpha virt. eigenvalues --    0.20200   0.20427   0.20556   0.20596   0.20919
 Alpha virt. eigenvalues --    0.21167   0.21417   0.21516   0.21586   0.21638
 Alpha virt. eigenvalues --    0.21765   0.22159   0.22287   0.22352   0.22563
 Alpha virt. eigenvalues --    0.22802   0.23031   0.23203   0.23377   0.23561
 Alpha virt. eigenvalues --    0.23732   0.23928   0.24056   0.24135   0.24420
 Alpha virt. eigenvalues --    0.24783   0.24883   0.24971   0.25144   0.25342
 Alpha virt. eigenvalues --    0.25519   0.25671   0.25705   0.25935   0.26191
 Alpha virt. eigenvalues --    0.26403   0.26701   0.26824   0.27019   0.27254
 Alpha virt. eigenvalues --    0.27334   0.27499   0.27885   0.27963   0.28088
 Alpha virt. eigenvalues --    0.28289   0.28371   0.28467   0.28701   0.28906
 Alpha virt. eigenvalues --    0.29363   0.29447   0.29624   0.29728   0.29796
 Alpha virt. eigenvalues --    0.30003   0.30257   0.30323   0.30597   0.30678
 Alpha virt. eigenvalues --    0.30766   0.30978   0.31172   0.31374   0.31416
 Alpha virt. eigenvalues --    0.31570   0.31647   0.31694   0.31925   0.32223
 Alpha virt. eigenvalues --    0.32399   0.32512   0.32790   0.32919   0.33049
 Alpha virt. eigenvalues --    0.33236   0.33460   0.33602   0.33756   0.33816
 Alpha virt. eigenvalues --    0.34046   0.34271   0.34356   0.34421   0.34624
 Alpha virt. eigenvalues --    0.34764   0.34913   0.35229   0.35364   0.35431
 Alpha virt. eigenvalues --    0.35587   0.35719   0.36127   0.36409   0.36421
 Alpha virt. eigenvalues --    0.36878   0.37007   0.37035   0.37118   0.37231
 Alpha virt. eigenvalues --    0.37376   0.37470   0.37585   0.38010   0.38099
 Alpha virt. eigenvalues --    0.38269   0.38430   0.38614   0.38653   0.38714
 Alpha virt. eigenvalues --    0.38890   0.39028   0.39060   0.39228   0.39412
 Alpha virt. eigenvalues --    0.39481   0.39822   0.39940   0.40147   0.40378
 Alpha virt. eigenvalues --    0.40421   0.40525   0.40647   0.40909   0.40968
 Alpha virt. eigenvalues --    0.41181   0.41367   0.41551   0.41743   0.41962
 Alpha virt. eigenvalues --    0.42013   0.42209   0.42338   0.42478   0.42560
 Alpha virt. eigenvalues --    0.42691   0.42837   0.43002   0.43175   0.43356
 Alpha virt. eigenvalues --    0.43545   0.43747   0.43913   0.44059   0.44151
 Alpha virt. eigenvalues --    0.44294   0.44501   0.44604   0.44718   0.44806
 Alpha virt. eigenvalues --    0.44862   0.44974   0.45091   0.45173   0.45383
 Alpha virt. eigenvalues --    0.45439   0.45549   0.45837   0.45884   0.45995
 Alpha virt. eigenvalues --    0.46087   0.46278   0.46395   0.46438   0.46637
 Alpha virt. eigenvalues --    0.46787   0.46868   0.47033   0.47157   0.47288
 Alpha virt. eigenvalues --    0.47348   0.47434   0.47621   0.47676   0.47819
 Alpha virt. eigenvalues --    0.47994   0.48213   0.48237   0.48328   0.48465
 Alpha virt. eigenvalues --    0.48509   0.48621   0.48700   0.48823   0.48966
 Alpha virt. eigenvalues --    0.49093   0.49261   0.49461   0.49493   0.49718
 Alpha virt. eigenvalues --    0.49887   0.49936   0.50008   0.50244   0.50369
 Alpha virt. eigenvalues --    0.50526   0.50746   0.50907   0.50914   0.51146
 Alpha virt. eigenvalues --    0.51361   0.51590   0.51772   0.51882   0.52118
 Alpha virt. eigenvalues --    0.52234   0.52610   0.52711   0.52827   0.53060
 Alpha virt. eigenvalues --    0.53333   0.53482   0.53613   0.53778   0.53964
 Alpha virt. eigenvalues --    0.54372   0.54401   0.54778   0.54953   0.55090
 Alpha virt. eigenvalues --    0.55146   0.55317   0.55492   0.55704   0.55803
 Alpha virt. eigenvalues --    0.56186   0.56416   0.56484   0.56729   0.56861
 Alpha virt. eigenvalues --    0.56876   0.56926   0.57455   0.57477   0.57665
 Alpha virt. eigenvalues --    0.58100   0.58310   0.58458   0.58527   0.58626
 Alpha virt. eigenvalues --    0.58903   0.59176   0.59239   0.59488   0.59552
 Alpha virt. eigenvalues --    0.59658   0.59803   0.59994   0.60233   0.60608
 Alpha virt. eigenvalues --    0.60932   0.61053   0.61148   0.61307   0.61491
 Alpha virt. eigenvalues --    0.61643   0.61967   0.62083   0.62435   0.62679
 Alpha virt. eigenvalues --    0.62801   0.62981   0.63233   0.63381   0.63691
 Alpha virt. eigenvalues --    0.63877   0.63946   0.64097   0.64244   0.64393
 Alpha virt. eigenvalues --    0.64739   0.65022   0.65044   0.65156   0.65573
 Alpha virt. eigenvalues --    0.65675   0.65703   0.65823   0.66229   0.66516
 Alpha virt. eigenvalues --    0.66716   0.66758   0.66809   0.67107   0.67365
 Alpha virt. eigenvalues --    0.67421   0.67726   0.67927   0.68196   0.68329
 Alpha virt. eigenvalues --    0.68558   0.68744   0.68854   0.69191   0.69413
 Alpha virt. eigenvalues --    0.69465   0.69680   0.69944   0.70135   0.70453
 Alpha virt. eigenvalues --    0.70631   0.70965   0.71228   0.71410   0.71678
 Alpha virt. eigenvalues --    0.71758   0.71979   0.72041   0.72217   0.72445
 Alpha virt. eigenvalues --    0.72624   0.72910   0.73064   0.73335   0.73441
 Alpha virt. eigenvalues --    0.73773   0.73925   0.74128   0.74398   0.74697
 Alpha virt. eigenvalues --    0.74809   0.74926   0.75275   0.75444   0.75566
 Alpha virt. eigenvalues --    0.75905   0.76033   0.76163   0.76449   0.76815
 Alpha virt. eigenvalues --    0.76933   0.77197   0.77400   0.77595   0.77930
 Alpha virt. eigenvalues --    0.78192   0.78230   0.78537   0.78844   0.78967
 Alpha virt. eigenvalues --    0.79139   0.79176   0.79712   0.79828   0.79985
 Alpha virt. eigenvalues --    0.80151   0.80592   0.80753   0.80946   0.81232
 Alpha virt. eigenvalues --    0.81367   0.81528   0.81941   0.82072   0.82451
 Alpha virt. eigenvalues --    0.82687   0.82795   0.83136   0.83205   0.83575
 Alpha virt. eigenvalues --    0.83619   0.83848   0.83917   0.84269   0.84562
 Alpha virt. eigenvalues --    0.84817   0.84941   0.85280   0.85811   0.85863
 Alpha virt. eigenvalues --    0.85996   0.86192   0.86354   0.86613   0.86652
 Alpha virt. eigenvalues --    0.86882   0.87086   0.87139   0.87554   0.87686
 Alpha virt. eigenvalues --    0.87706   0.87909   0.88247   0.88410   0.88607
 Alpha virt. eigenvalues --    0.88797   0.89058   0.89247   0.89517   0.89800
 Alpha virt. eigenvalues --    0.89863   0.90192   0.90462   0.90562   0.90671
 Alpha virt. eigenvalues --    0.90791   0.90922   0.91512   0.91592   0.91625
 Alpha virt. eigenvalues --    0.91855   0.92162   0.92250   0.92338   0.92632
 Alpha virt. eigenvalues --    0.92854   0.93039   0.93273   0.93510   0.93778
 Alpha virt. eigenvalues --    0.93891   0.94111   0.94406   0.94596   0.95056
 Alpha virt. eigenvalues --    0.95257   0.95375   0.95592   0.95780   0.95921
 Alpha virt. eigenvalues --    0.96465   0.96962   0.97056   0.97506   0.98017
 Alpha virt. eigenvalues --    0.98064   0.98350   0.98503   0.99211   0.99321
 Alpha virt. eigenvalues --    0.99545   0.99929   0.99934   1.00157   1.00274
[...]
 Alpha virt. eigenvalues --    3.58397   3.58740   3.59079   3.59281   3.59572
 Alpha virt. eigenvalues --    3.59893   3.60057   3.60399   3.60696   3.60954
 Alpha virt. eigenvalues --    3.61000   3.61118   3.61574   3.61647   3.62138
 Alpha virt. eigenvalues --    3.62353   3.62430   3.62599   3.63160   3.63294
 Alpha virt. eigenvalues --    3.63572   3.63881   3.64088   3.64362   3.64606
 Alpha virt. eigenvalues --    3.64828   3.65111   3.65159   3.65398   3.65962
 Alpha virt. eigenvalues --    3.66573   3.66799   3.67046   3.67225   3.67432
 Alpha virt. eigenvalues --    3.67648   3.68216   3.68570   3.68840   3.69569
 Alpha virt. eigenvalues --    3.69598   3.69929   3.69997   3.70482   3.70725
 Alpha virt. eigenvalues --    3.71045   3.71359   3.71832   3.71918   3.72102
 Alpha virt. eigenvalues --    3.72679   3.73007   3.73329   3.73481   3.73708
 Alpha virt. eigenvalues --    3.74069   3.74454   3.74836   3.74991   3.75463
 Alpha virt. eigenvalues --    3.75853   3.76125   3.76515   3.76863   3.76902
 Alpha virt. eigenvalues --    3.77340   3.77586   3.78129   3.78451   3.78651
 Alpha virt. eigenvalues --    3.79236   3.79780   3.80074   3.80475   3.80624
 Alpha virt. eigenvalues --    3.80733   3.81649   3.81937   3.82054   3.82655
 Alpha virt. eigenvalues --    3.83066   3.83475   3.83614   3.83883   3.84284
 Alpha virt. eigenvalues --    3.84611   3.84883   3.85119   3.85384   3.85785
 Alpha virt. eigenvalues --    3.86596   3.86743   3.87211   3.87505   3.87685
 Alpha virt. eigenvalues --    3.87892   3.88402   3.88534   3.89033   3.89604
 Alpha virt. eigenvalues --    3.90137   3.90512   3.90910   3.91631   3.91947
 Alpha virt. eigenvalues --    3.92392   3.92676   3.92731   3.93197   3.93887
 Alpha virt. eigenvalues --    3.94157   3.94463   3.94900   3.95039   3.95353
 Alpha virt. eigenvalues --    3.95967   3.96231   3.96602   3.97103   3.97760
 Alpha virt. eigenvalues --    3.98291   3.98345   3.98716   3.98912   3.99766
 Alpha virt. eigenvalues --    4.00140   4.00254   4.01092   4.01419   4.01889
 Alpha virt. eigenvalues --    4.01982   4.02774   4.03072   4.03154   4.03841
 Alpha virt. eigenvalues --    4.04200   4.04529   4.05278   4.05603   4.06051
 Alpha virt. eigenvalues --    4.06307   4.06516   4.06953   4.07256   4.07555
 Alpha virt. eigenvalues --    4.07763   4.08084   4.08134   4.08513   4.09180
 Alpha virt. eigenvalues --    4.09604   4.09888   4.10076   4.10338   4.10664
 Alpha virt. eigenvalues --    4.10975   4.11243   4.11420   4.11530   4.11740
 Alpha virt. eigenvalues --    4.11918   4.12270   4.12409   4.12725   4.12963
 Alpha virt. eigenvalues --    4.13147   4.13457   4.13910   4.14212   4.14540
 Alpha virt. eigenvalues --    4.14985   4.15464   4.15682   4.15973   4.16362
 Alpha virt. eigenvalues --    4.16744   4.16904   4.17135   4.17602   4.17846
 Alpha virt. eigenvalues --    4.18154   4.18341   4.18653   4.18754   4.19167
 Alpha virt. eigenvalues --    4.19457   4.19645   4.19961   4.20205   4.20929
 Alpha virt. eigenvalues --    4.21043   4.21374   4.21441   4.21585   4.21923
 Alpha virt. eigenvalues --    4.22053   4.22164   4.23220   4.23351   4.23576
 Alpha virt. eigenvalues --    4.24185   4.24315   4.24521   4.25103   4.25444
 Alpha virt. eigenvalues --    4.25788   4.26020   4.26222   4.26513   4.26857
 Alpha virt. eigenvalues --    4.27312   4.27464   4.27944   4.28185   4.28416
 Alpha virt. eigenvalues --    4.28659   4.28800   4.28965   4.29187   4.29984
 Alpha virt. eigenvalues --    4.30289   4.30783   4.31179   4.31506   4.31603
 Alpha virt. eigenvalues --    4.31850   4.32156   4.32526   4.32995   4.33540
 Alpha virt. eigenvalues --    4.34331   4.34637   4.35302   4.35614   4.35948
 Alpha virt. eigenvalues --    4.36366   4.37435   4.37986   4.38191   4.38670
 Alpha virt. eigenvalues --    4.38944   4.39791   4.40287   4.40461   4.40759
 Alpha virt. eigenvalues --    4.41111   4.41495   4.41983   4.42340   4.42456
 Alpha virt. eigenvalues --    4.42836   4.43066   4.44005   4.44251   4.44946
 Alpha virt. eigenvalues --    4.45261   4.45705   4.45850   4.46041   4.46343
 Alpha virt. eigenvalues --    4.46523   4.47237   4.47461   4.47732   4.48133
 Alpha virt. eigenvalues --    4.48378   4.48644   4.49073   4.49625   4.49728
 Alpha virt. eigenvalues --    4.50062   4.50195   4.50526   4.50916   4.51334
 Alpha virt. eigenvalues --    4.52156   4.52408   4.52833   4.53212   4.53331
 Alpha virt. eigenvalues --    4.53748   4.54329   4.54817   4.55346   4.55576
 Alpha virt. eigenvalues --    4.56166   4.56704   4.57023   4.57657   4.57840
 Alpha virt. eigenvalues --    4.59045   4.60009   4.60387   4.60539   4.61494
 Alpha virt. eigenvalues --    4.62154   4.62466   4.63097   4.63946   4.64656
 Alpha virt. eigenvalues --    4.65187   4.65831   4.66594   4.67646   4.68644
 Alpha virt. eigenvalues --    4.69062   4.69185   4.69619   4.70089   4.71225
 Alpha virt. eigenvalues --    4.71898   4.72046   4.72332   4.72474   4.73229
 Alpha virt. eigenvalues --    4.73966   4.74455   4.75142   4.75369   4.75757
 Alpha virt. eigenvalues --    4.75923   4.76644   4.76879   4.77532   4.78616
 Alpha virt. eigenvalues --    4.79109   4.80387   4.81537   4.81944   4.82425
 Alpha virt. eigenvalues --    4.82794   4.83597   4.83687   4.84138   4.84251
 Alpha virt. eigenvalues --    4.85206   4.85894   4.86520   4.86940   4.87878
 Alpha virt. eigenvalues --    4.88708   4.88742   4.89423   4.89669   4.89752
 Alpha virt. eigenvalues --    4.90333   4.90843   4.90936   4.91310   4.91499
 Alpha virt. eigenvalues --    4.92644   4.92939   4.93324   4.93585   4.94140
 Alpha virt. eigenvalues --    4.94675   4.95516   4.95994   4.96242   4.96375
 Alpha virt. eigenvalues --    4.96631   4.96997   4.97477   4.98188   4.98811
 Alpha virt. eigenvalues --    4.99176   4.99806   5.00549   5.00692   5.01154
 Alpha virt. eigenvalues --    5.01493   5.02092   5.02585   5.03719   5.04394
 Alpha virt. eigenvalues --    5.04564   5.06006   5.06607   5.07150   5.08017
 Alpha virt. eigenvalues --    5.08390   5.09395   5.10230   5.10668   5.10972
 Alpha virt. eigenvalues --    5.11497   5.11608   5.12064   5.12708   5.13223
 Alpha virt. eigenvalues --    5.13906   5.14133   5.14337   5.15277   5.15498
 Alpha virt. eigenvalues --    5.16033   5.16756   5.17635   5.18492   5.19293
 Alpha virt. eigenvalues --    5.19731   5.19802   5.20247   5.20991   5.22395
 Alpha virt. eigenvalues --    5.22916   5.23350   5.24679   5.25375   5.25526
 Alpha virt. eigenvalues --    5.25942   5.27274   5.27938   5.28103   5.28763
 Alpha virt. eigenvalues --    5.29060   5.29995   5.30280   5.30560   5.31001
 Alpha virt. eigenvalues --    5.31488   5.32225   5.33496   5.33837   5.34070
 Alpha virt. eigenvalues --    5.34870   5.36153   5.36638   5.37166   5.37581
 Alpha virt. eigenvalues --    5.37779   5.38660   5.39244   5.39739   5.40183
 Alpha virt. eigenvalues --    5.40527   5.40746   5.41166   5.41663   5.42825
 Alpha virt. eigenvalues --    5.43183   5.43368   5.43892   5.44028   5.44594
 Alpha virt. eigenvalues --    5.44783   5.44928   5.46054   5.46856   5.47359
 Alpha virt. eigenvalues --    5.47625   5.47777   5.48492   5.49008   5.49272
 Alpha virt. eigenvalues --    5.49620   5.50272   5.52362   5.53282   5.53515
 Alpha virt. eigenvalues --    5.55783   5.56427   5.57049   5.57845   5.59191
 Alpha virt. eigenvalues --    5.60453   5.61599   5.62080   5.62720   5.62958
 Alpha virt. eigenvalues --    5.65362   5.65839   5.66429   5.66607   5.67154
 Alpha virt. eigenvalues --    5.68868   5.69879   5.70096   5.71997   5.72171
 Alpha virt. eigenvalues --    5.73954   5.76038   5.76224   5.76701   5.77600
 Alpha virt. eigenvalues --    5.78065   5.78275   5.78545   5.79379   5.80067
 Alpha virt. eigenvalues --    5.81427   5.81826   5.83087   5.83909   5.85731
 Alpha virt. eigenvalues --    5.86149   5.87998   5.88996   5.94075   5.94291
 Alpha virt. eigenvalues --    5.94875   5.95681   5.97495   5.99284   6.00016
 Alpha virt. eigenvalues --    6.01657   6.03806   6.06515   6.06940   6.09506
 Alpha virt. eigenvalues --    6.09916   6.10912   6.12101   6.14565   6.15513
 Alpha virt. eigenvalues --    6.15821  22.47844  22.50035  22.51577  22.51749
 Alpha virt. eigenvalues --   22.52111  22.52404  22.53450  22.54639  22.55832
 Alpha virt. eigenvalues --   22.57038  22.58023  22.58704  22.59005  22.59925
 Alpha virt. eigenvalues --   22.61104  22.64214  22.69576  22.70840  22.71687
 Alpha virt. eigenvalues --   22.72530  22.73899  22.80210  22.80551  22.85305
 Alpha virt. eigenvalues --   22.88305  22.89996  22.90526  22.91402  22.92707
 Alpha virt. eigenvalues --   22.92993  22.93617  22.95005  22.96099  23.00575
 Alpha virt. eigenvalues --   23.00617  23.02735  23.10901  23.11853  23.12097
 Alpha virt. eigenvalues --   23.16466  23.17634  23.18233  23.18761  23.20049
 Alpha virt. eigenvalues --   23.20498  23.21535  23.22844  23.24342  23.53545
 Alpha virt. eigenvalues --   23.54063  23.54820  32.54482  32.59160  32.65997
 Alpha virt. eigenvalues --   32.71109  32.71860  32.77630  32.79352  32.79907
 Alpha virt. eigenvalues --   32.89426  32.94306  32.94457  32.98989
          Condensed to atoms (all electrons):
 Mulliken charges:
               1
     1  C    0.428869
     2  C   -0.151408
     3  C   -0.362568
     4  C    0.337532
     5  H    0.154584
     6  C   -0.352715
     7  C    0.340044
     8  H    0.113758
     9  C   -0.406648
    10  C   -0.174891
    11  H    0.100079
    12  C   -0.194152
    13  H    0.081620
    14  H    0.093204
    15  C    0.226799
    16  C   -0.006701
    17  C   -0.489856
    18  C    0.441590
    19  H    0.160413
    20  C   -0.360167
    21  C    0.380934
    22  H    0.134880
    23  C   -0.388458
    24  C   -0.173566
    25  H    0.144212
    26  C   -0.154365
    27  H    0.069453
    28  H    0.080681
    29  C    0.151503
    30  C    0.038157
    31  C   -0.310554
    32  C    0.381883
    33  H    0.195016
    34  C   -0.397929
    35  C    0.360147
    36  H    0.125011
    37  C   -0.296010
    38  C   -0.178400
    39  H    0.062446
    40  C   -0.190933
    41  H    0.080181
    42  H    0.068888
    43  C   -0.094711
    44  C    0.091358
    45  N   -0.237175
    46  H    0.129353
    47  N   -0.283529
    48  C   -0.415870
    49  C   -0.378089
    50  C   -0.116435
    51  C    0.104076
    52  N   -0.264702
    53  H    0.112308
    54  N   -0.228424
    55  C   -0.380301
    56  C   -0.430488
    57  C    0.063667
    58  C   -0.054816
    59  N   -0.338197
    60  C   -0.412622
    61  C   -0.382279
    62  N   -0.257892
    63  H    0.097129
    64  C    0.140335
    65  C   -0.080729
    66  N   -0.185662
    67  C   -0.344212
    68  C   -0.413019
    69  N   -0.183595
    70  H    0.114778
    71  H    0.122950
    72  C    0.181730
    73  C   -0.058216
    74  N   -0.185062
    75  C   -0.350167
    76  C   -0.436820
    77  N   -0.190598
    78  H    0.108672
    79  H    0.124796
    80  C    0.143926
    81  C   -0.059129
    82  N   -0.184053
    83  C   -0.351171
    84  C   -0.429003
    85  N   -0.197702
    86  H    0.109777
    87  H    0.171603
    88  H    0.078083
    89  H    0.157852
    90  H    0.189471
    91  H    0.223077
    92  H    0.085430
    93  H    0.197455
    94  H    0.199622
    95  H    0.074982
    96  H    0.092709
    97  H    0.124973
    98  H    0.123070
    99  H    0.132508
   100  H    0.076018
   101  H    0.114467
   102  H    0.117498
   103  H    0.125307
   104  H    0.072170
   105  H    0.099499
   106  H    0.145892
   107  H    0.098449
   108  H    0.075508
   109  H    0.128321
   110  H    0.146808
   111  H    0.074765
   112  H    0.123524
   113  H    0.154426
   114  H    0.085747
   115  H    0.115355
   116  H    0.121911
   117  H    0.110317
   118  H    0.134395
   119  H    0.126933
   120  H    0.122792
   121  H    0.107980
   122  H    0.135797
   123  H    0.160460
   124  H    0.113569
   125  H    0.123927
   126  H    0.123051
   127  H    0.131618
   128  H    0.125027
   129  H    0.147370
   130  H    0.130966
   131  H    0.111821
   132  H    0.120578
   133  H    0.113675
   134  H    0.120756
   135  H    0.129717
 Sum of Mulliken charges =   0.00000
 Mulliken charges with hydrogens summed into heavy atoms:
               1
     1  C    0.428869
     2  C   -0.076426
     3  C   -0.207983
     4  C    0.337532
     6  C   -0.238957
     7  C    0.340044
     9  C   -0.306568
    10  C   -0.093271
    12  C   -0.100948
    15  C    0.226799
    16  C    0.071382
    17  C   -0.329442
    18  C    0.441590
    20  C   -0.225286
    21  C    0.380934
    23  C   -0.244247
    24  C   -0.104113
    26  C   -0.073684
    29  C    0.151503
    30  C    0.123587
    31  C   -0.115539
    32  C    0.381883
    34  C   -0.272918
    35  C    0.360147
    37  C   -0.233564
    38  C   -0.098218
    40  C   -0.122046
    43  C    0.110659
    44  C    0.091358
    45  N   -0.037553
    47  N   -0.086073
    48  C   -0.031750
    49  C   -0.020817
    50  C    0.088582
    51  C    0.104076
    52  N   -0.093099
    54  N   -0.070572
    55  C   -0.032719
    56  C   -0.049937
    57  C    0.063667
    58  C    0.114483
    59  N   -0.115119
    60  C   -0.008385
    61  C   -0.038439
    62  N   -0.068420
    64  C    0.140335
    65  C    0.109557
    66  N   -0.185662
    67  C    0.016335
    68  C   -0.014940
    69  N   -0.183595
    72  C    0.181730
    73  C    0.125221
    74  N   -0.185062
    75  C    0.013981
    76  C   -0.034074
    77  N   -0.190598
    80  C    0.143926
    81  C    0.136395
    82  N   -0.184053
    83  C    0.012194
    84  C   -0.024988
    85  N   -0.197702
 Electronic spatial extent (au):  <R**2>=          47849.2125
 Charge=              0.0000 electrons
 Dipole moment (field-independent basis, Debye):
    X=              2.7222    Y=             -1.0639    Z=             -1.3442  Tot=              3.2170
 Quadrupole moment (field-independent basis, Debye-Ang):
   XX=           -385.5255   YY=           -372.8131   ZZ=           -366.2304
   XY=            -17.2215   XZ=             -6.8206   YZ=              7.9744
 Traceless Quadrupole moment (field-independent basis, Debye-Ang):
   XX=            -10.6692   YY=              2.0432   ZZ=              8.6259
   XY=            -17.2215   XZ=             -6.8206   YZ=              7.9744
 Octapole moment (field-independent basis, Debye-Ang**2):
  XXX=             -7.8911  YYY=             56.9159  ZZZ=              2.7988  XYY=             78.7242
  XXY=            -27.1784  XXZ=            -42.0295  XZZ=             40.3841  YZZ=            -37.0945
  YYZ=             -6.8640  XYZ=            -42.3640
 Hexadecapole moment (field-independent basis, Debye-Ang**3):
 XXXX=         -33343.1965 YYYY=         -19520.7377 ZZZZ=         -12717.1639 XXXY=           -946.9674
 XXXZ=           -291.0676 YYYX=            -71.4941 YYYZ=           -156.8140 ZZZX=             62.5192
 ZZZY=            155.0558 XXYY=          -8567.9519 XXZZ=          -7479.7523 YYZZ=          -5480.7161
 XXYZ=             50.4281 YYXZ=           -115.1607 ZZXY=            -12.2089
 N-N= 1.019199516396D+04 E-N=-2.652423578616D+04  KE= 2.629311449946D+03
 Leave Link  601 at Mon Oct 18 20:09:46 2021, MaxMem=  7864320000 cpu:              38.7 elap:               1.7
 (Enter /apps/gaussian/g16-c01-avx/g16/l9999.exe)
 Unable to Open any file for archive entry.
 1\1\GINC-CX3-6-18\SP\RPBE1PBE\def2TZVP\C51H72N12\ATARZIA\18-Oct-2021\0
 \\#P PBE1PBE/Def2TZVP SP SCF=(YQC,MaxCycle=900) int=(Grid=Superfinegri
 d) EmpiricalDispersion=GD3\\_3_alde1_6_ami2_1_opt_gas\\0,1\C,0,-3.9845
 ,-1.337,0.0777\C,0,-4.6071,-2.0069,1.2762\C,0,-3.1511,-2.0606,-0.7595\
 C,0,-2.5702,-1.4688,-1.8805\H,0,-2.9213,-3.0951,-0.5601\C,0,-2.8237,-0
 .1289,-2.15\C,0,-3.6465,0.6143,-1.3094\H,0,-2.3889,0.3625,-3.0072\C,0,
 -4.2208,0.0016,-0.1971\C,0,-3.8931,2.0294,-1.566\H,0,-4.8662,0.577,0.4
 523\C,0,-1.7339,-2.2553,-2.7812\H,0,-4.2554,2.5907,-0.6968\H,0,-1.272,
 -1.686,-3.5964\C,0,4.0834,-1.5185,0.6948\C,0,4.4814,-1.2991,2.1261\C,0
 ,4.6836,-0.8197,-0.3401\C,0,4.2498,-0.9914,-1.6563\H,0,5.4943,-0.1359,
 -0.1463\C,0,3.2256,-1.8895,-1.9268\C,0,2.6541,-2.641,-0.9025\H,0,2.871
 4,-2.0412,-2.9349\C,0,3.0857,-2.4411,0.4063\C,0,1.6316,-3.6362,-1.1895
 \H,0,2.6543,-3.0076,1.2174\C,0,4.8247,-0.2087,-2.7441\H,0,1.2064,-4.15
 46,-0.3161\H,0,4.2279,-0.212,-3.6643\C,0,1.1378,2.1664,0.2509\C,0,0.73
 95,1.6341,1.6106\C,0,0.1999,2.6348,-0.6535\C,0,0.5922,3.0525,-1.9258\H
 ,0,-0.8427,2.676,-0.3843\C,0,1.9344,3.0146,-2.2817\C,0,2.8923,2.5962,-
 1.3615\H,0,2.2636,3.3354,-3.2582\C,0,2.4797,2.1632,-0.104\C,0,4.3087,2
 .5907,-1.6831\H,0,3.2184,1.8172,0.6057\C,0,-0.4085,3.5061,-2.885\H,0,4
 .9745,2.3075,-0.8542\H,0,-0.1471,3.3687,-3.9471\C,0,-5.4204,-4.0057,2.
 0583\C,0,-3.9981,-3.8612,2.66\N,0,-5.4504,-3.1267,0.9028\H,0,-5.6667,-
 5.0287,1.7815\N,0,-3.5601,-2.5514,2.1617\C,0,-4.015,-3.9195,4.1853\C,0
 ,-3.056,-4.9347,2.1036\C,0,3.8559,-0.8461,4.2683\C,0,4.8483,0.2776,3.8
 159\N,0,3.3624,-1.468,3.0528\H,0,3.037,-0.4585,4.8723\N,0,5.0541,0.021
 2,2.3851\C,0,6.1902,0.155,4.5382\C,0,4.2505,1.6644,4.0404\C,0,-0.2101,
 -0.5073,2.0429\C,0,-1.2863,0.5184,1.62\N,0,1.0455,0.1877,1.7125\C,0,-0
 .3541,-1.8279,1.3024\C,0,-0.2485,-0.7484,3.5562\N,0,-0.6823,1.8167,1.8
 68\H,0,-2.2269,0.4089,2.1554\C,0,-0.8519,-4.3641,-3.4794\C,0,0.3091,-4
 .9197,-2.6181\N,0,-1.6086,-3.4983,-2.617\C,0,-1.7961,-5.521,-3.8345\C,
 0,-0.2877,-3.7366,-4.7572\N,0,1.2829,-3.9098,-2.3702\H,0,0.8033,-5.711
 6,-3.19\H,0,0.2005,-4.5058,-5.3493\C,0,-3.8673,3.9244,-3.0087\C,0,-2.4
 723,4.4013,-3.4875\N,0,-3.6985,2.5275,-2.7054\C,0,-4.858,4.0095,-4.175
 3\C,0,-4.3297,4.8191,-1.854\N,0,-1.4941,4.0265,-2.5177\H,0,-2.4867,5.4
 932,-3.5596\H,0,-5.2804,4.4734,-1.4523\C,0,6.4429,1.3022,-3.6051\C,0,6
 .1611,2.7338,-3.0491\N,0,5.9134,0.4125,-2.6103\C,0,7.957,1.0762,-3.645
 8\C,0,5.8503,1.1867,-5.0135\N,0,4.7602,2.8899,-2.8254\H,0,6.4789,3.466
 3,-3.7934\H,0,2.5664,-0.9356,2.6938\H,0,5.2462,-2.0416,2.4114\H,0,4.55
 04,0.7134,1.8379\H,0,-0.8302,2.0879,2.8334\H,0,1.3961,-0.1476,0.8188\H
 ,0,1.3238,2.1722,2.3736\H,0,-3.3495,-1.9117,2.9169\H,0,-5.0464,-3.5942
 ,0.0968\H,0,-5.2417,-1.2809,1.8157\H,0,4.3938,-1.6039,4.8465\H,0,4.143
 6,1.8622,5.1047\H,0,3.2681,1.7341,3.5739\H,0,4.8969,2.4277,3.6108\H,0,
 -6.1655,-3.645,2.7758\H,0,-3.0708,-4.9258,1.0166\H,0,-3.3551,-5.9202,2
 .4525\H,0,-2.0381,-4.7377,2.4306\H,0,-1.4781,0.4205,0.5472\H,0,-0.1679
 ,0.1902,4.101\H,0,0.5819,-1.3856,3.8497\H,0,-1.1791,-1.2377,3.8323\H,0
 ,-0.104,-5.3478,-1.6901\H,0,-1.087,-3.2957,-5.3501\H,0,0.4485,-2.9765,
 -4.5108\H,0,-2.2532,3.9837,-4.483\H,0,-4.4632,5.8348,-2.2176\H,0,-3.57
 95,4.8269,-1.0672\H,0,6.7456,2.8562,-2.1257\H,0,6.8625,0.9417,4.2058\H
 ,0,6.6482,-0.8039,4.3113\H,0,6.0515,0.2372,5.6136\H,0,-3.0065,-3.8048,
 4.5781\H,0,-4.409,-4.8764,4.5194\H,0,-4.6426,-3.1283,4.5935\H,0,0.3953
 ,-2.5327,1.6529\H,0,-0.2302,-1.6865,0.2294\H,0,-1.3451,-2.2397,1.482\H
 ,0,-1.2677,-6.286,-4.3974\H,0,-2.623,-5.1485,-4.4348\H,0,-2.201,-5.960
 9,-2.9271\H,0,5.902,0.1572,-5.364\H,0,6.4201,1.8133,-5.6946\H,0,4.8166
 ,1.523,-5.0213\H,0,8.3553,1.066,-2.635\H,0,8.4462,1.8613,-4.2167\H,0,8
 .1713,0.116,-4.1092\H,0,-4.8849,5.0194,-4.5769\H,0,-5.8544,3.7378,-3.8
 342\H,0,-4.5641,3.319,-4.9613\\Version=ES64L-G16RevC.01\State=1-A\HF=-
 2641.6704045\RMSD=2.703e-09\Dipole=-0.9983897,-0.1952765,0.7529668\Qua
 drupole=-12.1649481,0.3508284,11.8141197,3.0736721,-11.1158377,-1.0630
 203\PG=C01 [X(C51H72N12)]\\@
 The archive entry for this job was punched.


 THE PROGRESS OF RIVERS TO THE SEA IS NOT AS RAPID
 AS THAT OF MAN TO ERROR.
                                              -- VOLTAIRE
 Job cpu time:       2 days 12 hours 27 minutes 26.4 seconds.
 Elapsed time:       0 days  1 hours 54 minutes 29.1 seconds.
 File lengths (MBytes):  RWF=   3304 Int=      0 D2E=      0 Chk=    336 Scr=     16
 Normal termination of Gaussian 16 at Mon Oct 18 20:09:46 2021.
