 Entering Gaussian System, Link 0=g16
 Initial command:
 /apps/gaussian/g16-c01-avx/g16/l1.exe "/rds/general/ephemeral/user/atarzia/ephemeral/xtb_spe_DFT/Gau-1167924.inp" -scrdir="/rds/general/ephemeral/user/atarzia/ephemeral/xtb_spe_DFT/"
 Entering Link 1 = /apps/gaussian/g16-c01-avx/g16/l1.exe PID=   1167925.
  
 Copyright (c) 1988-2019, Gaussian, Inc.  All Rights Reserved.
  
 This is part of the Gaussian(R) 16 program.  It is based on
 the Gaussian(R) 09 system (copyright 2009, Gaussian, Inc.),
 the Gaussian(R) 03 system (copyright 2003, Gaussian, Inc.),
 the Gaussian(R) 98 system (copyright 1998, Gaussian, Inc.),
 the Gaussian(R) 94 system (copyright 1995, Gaussian, Inc.),
 the Gaussian 92(TM) system (copyright 1992, Gaussian, Inc.),
 the Gaussian 90(TM) system (copyright 1990, Gaussian, Inc.),
 the Gaussian 88(TM) system (copyright 1988, Gaussian, Inc.),
 the Gaussian 86(TM) system (copyright 1986, Carnegie Mellon
 University), and the Gaussian 82(TM) system (copyright 1983,
 Carnegie Mellon University). Gaussian is a federally registered
 trademark of Gaussian, Inc.
  
 This software contains proprietary and confidential information,
 including trade secrets, belonging to Gaussian, Inc.
  
 This software is provided under written license and may be
 used, copied, transmitted, or stored only in accord with that
 written license.
  
 The following legend is applicable only to US Government
 contracts under FAR:
  
                    RESTRICTED RIGHTS LEGEND
  
 Use, reproduction and disclosure by the US Government is
 subject to restrictions as set forth in subparagraphs (a)
 and (c) of the Commercial Computer Software - Restricted
 Rights clause in FAR 52.227-19.
  
 Gaussian, Inc.
 340 Quinnipiac St., Bldg. 40, Wallingford CT 06492
  
  
 ---------------------------------------------------------------
 Warning -- This program may not be used in any manner that
 competes with the business of Gaussian, Inc. or will provide
 assistance to any competitor of Gaussian, Inc.  The licensee
 of this program is prohibited from giving any competitor of
 Gaussian, Inc. access to this program.  By using this program,
 the user acknowledges that Gaussian, Inc. is engaged in the
 business of creating and licensing software in the field of
 computational chemistry and represents and warrants to the
 licensee that it is not a competitor of Gaussian, Inc. and that
 it will not use this program in any manner prohibited above.
 ---------------------------------------------------------------
  

 Cite this work as:
 Gaussian 16, Revision C.01,
 M. J. Frisch, G. W. Trucks, H. B. Schlegel, G. E. Scuseria, 
 M. A. Robb, J. R. Cheeseman, G. Scalmani, V. Barone, 
 G. A. Petersson, H. Nakatsuji, X. Li, M. Caricato, A. V. Marenich, 
 J. Bloino, B. G. Janesko, R. Gomperts, B. Mennucci, H. P. Hratchian, 
 J. V. Ortiz, A. F. Izmaylov, J. L. Sonnenberg, D. Williams-Young, 
 F. Ding, F. Lipparini, F. Egidi, J. Goings, B. Peng, A. Petrone, 
 T. Henderson, D. Ranasinghe, V. G. Zakrzewski, J. Gao, N. Rega, 
 G. Zheng, W. Liang, M. Hada, M. Ehara, K. Toyota, R. Fukuda, 
 J. Hasegawa, M. Ishida, T. Nakajima, Y. Honda, O. Kitao, H. Nakai, 
 T. Vreven, K. Throssell, J. A. Montgomery, Jr., J. E. Peralta, 
 F. Ogliaro, M. J. Bearpark, J. J. Heyd, E. N. Brothers, K. N. Kudin, 
 V. N. Staroverov, T. A. Keith, R. Kobayashi, J. Normand, 
 K. Raghavachari, A. P. Rendell, J. C. Burant, S. S. Iyengar, 
 J. Tomasi, M. Cossi, J. M. Millam, M. Klene, C. Adamo, R. Cammi, 
 J. W. Ochterski, R. L. Martin, K. Morokuma, O. Farkas, 
 J. B. Foresman, and D. J. Fox, Gaussian, Inc., Wallingford CT, 2019.
 
 ******************************************
 Gaussian 16:  ES64L-G16RevC.01  3-Jul-2019
                11-Nov-2021 
 ******************************************
 %chk=_3_alde1_5_ami3_2_opt_gas_mp2.chk
 %mem=60000mb
 %nprocshared=32
 Will use up to   32 processors via shared memory.
 ---------------------------------------------------------------------
 #P MP2/aug-cc-pVDZ SP SCF=(YQC,MaxCycle=900) int=(Grid=Superfinegrid)
 ---------------------------------------------------------------------
 1/38=1,172=1/1;
 2/12=2,17=6,18=5,40=1/2;
 3/5=16,7=10,11=9,25=1,30=1,75=-7/1,2,3;
 4//1;
 5/5=2,7=900,8=4,13=1,38=1/8,2,8;
 8/10=1/1;
 9/16=-3/6;
 6/7=2,8=2,9=2,10=2/1;
 99/5=1,9=1/99;
 Leave Link    1 at Thu Nov 11 19:39:33 2021, MaxMem=  7864320000 cpu:               6.3 elap:               0.2
 (Enter /apps/gaussian/g16-c01-avx/g16/l101.exe)
 -----------------------------
 _3_alde1_5_ami3_2_opt_gas_mp2
 -----------------------------
 Symbolic Z-matrix:
 Charge =  0 Multiplicity = 1
 C                    -3.3192   -1.4255   -0.146 
 C                    -3.3564   -1.1076    1.272 
 C                    -2.5731   -2.4936   -0.6411 
 C                    -2.492    -2.7238   -2.0107 
 H                    -2.0589   -3.1312    0.0618 
 C                    -3.1191   -1.844    -2.8936 
 C                    -3.8664   -0.775    -2.414 
 H                    -3.0129   -2.0216   -3.9529 
 C                    -3.9863   -0.5927   -1.0375 
 C                    -4.4386    0.2077   -3.3247 
 H                    -4.5811    0.2349   -0.6845 
 C                    -1.7324   -3.8594   -2.5106 
 H                    -4.0123    0.2154   -4.3404 
 H                    -4.0515   -0.2998    1.5473 
 H                    -1.2664   -4.4917   -1.7401 
 C                     2.0145   -2.0023    0.2643 
 C                     1.7556   -2.6109    1.5636 
 C                     2.6454   -0.7629    0.1638 
 C                     2.9003   -0.1917   -1.0779 
 H                     2.9384   -0.259     1.073 
 C                     2.4923   -0.8577   -2.2332 
 C                     1.8652   -2.095    -2.1495 
 H                     2.6861   -0.3928   -3.1876 
 C                     1.6381   -2.6653   -0.8978 
 C                     1.4148   -2.7776   -3.3546 
 H                     1.1551   -3.6293   -0.8551 
 C                     3.5561    1.1043   -1.1539 
 H                     1.3266   -2.1496   -4.2549 
 H                     1.28     -3.5971    1.5208 
 H                     3.7243    1.604    -0.1869 
 C                    -0.9369    1.9432    0.5275 
 C                    -0.712     1.0674    1.6704 
 C                    -2.2373    2.2615    0.1409 
 C                    -2.4828    2.9321   -1.0524 
 H                    -3.0502    1.9333    0.7693 
 C                    -1.4077    3.327    -1.8469 
 C                    -0.1027    3.0806   -1.4372 
 H                    -1.6145    3.829    -2.7797 
 C                     0.1264    2.3752   -0.2567 
 C                     1.0246    3.4638   -2.2789 
 H                     1.145     2.1536    0.0214 
 C                    -3.8562    3.1067   -1.4967 
 H                     0.8128    3.5242   -3.3586 
 H                    -4.6252    2.8251   -0.7613 
 C                    -1.402    -0.14      3.5426 
 C                    -2.6042   -1.1128    3.4536 
 N                    -1.6002    0.8605    2.541 
 N                    -2.611    -1.6582    2.1297 
 C                     3.2845   -2.5802    4.6294 
 C                     1.889    -2.5637    3.9423 
 N                     3.9818   -1.3125    4.561 
 N                     2.0669   -2.0177    2.6328 
 C                    -0.785    -5.1979   -4.1537 
 C                     0.5989   -4.6175   -4.5325 
 N                    -1.6161   -4.1085   -3.7423 
 N                     1.1324   -4.0059   -3.3578 
 C                    -5.7202    2.0887   -3.8318 
 C                    -5.5331    3.4167   -3.0559 
 N                    -5.319     1.0319   -2.9577 
 N                    -4.1592    3.4857   -2.6621 
 C                     4.4169    2.9692   -2.2162 
 C                     3.2781    3.9079   -2.676 
 N                     3.9028    1.635    -2.2449 
 N                     2.1703    3.6772   -1.802 
 H                     4.0685   -1.0315    3.5901 
 H                     3.4425   -0.5952    5.0367 
 H                     0.2617    0.5532    1.6881 
 C                     1.2338   -3.9421    4.057 
 C                    -1.3696    0.487     4.9376 
 C                     3.767     5.3547   -2.5978 
 C                    -7.1895    1.952    -4.233 
 C                     1.5115   -5.7516   -5.0019 
 H                     0.46     -3.8867   -5.3501 
 C                     0.8994   -6.472    -6.1981 
 H                     2.486    -5.3351   -5.266 
 H                     1.6567   -6.4475   -4.1739 
 C                    -0.4794   -7.023    -5.847 
 H                     1.5575   -7.2849   -6.5117 
 H                     0.8081   -5.7732   -7.033 
 C                    -1.3955   -5.9054   -5.3606 
 H                    -0.3788   -7.7757   -5.0615 
 H                    -0.9206   -7.5071   -6.7204 
 H                    -1.5508   -5.1708   -6.1524 
 H                    -2.371    -6.3074   -5.0801 
 H                    -0.621    -5.9161   -3.3311 
 H                    -0.4735   -0.7102    3.3638 
 C                    -1.2595   -0.5912    6.0108 
 H                    -2.2816    1.0696    5.0795 
 H                    -0.5209    1.1721    4.9987 
 C                    -2.4087   -1.5895    5.9026 
 H                    -1.2622   -0.1258    6.9988 
 H                    -0.3104   -1.1204    5.895 
 C                    -2.4614   -2.205     4.5081 
 H                    -3.3517   -1.0769    6.1064 
 H                    -2.2886   -2.3772    6.6495 
 H                    -3.3061   -2.8922    4.4283 
 H                    -1.5497   -2.7687    4.3084 
 H                    -3.5148   -0.518     3.6471 
 H                     3.0215    3.6686   -3.7237 
 C                     5.6148    3.1338   -3.1465 
 H                     4.6935    3.2695   -1.1894 
 C                     6.1037    4.5787   -3.114 
 H                     5.3172    2.8542   -4.1584 
 H                     6.4107    2.4564   -2.8308 
 C                     4.9838    5.5425   -3.4989 
 H                     6.9461    4.6984   -3.798 
 H                     6.4539    4.8168   -2.1068 
 H                     4.6936    5.3624   -4.5368 
 H                     5.3391    6.5723   -3.4246 
 H                     4.0199    5.5875   -1.562 
 H                     2.959     6.0222   -2.9058 
 H                    -5.0935    2.1222   -4.7414 
 C                    -5.9198    4.5876   -3.9535 
 H                    -6.2014    3.3755   -2.1773 
 C                    -7.3747    4.4542   -4.3925 
 H                    -5.2593    4.5982   -4.822 
 H                    -5.772     5.5212   -3.4073 
 C                    -7.6057    3.1276   -5.1115 
 H                    -7.6388    5.2836   -5.0514 
 H                    -8.0219    4.5058   -3.5136 
 H                    -8.6595    3.029    -5.3797 
 H                    -7.022     3.1109   -6.0349 
 H                    -7.8002    1.9169   -3.3293 
 H                    -7.3262    1.01     -4.7688 
 H                     1.2775   -1.8258    4.4835 
 C                     3.1265   -3.        6.0903 
 H                     3.9077   -3.3148    4.1041 
 C                     2.448    -4.36      6.2083 
 H                     2.5316   -2.2463    6.6133 
 H                     4.1144   -3.0231    6.5518 
 C                     1.0857   -4.3379    5.5223 
 H                     2.3308   -4.6239    7.2612 
 H                     3.0771   -5.1205    5.7403 
 H                     0.4331   -3.6234    6.0306 
 H                     0.6169   -5.3221    5.591 
 H                     1.8562   -4.6804    3.5443 
 H                     0.2532   -3.9263    3.5731 
 
 ITRead=  0  0  0  0  0  0  0  0  0  0  0  0  0  0  0  0  0  0  0  0
 ITRead=  0  0  0  0  0  0  0  0  0  0  0  0  0  0  0  0  0  0  0  0
 ITRead=  0  0  0  0  0  0  0  0  0  0  0  0  0  0  0  0  0  0  0  0
 ITRead=  0  0  0  0  0  0  0  0  0  0  0  0  0  0  0  0  0  0  0  0
 ITRead=  0  0  0  0  0  0  0  0  0  0  0  0  0  0  0  0  0  0  0  0
 ITRead=  0  0  0  0  0  0  0  0  0  0  0  0  0  0  0  0  0  0  0  0
 ITRead=  0  0  0  0  0  0  0  0  0  0  0  0  0  0  0  0  0
 MicOpt= -1 -1 -1 -1 -1 -1 -1 -1 -1 -1 -1 -1 -1 -1 -1 -1 -1 -1 -1 -1
 MicOpt= -1 -1 -1 -1 -1 -1 -1 -1 -1 -1 -1 -1 -1 -1 -1 -1 -1 -1 -1 -1
 MicOpt= -1 -1 -1 -1 -1 -1 -1 -1 -1 -1 -1 -1 -1 -1 -1 -1 -1 -1 -1 -1
 MicOpt= -1 -1 -1 -1 -1 -1 -1 -1 -1 -1 -1 -1 -1 -1 -1 -1 -1 -1 -1 -1
 MicOpt= -1 -1 -1 -1 -1 -1 -1 -1 -1 -1 -1 -1 -1 -1 -1 -1 -1 -1 -1 -1
 MicOpt= -1 -1 -1 -1 -1 -1 -1 -1 -1 -1 -1 -1 -1 -1 -1 -1 -1 -1 -1 -1
 MicOpt= -1 -1 -1 -1 -1 -1 -1 -1 -1 -1 -1 -1 -1 -1 -1 -1 -1
 NAtoms=    137 NQM=      137 NQMF=       0 NMMI=      0 NMMIF=      0
                NMic=       0 NMicF=      0.
                    Isotopes and Nuclear Properties:
 (Nuclear quadrupole moments (NQMom) in fm**2, nuclear magnetic moments (NMagM)
  in nuclear magnetons)

  Atom         1           2           3           4           5           6           7           8           9          10
 IAtWgt=          12          12          12          12           1          12          12           1          12          12
 AtmWgt=  12.0000000  12.0000000  12.0000000  12.0000000   1.0078250  12.0000000  12.0000000   1.0078250  12.0000000  12.0000000
 NucSpn=           0           0           0           0           1           0           0           1           0           0
 AtZEff=  -0.0000000  -0.0000000  -0.0000000  -0.0000000  -0.0000000  -0.0000000  -0.0000000  -0.0000000  -0.0000000  -0.0000000
 NQMom=    0.0000000   0.0000000   0.0000000   0.0000000   0.0000000   0.0000000   0.0000000   0.0000000   0.0000000   0.0000000
 NMagM=    0.0000000   0.0000000   0.0000000   0.0000000   2.7928460   0.0000000   0.0000000   2.7928460   0.0000000   0.0000000
 AtZNuc=   6.0000000   6.0000000   6.0000000   6.0000000   1.0000000   6.0000000   6.0000000   1.0000000   6.0000000   6.0000000

  Atom        11          12          13          14          15          16          17          18          19          20
 IAtWgt=           1          12           1           1           1          12          12          12          12           1
 AtmWgt=   1.0078250  12.0000000   1.0078250   1.0078250   1.0078250  12.0000000  12.0000000  12.0000000  12.0000000   1.0078250
 NucSpn=           1           0           1           1           1           0           0           0           0           1
 AtZEff=  -0.0000000  -0.0000000  -0.0000000  -0.0000000  -0.0000000  -0.0000000  -0.0000000  -0.0000000  -0.0000000  -0.0000000
 NQMom=    0.0000000   0.0000000   0.0000000   0.0000000   0.0000000   0.0000000   0.0000000   0.0000000   0.0000000   0.0000000
 NMagM=    2.7928460   0.0000000   2.7928460   2.7928460   2.7928460   0.0000000   0.0000000   0.0000000   0.0000000   2.7928460
 AtZNuc=   1.0000000   6.0000000   1.0000000   1.0000000   1.0000000   6.0000000   6.0000000   6.0000000   6.0000000   1.0000000

  Atom        21          22          23          24          25          26          27          28          29          30
 IAtWgt=          12          12           1          12          12           1          12           1           1           1
 AtmWgt=  12.0000000  12.0000000   1.0078250  12.0000000  12.0000000   1.0078250  12.0000000   1.0078250   1.0078250   1.0078250
 NucSpn=           0           0           1           0           0           1           0           1           1           1
 AtZEff=  -0.0000000  -0.0000000  -0.0000000  -0.0000000  -0.0000000  -0.0000000  -0.0000000  -0.0000000  -0.0000000  -0.0000000
 NQMom=    0.0000000   0.0000000   0.0000000   0.0000000   0.0000000   0.0000000   0.0000000   0.0000000   0.0000000   0.0000000
 NMagM=    0.0000000   0.0000000   2.7928460   0.0000000   0.0000000   2.7928460   0.0000000   2.7928460   2.7928460   2.7928460
 AtZNuc=   6.0000000   6.0000000   1.0000000   6.0000000   6.0000000   1.0000000   6.0000000   1.0000000   1.0000000   1.0000000

  Atom        31          32          33          34          35          36          37          38          39          40
 IAtWgt=          12          12          12          12           1          12          12           1          12          12
 AtmWgt=  12.0000000  12.0000000  12.0000000  12.0000000   1.0078250  12.0000000  12.0000000   1.0078250  12.0000000  12.0000000
 NucSpn=           0           0           0           0           1           0           0           1           0           0
 AtZEff=  -0.0000000  -0.0000000  -0.0000000  -0.0000000  -0.0000000  -0.0000000  -0.0000000  -0.0000000  -0.0000000  -0.0000000
 NQMom=    0.0000000   0.0000000   0.0000000   0.0000000   0.0000000   0.0000000   0.0000000   0.0000000   0.0000000   0.0000000
 NMagM=    0.0000000   0.0000000   0.0000000   0.0000000   2.7928460   0.0000000   0.0000000   2.7928460   0.0000000   0.0000000
 AtZNuc=   6.0000000   6.0000000   6.0000000   6.0000000   1.0000000   6.0000000   6.0000000   1.0000000   6.0000000   6.0000000

  Atom        41          42          43          44          45          46          47          48          49          50
 IAtWgt=           1          12           1           1          12          12          14          14          12          12
 AtmWgt=   1.0078250  12.0000000   1.0078250   1.0078250  12.0000000  12.0000000  14.0030740  14.0030740  12.0000000  12.0000000
 NucSpn=           1           0           1           1           0           0           2           2           0           0
 AtZEff=  -0.0000000  -0.0000000  -0.0000000  -0.0000000  -0.0000000  -0.0000000  -0.0000000  -0.0000000  -0.0000000  -0.0000000
 NQMom=    0.0000000   0.0000000   0.0000000   0.0000000   0.0000000   0.0000000   2.0440000   2.0440000   0.0000000   0.0000000
 NMagM=    2.7928460   0.0000000   2.7928460   2.7928460   0.0000000   0.0000000   0.4037610   0.4037610   0.0000000   0.0000000
 AtZNuc=   1.0000000   6.0000000   1.0000000   1.0000000   6.0000000   6.0000000   7.0000000   7.0000000   6.0000000   6.0000000

  Atom        51          52          53          54          55          56          57          58          59          60
 IAtWgt=          14          14          12          12          14          14          12          12          14          14
 AtmWgt=  14.0030740  14.0030740  12.0000000  12.0000000  14.0030740  14.0030740  12.0000000  12.0000000  14.0030740  14.0030740
 NucSpn=           2           2           0           0           2           2           0           0           2           2
 AtZEff=  -0.0000000  -0.0000000  -0.0000000  -0.0000000  -0.0000000  -0.0000000  -0.0000000  -0.0000000  -0.0000000  -0.0000000
 NQMom=    2.0440000   2.0440000   0.0000000   0.0000000   2.0440000   2.0440000   0.0000000   0.0000000   2.0440000   2.0440000
 NMagM=    0.4037610   0.4037610   0.0000000   0.0000000   0.4037610   0.4037610   0.0000000   0.0000000   0.4037610   0.4037610
 AtZNuc=   7.0000000   7.0000000   6.0000000   6.0000000   7.0000000   7.0000000   6.0000000   6.0000000   7.0000000   7.0000000

  Atom        61          62          63          64          65          66          67          68          69          70
 IAtWgt=          12          12          14          14           1           1           1          12          12          12
 AtmWgt=  12.0000000  12.0000000  14.0030740  14.0030740   1.0078250   1.0078250   1.0078250  12.0000000  12.0000000  12.0000000
 NucSpn=           0           0           2           2           1           1           1           0           0           0
 AtZEff=  -0.0000000  -0.0000000  -0.0000000  -0.0000000  -0.0000000  -0.0000000  -0.0000000  -0.0000000  -0.0000000  -0.0000000
 NQMom=    0.0000000   0.0000000   2.0440000   2.0440000   0.0000000   0.0000000   0.0000000   0.0000000   0.0000000   0.0000000
 NMagM=    0.0000000   0.0000000   0.4037610   0.4037610   2.7928460   2.7928460   2.7928460   0.0000000   0.0000000   0.0000000
 AtZNuc=   6.0000000   6.0000000   7.0000000   7.0000000   1.0000000   1.0000000   1.0000000   6.0000000   6.0000000   6.0000000

  Atom        71          72          73          74          75          76          77          78          79          80
 IAtWgt=          12          12           1          12           1           1          12           1           1          12
 AtmWgt=  12.0000000  12.0000000   1.0078250  12.0000000   1.0078250   1.0078250  12.0000000   1.0078250   1.0078250  12.0000000
 NucSpn=           0           0           1           0           1           1           0           1           1           0
 AtZEff=  -0.0000000  -0.0000000  -0.0000000  -0.0000000  -0.0000000  -0.0000000  -0.0000000  -0.0000000  -0.0000000  -0.0000000
 NQMom=    0.0000000   0.0000000   0.0000000   0.0000000   0.0000000   0.0000000   0.0000000   0.0000000   0.0000000   0.0000000
 NMagM=    0.0000000   0.0000000   2.7928460   0.0000000   2.7928460   2.7928460   0.0000000   2.7928460   2.7928460   0.0000000
 AtZNuc=   6.0000000   6.0000000   1.0000000   6.0000000   1.0000000   1.0000000   6.0000000   1.0000000   1.0000000   6.0000000

  Atom        81          82          83          84          85          86          87          88          89          90
 IAtWgt=           1           1           1           1           1           1          12           1           1          12
 AtmWgt=   1.0078250   1.0078250   1.0078250   1.0078250   1.0078250   1.0078250  12.0000000   1.0078250   1.0078250  12.0000000
 NucSpn=           1           1           1           1           1           1           0           1           1           0
 AtZEff=  -0.0000000  -0.0000000  -0.0000000  -0.0000000  -0.0000000  -0.0000000  -0.0000000  -0.0000000  -0.0000000  -0.0000000
 NQMom=    0.0000000   0.0000000   0.0000000   0.0000000   0.0000000   0.0000000   0.0000000   0.0000000   0.0000000   0.0000000
 NMagM=    2.7928460   2.7928460   2.7928460   2.7928460   2.7928460   2.7928460   0.0000000   2.7928460   2.7928460   0.0000000
 AtZNuc=   1.0000000   1.0000000   1.0000000   1.0000000   1.0000000   1.0000000   6.0000000   1.0000000   1.0000000   6.0000000

  Atom        91          92          93          94          95          96          97          98          99         100
 IAtWgt=           1           1          12           1           1           1           1           1           1          12
 AtmWgt=   1.0078250   1.0078250  12.0000000   1.0078250   1.0078250   1.0078250   1.0078250   1.0078250   1.0078250  12.0000000
 NucSpn=           1           1           0           1           1           1           1           1           1           0
 AtZEff=  -0.0000000  -0.0000000  -0.0000000  -0.0000000  -0.0000000  -0.0000000  -0.0000000  -0.0000000  -0.0000000  -0.0000000
 NQMom=    0.0000000   0.0000000   0.0000000   0.0000000   0.0000000   0.0000000   0.0000000   0.0000000   0.0000000   0.0000000
 NMagM=    2.7928460   2.7928460   0.0000000   2.7928460   2.7928460   2.7928460   2.7928460   2.7928460   2.7928460   0.0000000
 AtZNuc=   1.0000000   1.0000000   6.0000000   1.0000000   1.0000000   1.0000000   1.0000000   1.0000000   1.0000000   6.0000000

  Atom       101         102         103         104         105         106         107         108         109         110
 IAtWgt=           1          12           1           1          12           1           1           1           1           1
 AtmWgt=   1.0078250  12.0000000   1.0078250   1.0078250  12.0000000   1.0078250   1.0078250   1.0078250   1.0078250   1.0078250
 NucSpn=           1           0           1           1           0           1           1           1           1           1
 AtZEff=  -0.0000000  -0.0000000  -0.0000000  -0.0000000  -0.0000000  -0.0000000  -0.0000000  -0.0000000  -0.0000000  -0.0000000
 NQMom=    0.0000000   0.0000000   0.0000000   0.0000000   0.0000000   0.0000000   0.0000000   0.0000000   0.0000000   0.0000000
 NMagM=    2.7928460   0.0000000   2.7928460   2.7928460   0.0000000   2.7928460   2.7928460   2.7928460   2.7928460   2.7928460
 AtZNuc=   1.0000000   6.0000000   1.0000000   1.0000000   6.0000000   1.0000000   1.0000000   1.0000000   1.0000000   1.0000000

  Atom       111         112         113         114         115         116         117         118         119         120
 IAtWgt=           1           1          12           1          12           1           1          12           1           1
 AtmWgt=   1.0078250   1.0078250  12.0000000   1.0078250  12.0000000   1.0078250   1.0078250  12.0000000   1.0078250   1.0078250
 NucSpn=           1           1           0           1           0           1           1           0           1           1
 AtZEff=  -0.0000000  -0.0000000  -0.0000000  -0.0000000  -0.0000000  -0.0000000  -0.0000000  -0.0000000  -0.0000000  -0.0000000
 NQMom=    0.0000000   0.0000000   0.0000000   0.0000000   0.0000000   0.0000000   0.0000000   0.0000000   0.0000000   0.0000000
 NMagM=    2.7928460   2.7928460   0.0000000   2.7928460   0.0000000   2.7928460   2.7928460   0.0000000   2.7928460   2.7928460
 AtZNuc=   1.0000000   1.0000000   6.0000000   1.0000000   6.0000000   1.0000000   1.0000000   6.0000000   1.0000000   1.0000000

  Atom       121         122         123         124         125         126         127         128         129         130
 IAtWgt=           1           1           1           1           1          12           1          12           1           1
 AtmWgt=   1.0078250   1.0078250   1.0078250   1.0078250   1.0078250  12.0000000   1.0078250  12.0000000   1.0078250   1.0078250
 NucSpn=           1           1           1           1           1           0           1           0           1           1
 AtZEff=  -0.0000000  -0.0000000  -0.0000000  -0.0000000  -0.0000000  -0.0000000  -0.0000000  -0.0000000  -0.0000000  -0.0000000
 NQMom=    0.0000000   0.0000000   0.0000000   0.0000000   0.0000000   0.0000000   0.0000000   0.0000000   0.0000000   0.0000000
 NMagM=    2.7928460   2.7928460   2.7928460   2.7928460   2.7928460   0.0000000   2.7928460   0.0000000   2.7928460   2.7928460
 AtZNuc=   1.0000000   1.0000000   1.0000000   1.0000000   1.0000000   6.0000000   1.0000000   6.0000000   1.0000000   1.0000000

  Atom       131         132         133         134         135         136         137
 IAtWgt=          12           1           1           1           1           1           1
 AtmWgt=  12.0000000   1.0078250   1.0078250   1.0078250   1.0078250   1.0078250   1.0078250
 NucSpn=           0           1           1           1           1           1           1
 AtZEff=  -0.0000000  -0.0000000  -0.0000000  -0.0000000  -0.0000000  -0.0000000  -0.0000000
 NQMom=    0.0000000   0.0000000   0.0000000   0.0000000   0.0000000   0.0000000   0.0000000
 NMagM=    0.0000000   2.7928460   2.7928460   2.7928460   2.7928460   2.7928460   2.7928460
 AtZNuc=   6.0000000   1.0000000   1.0000000   1.0000000   1.0000000   1.0000000   1.0000000
 Leave Link  101 at Thu Nov 11 19:39:33 2021, MaxMem=  7864320000 cpu:               3.2 elap:               0.1
 (Enter /apps/gaussian/g16-c01-avx/g16/l202.exe)
 Stoichiometry    C57H70N10
 Framework group  C1[X(C57H70N10)]
 Deg. of freedom   405
 Full point group                 C1      NOp   1
 Largest Abelian subgroup         C1      NOp   1
 Largest concise Abelian subgroup C1      NOp   1
                         Standard orientation:                         
 ---------------------------------------------------------------------
 Center     Atomic      Atomic             Coordinates (Angstroms)
 Number     Number       Type             X           Y           Z
 ---------------------------------------------------------------------
      1          6           0        0.727597   -2.972786   -0.649754
      2          6           0       -0.118204   -3.095539   -1.825646
      3          6           0        0.197633   -2.957553    0.639250
      4          6           0        1.023971   -2.757391    1.740375
      5          1           0       -0.865508   -3.099684    0.759807
      6          6           0        2.384113   -2.516131    1.543852
      7          6           0        2.926141   -2.528564    0.264287
      8          1           0        2.999671   -2.327873    2.410215
      9          6           0        2.094858   -2.789117   -0.823574
     10          6           0        4.321674   -2.176631    0.038197
     11          1           0        2.536366   -2.807412   -1.807471
     12          6           0        0.460092   -2.772277    3.081381
     13          1           0        4.813524   -1.639378    0.864563
     14          1           0        0.424526   -3.186654   -2.778871
     15          1           0       -0.622369   -2.961729    3.136298
     16          6           0       -2.734780    0.659471    1.291395
     17          6           0       -3.786133   -0.176463    0.724408
     18          6           0       -2.458365    1.921515    0.766909
     19          6           0       -1.462329    2.719706    1.318150
     20          1           0       -3.040730    2.268610   -0.073796
     21          6           0       -0.714228    2.235661    2.390896
     22          6           0       -0.979855    0.981232    2.926640
     23          1           0        0.063982    2.863412    2.796960
     24          6           0       -1.997788    0.202766    2.377667
     25          6           0       -0.180574    0.464816    4.029152
     26          1           0       -2.191805   -0.765726    2.812167
     27          6           0       -1.191814    4.030464    0.748764
     28          1           0        0.785691    0.966387    4.194869
     29          1           0       -3.933314   -1.135478    1.233570
     30          1           0       -1.748889    4.267963   -0.171205
     31          6           0        0.441693    0.773621   -2.482727
     32          6           0       -0.881529    0.174873   -2.602780
     33          6           0        1.568209    0.055490   -2.879039
     34          6           0        2.847452    0.522951   -2.598047
     35          1           0        1.420553   -0.894288   -3.368455
     36          6           0        2.999373    1.747594   -1.949830
     37          6           0        1.885832    2.508620   -1.614479
     38          1           0        3.997642    2.088024   -1.720808
     39          6           0        0.609205    2.009913   -1.869766
     40          6           0        2.037558    3.775548   -0.908804
     41          1           0       -0.243333    2.594472   -1.560797
     42          6           0        3.991098   -0.327241   -2.886773
     43          1           0        2.946989    3.871297   -0.293966
     44          1           0        3.764124   -1.236775   -3.463578
     45          6           0       -2.369833   -1.474155   -3.313205
     46          6           0       -2.081142   -2.969937   -3.032422
     47          7           0       -1.106245   -0.807386   -3.360620
     48          7           0       -1.379058   -3.039487   -1.786445
     49          6           0       -6.785661    0.383377   -0.833480
     50          6           0       -5.527622   -0.531100   -0.862943
     51          7           0       -6.555781    1.706893   -1.375172
     52          7           0       -4.452526    0.206716   -0.276130
     53          6           0        0.515542   -2.535040    5.389968
     54          6           0        0.285727   -1.045827    5.743471
     55          7           0        1.160861   -2.584986    4.114100
     56          7           0       -0.568878   -0.503347    4.736514
     57          6           0        6.216774   -1.897398   -1.291629
     58          6           0        6.152567   -1.098473   -2.617603
     59          7           0        4.907821   -2.417787   -1.051470
     60          7           0        5.152586   -0.088190   -2.453868
     61          6           0       -0.080415    6.047813    0.542838
     62          6           0        1.285004    5.848425   -0.153806
     63          7           0       -0.370956    4.843110    1.256623
     64          7           0        1.167334    4.683315   -0.974167
     65          1           0       -5.788902    2.143501   -0.874777
     66          1           0       -6.280689    1.638261   -2.350501
     67          1           0       -1.654381    0.598850   -1.942667
     68          6           0       -5.862508   -1.899835   -0.265577
     69          6           0       -3.100209   -1.349532   -4.651571
     70          6           0        1.604112    7.092858   -0.983218
     71          6           0        7.244116   -3.020485   -1.439060
     72          6           0       -0.382769   -0.949274    7.115750
     73          1           0        1.266568   -0.536768    5.768800
     74          6           0        0.481796   -1.614071    8.181165
     75          1           0       -0.543012    0.103629    7.357801
     76          1           0       -1.358957   -1.434244    7.062783
     77          6           0        0.741541   -3.075708    7.828871
     78          1           0       -0.015771   -1.546501    9.150757
     79          1           0        1.434713   -1.084787    8.255487
     80          6           0        1.392556   -3.188520    6.454714
     81          1           0       -0.205283   -3.620873    7.826262
     82          1           0        1.388259   -3.531044    8.581375
     83          1           0        2.365721   -2.694908    6.454518
     84          1           0        1.548130   -4.236639    6.191793
     85          1           0       -0.476978   -3.018240    5.361698
     86          1           0       -3.003258   -1.078917   -2.499712
     87          6           0       -4.400974   -2.145789   -4.632021
     88          1           0       -2.444092   -1.717046   -5.442613
     89          1           0       -3.303517   -0.294238   -4.847545
     90          6           0       -4.138924   -3.612852   -4.303349
     91          1           0       -4.894777   -2.064012   -5.602701
     92          1           0       -5.072215   -1.722542   -3.880655
     93          6           0       -3.392708   -3.746013   -2.979840
     94          1           0       -3.540885   -4.059583   -5.101048
     95          1           0       -5.084517   -4.156728   -4.250352
     96          1           0       -3.179235   -4.795728   -2.768515
     97          1           0       -3.999222   -3.355343   -2.162312
     98          1           0       -1.457028   -3.339429   -3.865716
     99          1           0        2.063234    5.719649    0.619860
    100          6           0       -0.001324    7.252619    1.475416
    101          1           0       -0.827669    6.233526   -0.249708
    102          6           0        0.349400    8.505212    0.678034
    103          1           0        0.756007    7.060537    2.237149
    104          1           0       -0.961065    7.380030    1.980054
    105          6           0        1.662426    8.320356   -0.078949
    106          1           0        0.427926    9.360967    1.351338
    107          1           0       -0.451752    8.712935   -0.035261
    108          1           0        2.478322    8.200251    0.637833
    109          1           0        1.872325    9.207892   -0.679340
    110          1           0        0.833473    7.217253   -1.745896
    111          1           0        2.560605    6.948572   -1.490749
    112          1           0        6.535183   -1.213061   -0.484445
    113          6           0        7.520905   -0.492245   -2.911487
    114          1           0        5.875496   -1.812948   -3.413226
    115          6           0        8.568689   -1.594607   -3.030639
    116          1           0        7.781490    0.195450   -2.105363
    117          1           0        7.466356    0.081671   -3.838543
    118          6           0        8.617096   -2.437781   -1.759063
    119          1           0        9.548979   -1.152988   -3.219866
    120          1           0        8.321043   -2.236129   -3.879825
    121          1           0        9.339789   -3.247602   -1.877607
    122          1           0        8.946538   -1.814227   -0.924617
    123          1           0        6.920443   -3.692390   -2.235702
    124          1           0        7.281485   -3.593205   -0.509691
    125          1           0       -5.250454   -0.655554   -1.920779
    126          6           0       -7.923181   -0.292748   -1.597894
    127          1           0       -7.079053    0.515538    0.215524
    128          6           0       -8.239513   -1.668649   -1.022815
    129          1           0       -7.635150   -0.391131   -2.648064
    130          1           0       -8.801143    0.352707   -1.552792
    131          6           0       -6.997916   -2.554584   -1.045221
    132          1           0       -9.040379   -2.134774   -1.600153
    133          1           0       -8.588318   -1.559564    0.006547
    134          1           0       -6.685299   -2.718037   -2.079784
    135          1           0       -7.227122   -3.529935   -0.610137
    136          1           0       -6.166053   -1.773125    0.777081
    137          1           0       -4.975864   -2.539626   -0.288298
 ---------------------------------------------------------------------
 Rotational constants (GHZ):           0.0301744           0.0238463           0.0232715
 Leave Link  202 at Thu Nov 11 19:39:33 2021, MaxMem=  7864320000 cpu:               0.2 elap:               0.0
 (Enter /apps/gaussian/g16-c01-avx/g16/l301.exe)
 Standard basis: Aug-CC-pVDZ (5D, 7F)
 Ernie: Thresh=  0.10000D-02 Tol=  0.10000D-05 Strict=F.
 Ernie:  134 primitive shells out of 2165 were deleted.
 There are  2305 symmetry adapted cartesian basis functions of A   symmetry.
 There are  2171 symmetry adapted basis functions of A   symmetry.
  2171 basis functions,  3651 primitive gaussians,  2305 cartesian basis functions
   241 alpha electrons      241 beta electrons
       nuclear repulsion energy     10439.7883638270 Hartrees.
 IExCor=    0 DFT=F Ex=HF Corr=None ExCW=0 ScaHFX=  1.000000
 ScaDFX=  1.000000  1.000000  1.000000  1.000000 ScalE2=  1.000000  1.000000
 IRadAn=      7 IRanWt=     -1 IRanGd=            0 ICorTp=0 IEmpDi=  4
 NAtoms=  137 NActive=  137 NUniq=  137 SFac= 1.00D+00 NAtFMM=   60 NAOKFM=T Big=T
 Integral buffers will be    131072 words long.
 Raffenetti 1 integral format.
 Two-electron integral symmetry is turned on.
 Leave Link  301 at Thu Nov 11 19:39:33 2021, MaxMem=  7864320000 cpu:               0.8 elap:               0.0
 (Enter /apps/gaussian/g16-c01-avx/g16/l302.exe)
 NPDir=0 NMtPBC=     1 NCelOv=     1 NCel=       1 NClECP=     1 NCelD=      1
         NCelK=      1 NCelE2=     1 NClLst=     1 CellRange=     0.0.
 One-electron integrals computed using PRISM.
 One-electron integral symmetry used in STVInt
 NBasis=  2171 RedAO= T EigKep=  1.04D-06  NBF=  2171
 NBsUse=  2146 1.00D-06 EigRej=  9.63D-07 NBFU=  2146
 Leave Link  302 at Thu Nov 11 19:39:42 2021, MaxMem=  7864320000 cpu:             279.1 elap:               8.8
 (Enter /apps/gaussian/g16-c01-avx/g16/l303.exe)
 DipDrv:  MaxL=1.
 Leave Link  303 at Thu Nov 11 19:39:43 2021, MaxMem=  7864320000 cpu:              26.7 elap:               1.0
 (Enter /apps/gaussian/g16-c01-avx/g16/l401.exe)
 ExpMin= 2.97D-02 ExpMax= 9.05D+03 ExpMxC= 3.09D+02 IAcc=3 IRadAn=         7 AccDes= 0.00D+00
 Harris functional with IExCor=  205 and IRadAn=       7 diagonalized for initial guess.
 HarFok:  IExCor=  205 AccDes= 0.00D+00 IRadAn=         7 IDoV= 1 UseB2=F ITyADJ=14
 ICtDFT=  3500011 ScaDFX=  1.000000  1.000000  1.000000  1.000000
 FoFCou: FMM=F IPFlag=           0 FMFlag=      100000 FMFlg1=        2001
         NFxFlg=           0 DoJE=T BraDBF=F KetDBF=T FulRan=T
         wScrn=  0.000000 ICntrl=       500 IOpCl=  0 I1Cent=   200000004 NGrid=           0
         NMat0=    1 NMatS0=      1 NMatT0=    0 NMatD0=    1 NMtDS0=    0 NMtDT0=    0
 Petite list used in FoFCou.
 Harris En= -2748.12288579017    
 JPrj=0 DoOrth=F DoCkMO=F.
 Leave Link  401 at Thu Nov 11 19:40:22 2021, MaxMem=  7864320000 cpu:            1241.3 elap:              39.1
 (Enter /apps/gaussian/g16-c01-avx/g16/l508.exe)
 Integral symmetry usage will be decided dynamically.
 Tight linear equation convergence will be used.
 RHF wavefunction.
 Linear searches until partial convergence.
 Full line searches.
 Fock matrices will be formed incrementally for  20 cycles.
 FoFJK:  IHMeth= 1 ICntrl=       0 DoSepK=F KAlg= 0 I1Cent=           0 FoldK=F
 IRaf= 920000000 NMat=       1 IRICut=       1 DoRegI=T DoRafI=F ISym2E= 1 IDoP0=0 IntGTp=1.
 FoFCou: FMM=T IPFlag=           0 FMFlag=      100000 FMFlg1=        2001
         NFxFlg=           0 DoJE=F BraDBF=F KetDBF=F FulRan=T
         wScrn=  0.000000 ICntrl=         0 IOpCl=  0 I1Cent=           0 NGrid=           0
         NMat0=    1 NMatS0=      1 NMatT0=    0 NMatD0=    1 NMtDS0=    0 NMtDT0=    0
 Petite list used in FoFCou.
 FMM levels:  10  Number of levels for PrismC:   9
 Iteration   1 EE= -2741.47878028978                                    Grad=2.509D+00 Max rot=    1.9113 deg.
 Gradient too large for Newton-Raphson -- use scaled steepest descent instead.
 Alpha Gap=     0.428 HL deriv= 3.43D-03
     ILin= 1 X=0.000D+00 Y=-2.741478780290D+03 DE= 0.00D+00 F= -7.68D+00
 RMSU=  7.68D-03    CP:  7.80D-01
     ILin= 2 X=3.000D-01 Y=-2.743215101003D+03 DE=-1.74D+00 F= -3.89D+00 OKLS=F
 RMSU=  1.82D-03    CP:  6.65D-01  1.59D+00
     ILin= 3 X=5.000D-01 Y=-2.743736821701D+03 DE=-2.26D+00 F= -1.33D+00
 RMSU=  7.25D-03    CP:  4.96D-01  2.81D+00  3.00D+00
     ILin= 4 X=1.000D+00 Y=-2.742802707788D+03 DE=-1.32D+00 F=  5.05D+00
     An  expanding polynomial of degree  4 produced  0.6043
 RMSU=  3.88D-06    CP:  6.16D-01  1.88D+00  1.84D+00  4.91D-06
 Iteration   2 EE= -2743.80565335896     Delta-E=       -2.326873069185 Grad=8.552D-01 Max rot=    0.8877 deg.
 Gradient too large for Newton-Raphson -- use scaled steepest descent instead.
 Alpha Gap=     0.454 HL deriv= 2.18D-03
     ILin= 1 X=0.000D+00 Y=-2.743805653359D+03 DE= 0.00D+00 F= -4.42D-01
 RMSU=  1.88D-03    CP:  5.51D-01  2.10D+00  3.00D+00  2.68D-03  3.00D+00
     ILin= 2 X=4.000D-01 Y=-2.743937415117D+03 DE=-1.32D-01 F= -2.17D-01 OKLS=F
 RMSU=  5.11D-04    CP:  4.88D-01  2.35D+00  3.00D+00  4.48D-01  3.00D+00
                    CP:  2.11D+00
     ILin= 3 X=9.000D-01 Y=-2.743976288871D+03 DE=-1.71D-01 F=  6.16D-02
     Accept linear search using points  2 and  3.
     An  expanding polynomial of degree  3 produced  0.6898
 RMSU=  2.02D-06    CP:  5.12D-01  2.25D+00  3.00D+00  2.50D-01  3.00D+00
                    CP:  1.66D+00  4.44D-01
 Iteration   3 EE= -2743.97693626150     Delta-E=       -0.171282902538 Grad=2.970D-01 Max rot=    0.3163 deg.
 Gradient too large for Newton-Raphson -- use scaled steepest descent instead.
 Alpha Gap=     0.444 HL deriv= 9.32D-04
     ILin= 1 X=0.000D+00 Y=-2.743976936262D+03 DE= 0.00D+00 F= -5.89D-02
 RMSU=  7.24D-04    CP:  4.85D-01  2.30D+00  3.00D+00  4.22D-01  3.00D+00
                    CP:  2.00D+00  1.15D+00  1.39D+00
     ILin= 2 X=6.000D-01 Y=-2.744000343183D+03 DE=-2.34D-02 F= -1.91D-02 OKLS=F
 RMSU=  9.77D-05    CP:  4.58D-01  2.35D+00  3.00D+00  6.39D-01  3.00D+00
                    CP:  2.37D+00  2.15D+00 -3.00D+00  2.15D+00
     ILin= 3 X=1.300D+00 Y=-2.743997505494D+03 DE=-2.06D-02 F=  2.72D-02
     An  expanding polynomial of degree  3 produced  0.8888
 RMSU=  3.65D-06    CP:  4.73D-01  2.32D+00  3.00D+00  5.10D-01  3.00D+00
                    CP:  2.15D+00  1.54D+00 -1.61D+00  1.48D+00  2.77D-01
 Iteration   4 EE= -2744.00310581421     Delta-E=       -0.026169552712 Grad=9.250D-02 Max rot=    0.2300 deg.
 Gradient too large for Newton-Raphson -- use scaled steepest descent instead.
 Alpha Gap=     0.453 HL deriv= 6.43D-04
     ILin= 1 X=0.000D+00 Y=-2.744003105814D+03 DE= 0.00D+00 F= -1.24D-02
 RMSU=  3.28D-04    CP:  4.64D-01  2.30D+00  3.00D+00  5.17D-01  3.00D+00
                    CP:  2.36D+00  1.93D+00 -3.00D+00  1.73D+00  1.63D+00
                    CP: -3.00D+00
     ILin= 2 X=8.000D-01 Y=-2.744006832645D+03 DE=-3.73D-03 F=  3.03D-03 OKLS=T
     Accept linear search using points  1 and  2.
     An  expanding polynomial of degree  2 produced  0.5869
 RMSU=  4.96D-06    CP:  4.67D-01  2.30D+00  3.00D+00  5.15D-01  3.00D+00
                    CP:  2.31D+00  1.82D+00 -3.00D+00  1.66D+00  1.26D+00
                    CP: -3.00D+00  7.31D-01
 Iteration   5 EE= -2744.00704303461     Delta-E=       -0.003937220394 Grad=3.405D-02 Max rot=    0.0911 deg.
 Gradient too large for Newton-Raphson -- use scaled steepest descent instead.
 Alpha Gap=     0.451 HL deriv= 3.58D-04
     ILin= 1 X=0.000D+00 Y=-2.744007043035D+03 DE= 0.00D+00 F= -1.57D-03
 RMSU=  6.73D-05    CP:  4.63D-01  2.29D+00  3.00D+00  5.20D-01  3.00D+00
                    CP:  2.37D+00  2.01D+00 -3.00D+00  1.93D+00  1.58D+00
                    CP: -3.00D+00  9.73D-01 -2.20D-01
     ILin= 2 X=7.000D-01 Y=-2.744007818516D+03 DE=-7.75D-04 F= -6.46D-04 OKLS=F
 RMSU=  2.73D-06    CP:  4.59D-01  2.27D+00  3.00D+00  5.25D-01  3.00D+00
                    CP:  2.43D+00  2.20D+00 -3.00D+00  2.19D+00  1.92D+00
                    CP: -3.00D+00  1.21D+00 -1.66D+00  1.99D+00
     ILin= 3 X=1.400D+00 Y=-2.744007947894D+03 DE=-9.05D-04 F=  2.77D-04
     Accept linear search using points  2 and  3.
     An  expanding polynomial of degree  3 produced  1.1313
 RMSU=  2.07D-10    CP:  4.60D-01  2.28D+00  3.00D+00  5.23D-01  3.00D+00
                    CP:  2.41D+00  2.13D+00 -3.00D+00  2.09D+00  1.78D+00
                    CP: -3.00D+00  1.12D+00 -1.08D+00  1.61D+00  4.98D-01
 Iteration   6 EE= -2744.00797468369     Delta-E=       -0.000931649087 Grad=1.475D-02 Max rot=    0.0614 deg.
 Gradient too large for Newton-Raphson -- use scaled steepest descent instead.
 Alpha Gap=     0.453 HL deriv= 1.72D-04
     ILin= 1 X=0.000D+00 Y=-2.744007974684D+03 DE= 0.00D+00 F= -4.47D-04
 RMSU=  3.64D-05    CP:  4.60D-01  2.27D+00  3.00D+00  5.18D-01  3.00D+00
                    CP:  2.43D+00  2.17D+00 -3.00D+00  2.11D+00  1.96D+00
                    CP: -3.00D+00  1.32D+00 -7.78D-01  1.77D+00  7.58D-02
                    CP: -3.00D+00
     ILin= 2 X=8.000D-01 Y=-2.744008095793D+03 DE=-1.21D-04 F=  1.44D-04 OKLS=T
     Accept linear search using points  1 and  2.
     An  expanding polynomial of degree  2 produced  0.5534
 RMSU=  3.87D-08    CP:  4.60D-01  2.28D+00  3.00D+00  5.20D-01  3.00D+00
                    CP:  2.42D+00  2.16D+00 -3.00D+00  2.10D+00  1.91D+00
                    CP: -3.00D+00  1.26D+00 -8.67D-01  1.72D+00  1.96D-01
                    CP: -3.00D+00  6.92D-01
 Iteration   7 EE= -2744.00810890987     Delta-E=       -0.000134226171 Grad=5.089D-03 Max rot=    0.0278 deg.
 SCF Done:  E(RHF) =  -2744.00810891     a.u. after    7 cycles
            Convg  =    0.5089D-02                    18 Fock formations.
              S**2 =  0.0000                  -V/T =  2.0002
 Leave Link  508 at Thu Nov 11 22:17:42 2021, MaxMem=  7864320000 cpu:          299558.4 elap:            9439.9
 (Enter /apps/gaussian/g16-c01-avx/g16/l502.exe)
 Integral symmetry usage will be decided dynamically.
 Closed shell SCF:
 Using DIIS extrapolation, IDIIS=  1040.
 NGot=  7864320000 LenX=  7853595672 LenY=  7848280342
 Requested convergence on RMS density matrix=1.00D-08 within 128 cycles.
 Requested convergence on MAX density matrix=1.00D-06.
 Requested convergence on             energy=1.00D-06.
 No special actions if energy rises.
 Fock matrices will be formed incrementally for  20 cycles.

 Cycle   1  Pass 1  IDiag  1:
 FoFJK:  IHMeth= 1 ICntrl=       0 DoSepK=F KAlg= 0 I1Cent=           0 FoldK=F
 IRaf= 920000000 NMat=       1 IRICut=       1 DoRegI=T DoRafI=F ISym2E= 0 IDoP0=0 IntGTp=1.
 FoFCou: FMM=T IPFlag=           0 FMFlag=      100000 FMFlg1=        2001
         NFxFlg=           0 DoJE=F BraDBF=F KetDBF=F FulRan=T
         wScrn=  0.000000 ICntrl=         0 IOpCl=  0 I1Cent=           0 NGrid=           0
         NMat0=    1 NMatS0=      1 NMatT0=    0 NMatD0=    1 NMtDS0=    0 NMtDT0=    0
 Symmetry not used in FoFCou.
 FMM levels:  10  Number of levels for PrismC:   9
 E= -2744.00810886092    
 DIIS: error= 4.08D-05 at cycle   1 NSaved=   1.
 NSaved= 1 IEnMin= 1 EnMin= -2744.00810886092     IErMin= 1 ErrMin= 4.08D-05
 ErrMax= 4.08D-05  0.00D+00 EMaxC= 1.00D-01 BMatC= 1.30D-05 BMatP= 1.30D-05
 IDIUse=1 WtCom= 1.00D+00 WtEn= 0.00D+00
 Coeff-Com:  0.100D+01
 Coeff:      0.100D+01
 Gap=     0.452 Goal=   None    Shift=    0.000
 RMSDP=7.94D-05 MaxDP=8.76D-03              OVMax= 1.84D-03

 Cycle   2  Pass 1  IDiag  1:
 RMSU=  7.42D-05    CP:  9.99D-01
 E= -2744.00815361738     Delta-E=       -0.000044756463 Rises=F Damp=F
 DIIS: error= 2.39D-05 at cycle   2 NSaved=   2.
 NSaved= 2 IEnMin= 2 EnMin= -2744.00815361738     IErMin= 2 ErrMin= 2.39D-05
 ErrMax= 2.39D-05  0.00D+00 EMaxC= 1.00D-01 BMatC= 3.13D-06 BMatP= 1.30D-05
 IDIUse=1 WtCom= 1.00D+00 WtEn= 0.00D+00
 Coeff-Com: -0.116D-01 0.101D+01
 Coeff:     -0.116D-01 0.101D+01
 Gap=     0.344 Goal=   None    Shift=    0.000
 RMSDP=2.06D-05 MaxDP=2.48D-03 DE=-4.48D-05 OVMax= 9.45D-04

 Cycle   3  Pass 1  IDiag  1:
 RMSU=  1.16D-05    CP:  9.99D-01  1.20D+00
 E= -2744.00816345285     Delta-E=       -0.000009835469 Rises=F Damp=F
 DIIS: error= 1.12D-05 at cycle   3 NSaved=   3.
 NSaved= 3 IEnMin= 3 EnMin= -2744.00816345285     IErMin= 3 ErrMin= 1.12D-05
 ErrMax= 1.12D-05  0.00D+00 EMaxC= 1.00D-01 BMatC= 1.45D-06 BMatP= 3.13D-06
 IDIUse=1 WtCom= 1.00D+00 WtEn= 0.00D+00
 Coeff-Com: -0.283D+00 0.379D+00 0.904D+00
 Coeff:     -0.283D+00 0.379D+00 0.904D+00
 Gap=     0.344 Goal=   None    Shift=    0.000
 RMSDP=1.18D-05 MaxDP=1.02D-03 DE=-9.84D-06 OVMax= 7.34D-04

 Cycle   4  Pass 1  IDiag  1:
 RMSU=  7.25D-06    CP:  9.99D-01  1.32D+00  1.32D+00
 E= -2744.00816774486     Delta-E=       -0.000004292007 Rises=F Damp=F
 DIIS: error= 5.14D-06 at cycle   4 NSaved=   4.
 NSaved= 4 IEnMin= 4 EnMin= -2744.00816774486     IErMin= 4 ErrMin= 5.14D-06
 ErrMax= 5.14D-06  0.00D+00 EMaxC= 1.00D-01 BMatC= 1.47D-07 BMatP= 1.45D-06
 IDIUse=1 WtCom= 1.00D+00 WtEn= 0.00D+00
 Coeff-Com:  0.128D+00-0.285D+00-0.378D+00 0.153D+01
 Coeff:      0.128D+00-0.285D+00-0.378D+00 0.153D+01
 Gap=     0.344 Goal=   None    Shift=    0.000
 RMSDP=6.62D-06 MaxDP=8.54D-04 DE=-4.29D-06 OVMax= 4.97D-04

 Cycle   5  Pass 1  IDiag  1:
 RMSU=  4.94D-06    CP:  9.99D-01  1.31D+00  1.60D+00  1.40D+00
 E= -2744.00816881088     Delta-E=       -0.000001066022 Rises=F Damp=F
 DIIS: error= 2.42D-06 at cycle   5 NSaved=   5.
 NSaved= 5 IEnMin= 5 EnMin= -2744.00816881088     IErMin= 5 ErrMin= 2.42D-06
 ErrMax= 2.42D-06  0.00D+00 EMaxC= 1.00D-01 BMatC= 4.08D-08 BMatP= 1.47D-07
 IDIUse=1 WtCom= 1.00D+00 WtEn= 0.00D+00
 Coeff-Com:  0.854D-01-0.138D+00-0.276D+00 0.365D+00 0.965D+00
 Coeff:      0.854D-01-0.138D+00-0.276D+00 0.365D+00 0.965D+00
 Gap=     0.344 Goal=   None    Shift=    0.000
 RMSDP=2.88D-06 MaxDP=2.47D-04 DE=-1.07D-06 OVMax= 1.91D-04

 Cycle   6  Pass 1  IDiag  1:
 RMSU=  1.40D-06    CP:  9.99D-01  1.32D+00  1.67D+00  1.57D+00  1.40D+00
 E= -2744.00816900590     Delta-E=       -0.000000195021 Rises=F Damp=F
 DIIS: error= 8.77D-07 at cycle   6 NSaved=   6.
 NSaved= 6 IEnMin= 6 EnMin= -2744.00816900590     IErMin= 6 ErrMin= 8.77D-07
 ErrMax= 8.77D-07  0.00D+00 EMaxC= 1.00D-01 BMatC= 5.86D-09 BMatP= 4.08D-08
 IDIUse=1 WtCom= 1.00D+00 WtEn= 0.00D+00
 Coeff-Com: -0.294D-01 0.729D-01 0.759D-01-0.392D+00-0.153D-01 0.129D+01
 Coeff:     -0.294D-01 0.729D-01 0.759D-01-0.392D+00-0.153D-01 0.129D+01
 Gap=     0.344 Goal=   None    Shift=    0.000
 RMSDP=1.73D-06 MaxDP=1.53D-04 DE=-1.95D-07 OVMax= 1.21D-04

 Cycle   7  Pass 1  IDiag  1:
 RMSU=  6.96D-07    CP:  9.99D-01  1.33D+00  1.71D+00  1.63D+00  1.64D+00
                    CP:  1.43D+00
 E= -2744.00816904461     Delta-E=       -0.000000038712 Rises=F Damp=F
 DIIS: error= 2.04D-07 at cycle   7 NSaved=   7.
 NSaved= 7 IEnMin= 7 EnMin= -2744.00816904461     IErMin= 7 ErrMin= 2.04D-07
 ErrMax= 2.04D-07  0.00D+00 EMaxC= 1.00D-01 BMatC= 5.47D-10 BMatP= 5.86D-09
 IDIUse=1 WtCom= 1.00D+00 WtEn= 0.00D+00
 Coeff-Com: -0.108D-01 0.233D-01 0.296D-01-0.859D-01-0.849D-01 0.277D+00
 Coeff-Com:  0.852D+00
 Coeff:     -0.108D-01 0.233D-01 0.296D-01-0.859D-01-0.849D-01 0.277D+00
 Coeff:      0.852D+00
 Gap=     0.344 Goal=   None    Shift=    0.000
 RMSDP=2.55D-07 MaxDP=2.70D-05 DE=-3.87D-08 OVMax= 1.19D-05

 Cycle   8  Pass 1  IDiag  1:
 RMSU=  1.78D-07    CP:  9.99D-01  1.33D+00  1.71D+00  1.64D+00  1.62D+00
                    CP:  1.49D+00  1.14D+00
 E= -2744.00816904518     Delta-E=       -0.000000000560 Rises=F Damp=F
 DIIS: error= 9.05D-08 at cycle   8 NSaved=   8.
 NSaved= 8 IEnMin= 8 EnMin= -2744.00816904518     IErMin= 8 ErrMin= 9.05D-08
 ErrMax= 9.05D-08  0.00D+00 EMaxC= 1.00D-01 BMatC= 1.49D-10 BMatP= 5.47D-10
 IDIUse=1 WtCom= 1.00D+00 WtEn= 0.00D+00
 Coeff-Com:  0.408D-02-0.102D-01-0.123D-01 0.677D-01-0.285D-01-0.198D+00
 Coeff-Com:  0.214D+00 0.963D+00
 Coeff:      0.408D-02-0.102D-01-0.123D-01 0.677D-01-0.285D-01-0.198D+00
 Coeff:      0.214D+00 0.963D+00
 Gap=     0.344 Goal=   None    Shift=    0.000
 RMSDP=2.08D-07 MaxDP=1.67D-05 DE=-5.60D-10 OVMax= 7.01D-06

 Cycle   9  Pass 1  IDiag  1:
 RMSU=  1.20D-07    CP:  9.99D-01  1.33D+00  1.71D+00  1.64D+00  1.61D+00
                    CP:  1.54D+00  1.31D+00  1.26D+00
 E= -2744.00816904484     Delta-E=        0.000000000338 Rises=F Damp=F
 DIIS: error= 4.88D-08 at cycle   9 NSaved=   9.
 NSaved= 9 IEnMin= 8 EnMin= -2744.00816904518     IErMin= 9 ErrMin= 4.88D-08
 ErrMax= 4.88D-08  0.00D+00 EMaxC= 1.00D-01 BMatC= 2.30D-11 BMatP= 1.49D-10
 IDIUse=1 WtCom= 1.00D+00 WtEn= 0.00D+00
 Coeff-Com:  0.203D-02-0.409D-02-0.693D-02 0.204D-01 0.439D-02-0.527D-01
 Coeff-Com: -0.862D-01 0.368D-02 0.112D+01
 Coeff:      0.203D-02-0.409D-02-0.693D-02 0.204D-01 0.439D-02-0.527D-01
 Coeff:     -0.862D-01 0.368D-02 0.112D+01
 Gap=     0.344 Goal=   None    Shift=    0.000
 RMSDP=1.61D-07 MaxDP=1.12D-05 DE= 3.38D-10 OVMax= 3.60D-06

 Cycle  10  Pass 1  IDiag  1:
 RMSU=  7.50D-08    CP:  9.99D-01  1.33D+00  1.71D+00  1.65D+00  1.61D+00
                    CP:  1.57D+00  1.38D+00  1.55D+00  1.90D+00
 E= -2744.00816904524     Delta-E=       -0.000000000400 Rises=F Damp=F
 DIIS: error= 2.92D-08 at cycle  10 NSaved=  10.
 NSaved=10 IEnMin=10 EnMin= -2744.00816904524     IErMin=10 ErrMin= 2.92D-08
 ErrMax= 2.92D-08  0.00D+00 EMaxC= 1.00D-01 BMatC= 5.32D-12 BMatP= 2.30D-11
 IDIUse=1 WtCom= 1.00D+00 WtEn= 0.00D+00
 Coeff-Com: -0.919D-03 0.258D-02 0.241D-02-0.145D-01 0.512D-02 0.512D-01
 Coeff-Com: -0.398D-01-0.272D+00-0.199D-01 0.129D+01
 Coeff:     -0.919D-03 0.258D-02 0.241D-02-0.145D-01 0.512D-02 0.512D-01
 Coeff:     -0.398D-01-0.272D+00-0.199D-01 0.129D+01
 Gap=     0.344 Goal=   None    Shift=    0.000
 RMSDP=2.96D-07 MaxDP=2.63D-05 DE=-4.00D-10 OVMax= 2.47D-06

 Cycle  11  Pass 1  IDiag  1:
 RMSU=  1.28D-07    CP:  9.99D-01  1.33D+00  1.71D+00  1.64D+00  1.61D+00
                    CP:  1.62D+00  1.46D+00  1.91D+00  3.00D+00  2.73D+00
 E= -2744.00816904395     Delta-E=        0.000000001284 Rises=F Damp=F
 DIIS: error= 1.35D-08 at cycle  11 NSaved=  11.
 NSaved=11 IEnMin=10 EnMin= -2744.00816904524     IErMin=11 ErrMin= 1.35D-08
 ErrMax= 1.35D-08  0.00D+00 EMaxC= 1.00D-01 BMatC= 9.65D-13 BMatP= 5.32D-12
 IDIUse=1 WtCom= 1.00D+00 WtEn= 0.00D+00
 Coeff-Com: -0.404D-03 0.927D-03 0.130D-02-0.461D-02-0.691D-03 0.147D-01
 Coeff-Com:  0.122D-01-0.414D-01-0.181D+00 0.252D+00 0.947D+00
 Coeff:     -0.404D-03 0.927D-03 0.130D-02-0.461D-02-0.691D-03 0.147D-01
 Coeff:      0.122D-01-0.414D-01-0.181D+00 0.252D+00 0.947D+00
 Gap=     0.344 Goal=   None    Shift=    0.000
 RMSDP=3.25D-07 MaxDP=2.82D-05 DE= 1.28D-09 OVMax= 6.50D-07

 Cycle  12  Pass 1  IDiag  1:
 RMSU=  1.64D-07    CP:  9.99D-01  1.33D+00  1.71D+00  1.64D+00  1.61D+00
                    CP:  1.67D+00  1.55D+00  2.30D+00  3.00D+00  3.00D+00
                    CP:  2.82D+00
 E= -2744.00816904186     Delta-E=        0.000000002095 Rises=F Damp=F
 DIIS: error= 1.49D-08 at cycle  12 NSaved=  12.
 NSaved=12 IEnMin=10 EnMin= -2744.00816904524     IErMin=11 ErrMin= 1.35D-08
 ErrMax= 1.49D-08  0.00D+00 EMaxC= 1.00D-01 BMatC= 4.75D-13 BMatP= 9.65D-13
 IDIUse=1 WtCom= 1.00D+00 WtEn= 0.00D+00
 Coeff-Com: -0.299D-04-0.196D-04 0.198D-03 0.227D-03-0.113D-02-0.126D-02
 Coeff-Com:  0.106D-01 0.191D-01-0.729D-01-0.554D-01 0.258D+00 0.843D+00
 Coeff:     -0.299D-04-0.196D-04 0.198D-03 0.227D-03-0.113D-02-0.126D-02
 Coeff:      0.106D-01 0.191D-01-0.729D-01-0.554D-01 0.258D+00 0.843D+00
 Gap=     0.344 Goal=   None    Shift=    0.000
 RMSDP=3.43D-07 MaxDP=3.19D-05 DE= 2.10D-09 OVMax= 2.61D-07

 Cycle  13  Pass 1  IDiag  1:
 RMSU=  2.25D-07    CP:  9.99D-01  1.33D+00  1.71D+00  1.64D+00  1.60D+00
                    CP:  1.73D+00  1.65D+00  2.71D+00  3.00D+00  3.00D+00
                    CP:  3.00D+00  2.15D+00
 E= -2744.00816904275     Delta-E=       -0.000000000888 Rises=F Damp=F
 DIIS: error= 1.23D-08 at cycle  13 NSaved=  13.
 NSaved=13 IEnMin=10 EnMin= -2744.00816904524     IErMin=13 ErrMin= 1.23D-08
 ErrMax= 1.23D-08  0.00D+00 EMaxC= 1.00D-01 BMatC= 3.55D-13 BMatP= 4.75D-13
 IDIUse=1 WtCom= 1.00D+00 WtEn= 0.00D+00
 Coeff-Com: -0.294D-04 0.927D-04 0.786D-04-0.575D-03 0.359D-03 0.246D-02
 Coeff-Com: -0.347D-02-0.167D-01 0.131D-01 0.932D-01-0.141D+00-0.353D+00
 Coeff-Com:  0.141D+01
 Coeff:     -0.294D-04 0.927D-04 0.786D-04-0.575D-03 0.359D-03 0.246D-02
 Coeff:     -0.347D-02-0.167D-01 0.131D-01 0.932D-01-0.141D+00-0.353D+00
 Coeff:      0.141D+01
 Gap=     0.344 Goal=   None    Shift=    0.000
 RMSDP=5.18D-07 MaxDP=5.05D-05 DE=-8.88D-10 OVMax= 1.43D-07

 Cycle  14  Pass 1  IDiag  1:
 RMSU=  1.43D-07    CP:  9.99D-01  1.33D+00  1.71D+00  1.63D+00  1.60D+00
                    CP:  1.81D+00  1.80D+00  3.00D+00  3.00D+00  3.00D+00
                    CP:  3.00D+00  3.00D+00  2.72D+00
 E= -2744.00816904089     Delta-E=        0.000000001852 Rises=F Damp=F
 DIIS: error= 1.30D-08 at cycle  14 NSaved=  14.
 NSaved=14 IEnMin=10 EnMin= -2744.00816904524     IErMin=13 ErrMin= 1.23D-08
 ErrMax= 1.30D-08  0.00D+00 EMaxC= 1.00D-01 BMatC= 3.69D-13 BMatP= 3.55D-13
 IDIUse=1 WtCom= 1.00D+00 WtEn= 0.00D+00
 Coeff-Com: -0.454D-04 0.135D-03 0.121D-03-0.789D-03 0.397D-03 0.313D-02
 Coeff-Com: -0.362D-02-0.195D-01 0.988D-02 0.104D+00-0.113D+00-0.394D+00
 Coeff-Com:  0.121D+01 0.207D+00
 Coeff:     -0.454D-04 0.135D-03 0.121D-03-0.789D-03 0.397D-03 0.313D-02
 Coeff:     -0.362D-02-0.195D-01 0.988D-02 0.104D+00-0.113D+00-0.394D+00
 Coeff:      0.121D+01 0.207D+00
 Gap=     0.344 Goal=   None    Shift=    0.000
 RMSDP=9.75D-08 MaxDP=8.93D-06 DE= 1.85D-09 OVMax= 2.08D-08

 Cycle  15  Pass 1  IDiag  1:
 RMSU=  1.34D-08    CP:  9.99D-01  1.33D+00  1.71D+00  1.63D+00  1.60D+00
                    CP:  1.83D+00  1.82D+00  3.00D+00  3.00D+00  3.00D+00
                    CP:  3.00D+00  3.00D+00  3.00D+00  1.39D+00
 E= -2744.00816903952     Delta-E=        0.000000001375 Rises=F Damp=F
 DIIS: error= 1.45D-08 at cycle  15 NSaved=  15.
 NSaved=15 IEnMin=10 EnMin= -2744.00816904524     IErMin=13 ErrMin= 1.23D-08
 ErrMax= 1.45D-08  0.00D+00 EMaxC= 1.00D-01 BMatC= 4.38D-13 BMatP= 3.55D-13
 IDIUse=1 WtCom= 1.00D+00 WtEn= 0.00D+00
 Coeff-Com: -0.890D-05 0.213D-04 0.463D-04-0.178D-03 0.931D-04 0.903D-03
 Coeff-Com: -0.106D-02-0.669D-02 0.235D-02 0.453D-01-0.117D+00-0.235D+00
 Coeff-Com:  0.114D+01 0.502D+01-0.485D+01
 Coeff:     -0.890D-05 0.213D-04 0.463D-04-0.178D-03 0.931D-04 0.903D-03
 Coeff:     -0.106D-02-0.669D-02 0.235D-02 0.453D-01-0.117D+00-0.235D+00
 Coeff:      0.114D+01 0.502D+01-0.485D+01
 Gap=     0.344 Goal=   None    Shift=    0.000
 RMSDP=7.01D-07 MaxDP=6.08D-05 DE= 1.38D-09 OVMax= 1.41D-07

 Cycle  16  Pass 1  IDiag  1:
 RMSU=  1.46D-07    CP:  9.99D-01  1.33D+00  1.71D+00  1.64D+00  1.60D+00
                    CP:  1.71D+00  1.64D+00  2.67D+00  3.00D+00  3.00D+00
                    CP:  3.00D+00  2.05D+00  7.20D-01  2.34D-02 -8.42D-01
 E= -2744.00816904114     Delta-E=       -0.000000001623 Rises=F Damp=F
 DIIS: error= 1.54D-08 at cycle  16 NSaved=  16.
 NSaved=16 IEnMin=10 EnMin= -2744.00816904524     IErMin=13 ErrMin= 1.23D-08
 ErrMax= 1.54D-08  0.00D+00 EMaxC= 1.00D-01 BMatC= 3.51D-13 BMatP= 3.55D-13
 IDIUse=1 WtCom= 1.00D+00 WtEn= 0.00D+00
 Large coefficients: NSaved= 16 BigCof=    0.00 CofMax=   10.00 Det=-5.00D-15
 Inversion failed.  Reducing to 15 matrices.
 Coeff-Com: -0.208D-04 0.377D-04 0.694D-04-0.161D-03-0.232D-03 0.109D-02
 Coeff-Com:  0.160D-02-0.627D-02 0.648D-02-0.405D-01-0.223D-01 0.236D+00
 Coeff-Com:  0.621D+01-0.697D+01 0.158D+01
 Coeff:     -0.208D-04 0.377D-04 0.694D-04-0.161D-03-0.232D-03 0.109D-02
 Coeff:      0.160D-02-0.627D-02 0.648D-02-0.405D-01-0.223D-01 0.236D+00
 Coeff:      0.621D+01-0.697D+01 0.158D+01
 Gap=     0.344 Goal=   None    Shift=    0.000
 RMSDP=9.56D-07 MaxDP=8.56D-05 DE=-1.62D-09 OVMax= 1.89D-07

 Cycle  17  Pass 1  IDiag  1:
 RMSU=  1.32D-07    CP:  9.99D-01  1.33D+00  1.71D+00  1.65D+00  1.61D+00
                    CP:  1.56D+00  1.38D+00  1.57D+00  1.82D+00  9.73D-01
                    CP: -4.77D-01  1.53D-01 -4.17D-02 -5.39D-02  1.10D+00
                    CP:  1.70D+00
 E= -2744.00816904564     Delta-E=       -0.000000004497 Rises=F Damp=F
 DIIS: error= 1.95D-08 at cycle  17 NSaved=  16.
 NSaved=16 IEnMin=16 EnMin= -2744.00816904564     IErMin=12 ErrMin= 1.23D-08
 ErrMax= 1.95D-08  0.00D+00 EMaxC= 1.00D-01 BMatC= 3.29D-13 BMatP= 3.51D-13
 IDIUse=1 WtCom= 1.00D+00 WtEn= 0.00D+00
 Large coefficients: NSaved= 16 BigCof=    0.00 CofMax=   10.00 Det=-3.95D-15
 Inversion failed.  Reducing to 15 matrices.
 Coeff-Com:  0.408D-04-0.726D-04-0.786D-04 0.246D-03 0.868D-03-0.282D-04
 Coeff-Com: -0.719D-02 0.904D-02-0.383D-01 0.802D-02 0.277D+00 0.598D+01
 Coeff-Com: -0.637D+01 0.617D+00 0.520D+00
 Coeff:      0.408D-04-0.726D-04-0.786D-04 0.246D-03 0.868D-03-0.282D-04
 Coeff:     -0.719D-02 0.904D-02-0.383D-01 0.802D-02 0.277D+00 0.598D+01
 Coeff:     -0.637D+01 0.617D+00 0.520D+00
 Gap=     0.344 Goal=   None    Shift=    0.000
 RMSDP=2.82D-07 MaxDP=2.53D-05 DE=-4.50D-09 OVMax= 5.37D-08

 Cycle  18  Pass 1  IDiag  1:
 RMSU=  6.68D-08    CP:  9.99D-01  1.33D+00  1.71D+00  1.65D+00  1.61D+00
                    CP:  1.52D+00  1.30D+00  1.26D+00  2.11D-01 -6.67D-01
                    CP: -1.07D+00  3.43D-01 -6.58D-02 -2.62D-02  5.46D-01
                    CP:  1.41D+00  1.18D+00
 E= -2744.00816904551     Delta-E=        0.000000000127 Rises=F Damp=F
 DIIS: error= 1.02D-08 at cycle  18 NSaved=  16.
 NSaved=16 IEnMin=15 EnMin= -2744.00816904564     IErMin=16 ErrMin= 1.02D-08
 ErrMax= 1.02D-08  0.00D+00 EMaxC= 1.00D-01 BMatC= 1.44D-13 BMatP= 3.29D-13
 IDIUse=1 WtCom= 1.00D+00 WtEn= 0.00D+00
 Large coefficients: NSaved= 16 BigCof=    0.00 CofMax=   10.00 Det=-1.01D-15
 Inversion failed.  Reducing to 15 matrices.
 Coeff-Com: -0.472D-04 0.266D-04 0.274D-03 0.305D-03-0.144D-02-0.649D-02
 Coeff-Com:  0.132D-01-0.137D-02-0.620D-01-0.572D-01 0.276D+01-0.253D+01
 Coeff-Com:  0.382D+00-0.714D+00 0.122D+01
 Coeff:     -0.472D-04 0.266D-04 0.274D-03 0.305D-03-0.144D-02-0.649D-02
 Coeff:      0.132D-01-0.137D-02-0.620D-01-0.572D-01 0.276D+01-0.253D+01
 Coeff:      0.382D+00-0.714D+00 0.122D+01
 Gap=     0.344 Goal=   None    Shift=    0.000
 RMSDP=3.83D-07 MaxDP=3.71D-05 DE= 1.27D-10 OVMax= 8.38D-08

 Cycle  19  Pass 1  IDiag  1:
 RMSU=  8.29D-08    CP:  9.99D-01  1.33D+00  1.71D+00  1.65D+00  1.61D+00
                    CP:  1.58D+00  1.40D+00  1.63D+00  2.31D+00  1.17D+00
                    CP: -1.92D-01  2.61D-02  1.61D-02  5.18D-02 -8.49D-01
                    CP:  1.01D+00  3.27D-01  4.48D-01
 E= -2744.00816904429     Delta-E=        0.000000001219 Rises=F Damp=F
 DIIS: error= 7.82D-09 at cycle  19 NSaved=  16.
 NSaved=16 IEnMin=14 EnMin= -2744.00816904564     IErMin=16 ErrMin= 7.82D-09
 ErrMax= 7.82D-09  0.00D+00 EMaxC= 1.00D-01 BMatC= 1.12D-13 BMatP= 1.44D-13
 IDIUse=1 WtCom= 1.00D+00 WtEn= 0.00D+00
 Large coefficients: NSaved= 16 BigCof=    0.00 CofMax=   10.00 Det=-9.26D-16
 Inversion failed.  Reducing to 15 matrices.
 Coeff-Com: -0.173D-04-0.217D-04 0.173D-03 0.383D-03-0.844D-03-0.108D-02
 Coeff-Com: -0.201D-01 0.119D-01-0.289D-01-0.102D+00 0.270D+00-0.344D+00
 Coeff-Com: -0.937D+00 0.122D+01 0.936D+00
 Coeff:     -0.173D-04-0.217D-04 0.173D-03 0.383D-03-0.844D-03-0.108D-02
 Coeff:     -0.201D-01 0.119D-01-0.289D-01-0.102D+00 0.270D+00-0.344D+00
 Coeff:     -0.937D+00 0.122D+01 0.936D+00
 Gap=     0.344 Goal=   None    Shift=    0.000
 RMSDP=4.06D-07 MaxDP=3.82D-05 DE= 1.22D-09 OVMax= 8.75D-08

 Cycle  20  Pass 1  IDiag  1:
 RMSU=  5.22D-08    CP:  9.99D-01  1.33D+00  1.71D+00  1.65D+00  1.61D+00
                    CP:  1.52D+00  1.29D+00  1.18D+00  8.09D-03 -1.17D+00
                    CP: -1.13D+00  3.22D-01 -2.04D-02  1.12D-01 -1.11D+00
                    CP:  7.19D-01  6.71D-01  1.77D+00  1.15D+00
 E= -2744.00816904677     Delta-E=       -0.000000002474 Rises=F Damp=F
 DIIS: error= 6.80D-09 at cycle  20 NSaved=  16.
 NSaved=16 IEnMin=16 EnMin= -2744.00816904677     IErMin=16 ErrMin= 6.80D-09
 ErrMax= 6.80D-09  0.00D+00 EMaxC= 1.00D-01 BMatC= 1.64D-14 BMatP= 1.12D-13
 IDIUse=1 WtCom= 1.00D+00 WtEn= 0.00D+00
 Large coefficients: NSaved= 16 BigCof=    0.00 CofMax=   10.00 Det=-7.48D-16
 Inversion failed.  Reducing to 15 matrices.
 Coeff-Com: -0.519D-05 0.180D-04 0.112D-03 0.549D-03 0.425D-03-0.164D-01
 Coeff-Com:  0.181D-01 0.238D-01-0.959D+00 0.101D+01-0.284D+00-0.443D+00
 Coeff-Com:  0.584D+00 0.494D+00 0.574D+00
 Coeff:     -0.519D-05 0.180D-04 0.112D-03 0.549D-03 0.425D-03-0.164D-01
 Coeff:      0.181D-01 0.238D-01-0.959D+00 0.101D+01-0.284D+00-0.443D+00
 Coeff:      0.584D+00 0.494D+00 0.574D+00
 Gap=     0.344 Goal=   None    Shift=    0.000
 RMSDP=5.74D-08 MaxDP=4.84D-06 DE=-2.47D-09 OVMax= 1.48D-08

 Cycle  21  Pass 1  IDiag  1:
 Restarting incremental Fock formation.
 E= -2744.00816905017     Delta-E=       -0.000000003402 Rises=F Damp=F
 DIIS: error= 3.27D-08 at cycle  21 NSaved=  16.
 NSaved=16 IEnMin=16 EnMin= -2744.00816905017     IErMin=15 ErrMin= 6.80D-09
 ErrMax= 3.27D-08  0.00D+00 EMaxC= 1.00D-01 BMatC= 1.71D-12 BMatP= 1.64D-14
 IDIUse=1 WtCom= 1.00D+00 WtEn= 0.00D+00
 Large coefficients: NSaved= 16 BigCof=    0.00 CofMax=   10.00 Det=-6.15D-16
 Inversion failed.  Reducing to 15 matrices.
 Coeff-Com: -0.173D-03-0.381D-03 0.228D-02 0.398D-02-0.306D-01-0.485D-01
 Coeff-Com:  0.559D-01 0.168D+00-0.101D+00-0.393D-01-0.278D+00 0.355D+00
 Coeff-Com:  0.355D+00 0.492D+00 0.653D-01
 Coeff:     -0.173D-03-0.381D-03 0.228D-02 0.398D-02-0.306D-01-0.485D-01
 Coeff:      0.559D-01 0.168D+00-0.101D+00-0.393D-01-0.278D+00 0.355D+00
 Coeff:      0.355D+00 0.492D+00 0.653D-01
 Gap=     0.344 Goal=   None    Shift=    0.000
 RMSDP=1.94D-07 MaxDP=1.66D-05 DE=-3.40D-09 OVMax= 3.77D-08

 Cycle  22  Pass 1  IDiag  1:
 RMSU=  1.92D-07    CP:  1.00D+00
 E= -2744.00816904909     Delta-E=        0.000000001080 Rises=F Damp=F
 DIIS: error= 2.99D-08 at cycle  22 NSaved=  16.
 NSaved=16 IEnMin=15 EnMin= -2744.00816905017     IErMin=14 ErrMin= 6.80D-09
 ErrMax= 2.99D-08  0.00D+00 EMaxC= 1.00D-01 BMatC= 1.60D-12 BMatP= 1.64D-14
 IDIUse=1 WtCom= 1.00D+00 WtEn= 0.00D+00
 Large coefficients: NSaved= 16 BigCof=    0.00 CofMax=   10.00 Det=-6.11D-16
 Inversion failed.  Reducing to 15 matrices.
 Coeff-Com: -0.173D-03-0.382D-03 0.226D-02 0.396D-02-0.296D-01-0.473D-01
 Coeff-Com:  0.495D-01 0.749D-01-0.619D-01-0.288D+00 0.376D+00 0.358D+00
 Coeff-Com:  0.502D+00 0.108D+00-0.466D-01
 Coeff:     -0.173D-03-0.382D-03 0.226D-02 0.396D-02-0.296D-01-0.473D-01
 Coeff:      0.495D-01 0.749D-01-0.619D-01-0.288D+00 0.376D+00 0.358D+00
 Coeff:      0.502D+00 0.108D+00-0.466D-01
 Gap=     0.344 Goal=   None    Shift=    0.000
 RMSDP=2.04D-08 MaxDP=1.50D-06 DE= 1.08D-09 OVMax= 3.97D-09

 Cycle  23  Pass 1  IDiag  1:
 RMSU=  2.85D-09    CP:  1.00D+00  8.96D-01
 E= -2744.00816904998     Delta-E=       -0.000000000895 Rises=F Damp=F
 DIIS: error= 2.96D-08 at cycle  23 NSaved=  16.
 NSaved=16 IEnMin=14 EnMin= -2744.00816905017     IErMin=13 ErrMin= 6.80D-09
 ErrMax= 2.96D-08  0.00D+00 EMaxC= 1.00D-01 BMatC= 1.63D-12 BMatP= 1.64D-14
 IDIUse=1 WtCom= 1.00D+00 WtEn= 0.00D+00
 Large coefficients: NSaved= 16 BigCof=    0.00 CofMax=   10.00 Det=-8.27D-16
 Inversion failed.  Reducing to 15 matrices.
 Coeff-Com: -0.214D-03-0.327D-03 0.316D-02 0.355D-02-0.372D-01-0.405D-01
 Coeff-Com:  0.107D+00-0.426D-01-0.259D+00 0.333D+00 0.345D+00 0.527D+00
 Coeff-Com:  0.965D-01-0.625D-01 0.266D-01
 Coeff:     -0.214D-03-0.327D-03 0.316D-02 0.355D-02-0.372D-01-0.405D-01
 Coeff:      0.107D+00-0.426D-01-0.259D+00 0.333D+00 0.345D+00 0.527D+00
 Coeff:      0.965D-01-0.625D-01 0.266D-01
 Gap=     0.344 Goal=   None    Shift=    0.000
 RMSDP=3.12D-08 MaxDP=2.91D-06 DE=-8.95D-10 OVMax= 6.53D-09

 Cycle  24  Pass 1  IDiag  1:
 RMSU=  8.24D-09    CP:  1.00D+00  7.41D-01  1.48D+00
 E= -2744.00816905003     Delta-E=       -0.000000000051 Rises=F Damp=F
 DIIS: error= 3.27D-08 at cycle  24 NSaved=  16.
 NSaved=16 IEnMin=13 EnMin= -2744.00816905017     IErMin=12 ErrMin= 6.80D-09
 ErrMax= 3.27D-08  0.00D+00 EMaxC= 1.00D-01 BMatC= 1.73D-12 BMatP= 1.64D-14
 IDIUse=1 WtCom= 1.00D+00 WtEn= 0.00D+00
 Large coefficients: NSaved= 16 BigCof=    0.00 CofMax=   10.00 Det=-5.04D-16
 Inversion failed.  Reducing to 15 matrices.
 Coeff-Com: -0.210D-03-0.373D-03 0.285D-02 0.382D-02-0.340D-01-0.444D-01
 Coeff-Com:  0.857D-01-0.318D+00 0.341D+00 0.353D+00 0.561D+00 0.263D-02
 Coeff-Com:  0.258D+00-0.808D+00 0.597D+00
 Coeff:     -0.210D-03-0.373D-03 0.285D-02 0.382D-02-0.340D-01-0.444D-01
 Coeff:      0.857D-01-0.318D+00 0.341D+00 0.353D+00 0.561D+00 0.263D-02
 Coeff:      0.258D+00-0.808D+00 0.597D+00
 Gap=     0.344 Goal=   None    Shift=    0.000
 RMSDP=1.76D-08 MaxDP=1.69D-06 DE=-5.09D-11 OVMax= 2.93D-09

 Cycle  25  Pass 1  IDiag  1:
 RMSU=  1.47D-08    CP:  1.00D+00  7.89D-01  1.22D+00  8.74D-01
 E= -2744.00816904974     Delta-E=        0.000000000291 Rises=F Damp=F
 DIIS: error= 3.50D-08 at cycle  25 NSaved=  16.
 NSaved=16 IEnMin=12 EnMin= -2744.00816905017     IErMin=11 ErrMin= 6.80D-09
 ErrMax= 3.50D-08  0.00D+00 EMaxC= 1.00D-01 BMatC= 1.79D-12 BMatP= 1.64D-14
 IDIUse=1 WtCom= 1.00D+00 WtEn= 0.00D+00
 Large coefficients: NSaved= 16 BigCof=    0.00 CofMax=   10.00 Det=-5.09D-16
 Inversion failed.  Reducing to 15 matrices.
 Coeff-Com: -0.604D-04-0.709D-04 0.129D-02 0.133D-02-0.233D-01-0.385D-02
 Coeff-Com: -0.290D+00 0.322D+00 0.325D+00 0.640D+00-0.248D-01 0.267D+00
 Coeff-Com: -0.971D+00 0.300D+00 0.458D+00
 Coeff:     -0.604D-04-0.709D-04 0.129D-02 0.133D-02-0.233D-01-0.385D-02
 Coeff:     -0.290D+00 0.322D+00 0.325D+00 0.640D+00-0.248D-01 0.267D+00
 Coeff:     -0.971D+00 0.300D+00 0.458D+00
 Gap=     0.344 Goal=   None    Shift=    0.000
 RMSDP=7.83D-08 MaxDP=6.96D-06 DE= 2.91D-10 OVMax= 1.59D-08

 Cycle  26  Pass 1  IDiag  1:
 RMSU=  1.28D-08    CP:  1.00D+00  3.99D-01  8.67D-01  2.63D+00  1.04D+00
 E= -2744.00816905017     Delta-E=       -0.000000000429 Rises=F Damp=F
 DIIS: error= 4.46D-08 at cycle  26 NSaved=  16.
 NSaved=16 IEnMin=16 EnMin= -2744.00816905017     IErMin=10 ErrMin= 6.80D-09
 ErrMax= 4.46D-08  0.00D+00 EMaxC= 1.00D-01 BMatC= 2.00D-12 BMatP= 1.64D-14
 IDIUse=1 WtCom= 1.00D+00 WtEn= 0.00D+00
 Large coefficients: NSaved= 16 BigCof=    0.00 CofMax=   10.00 Det=-1.93D-16
 Inversion failed.  Reducing to 15 matrices.
 Coeff-Com: -0.746D-04-0.842D-04 0.150D-02 0.144D-02-0.245D-01-0.294D+00
 Coeff-Com:  0.332D+00 0.311D+00 0.647D+00-0.508D-01 0.490D-01-0.397D+00
 Coeff-Com: -0.911D-01 0.366D+00 0.150D+00
 Coeff:     -0.746D-04-0.842D-04 0.150D-02 0.144D-02-0.245D-01-0.294D+00
 Coeff:      0.332D+00 0.311D+00 0.647D+00-0.508D-01 0.490D-01-0.397D+00
 Coeff:     -0.911D-01 0.366D+00 0.150D+00
 Gap=     0.344 Goal=   None    Shift=    0.000
 RMSDP=6.37D-09 MaxDP=6.01D-07 DE=-4.29D-10 OVMax= 9.62D-10

 SCF Done:  E(RHF) =  -2744.00816905     A.U. after   26 cycles
            NFock= 26  Conv=0.64D-08     -V/T= 2.0002
 KE= 2.743542245880D+03 PE=-2.727815747869D+04 EE= 1.135081869994D+04
 Leave Link  502 at Fri Nov 12 01:37:31 2021, MaxMem=  7864320000 cpu:          380187.3 elap:           11988.2
 (Enter /apps/gaussian/g16-c01-avx/g16/l508.exe)
 QCSCF skips out because SCF is already converged.
 Leave Link  508 at Fri Nov 12 01:37:31 2021, MaxMem=  7864320000 cpu:               0.1 elap:               0.0
 (Enter /apps/gaussian/g16-c01-avx/g16/l801.exe)
 ExpMin= 2.97D-02 ExpMax= 9.05D+03 ExpMxC= 3.09D+02 IAcc=3 IRadAn=         7 AccDes= 0.00D+00
 HarFok:  IExCor=  205 AccDes= 0.00D+00 IRadAn=         7 IDoV=-2 UseB2=F ITyADJ=14
 ICtDFT= 12500011 ScaDFX=  1.000000  1.000000  1.000000  1.000000
 GSVD:  LWork=       -5025 too small for GESVD, short by       23450 words or       23450 for optimal perf.
 Largest valence mixing into a core orbital is  1.17D-04
 Largest core mixing into a valence orbital is  4.69D-05
 Range of M.O.s used for correlation:    68  2146
 NBasis=  2171 NAE=   241 NBE=   241 NFC=    67 NFV=     0
 NROrb=   2079 NOA=   174 NOB=   174 NVA=  1905 NVB=  1905

 **** Warning!!: The largest alpha MO coefficient is  0.14986663D+03

 Leave Link  801 at Fri Nov 12 01:37:32 2021, MaxMem=  7864320000 cpu:              28.3 elap:               0.9
 (Enter /apps/gaussian/g16-c01-avx/g16/l906.exe)
 FulOut=F Deriv=F AODrv=F NAtomX=   137
   MMem=           0  MDisk=         174 MDiskD=         174
  W3Min=   764038350 MinDsk=   676662215 NBas6D=        2305
 NBas2D=     2660698    NTT=     2657665    LW2=     2000000
    MDV=  7840885946 MDiskM=       47233 NBas2p=     1684021
 Disk-based method using OVN memory for174 occupieds at a time.
 Estimated scratch disk usage=************ words.
 IMap=   1   2   3   4   5   6   7   8   9  10  11  12  13  14  15  16  17  18  19  20
 IMap=  21  22  23  24  25  26  27  28  29  30  31  32  33  34  35  36  37  38  39  40
 IMap=  41  42  43  44  45  46  47  48  49  50  51  52  53  54  55  56  57  58  59  60
 IMap=  61  62  63  64  65  66  67  68  69  70  71  72  73  74  75  76  77  78  79  80
 IMap=  81  82  83  84  85  86  87  88  89  90  91  92  93  94  95  96  97  98  99 100
 IMap= 101 102 103 104 105 106 107 108 109 110 111 112 113 114 115 116 117 118 119 120
 IMap= 121 122 123 124 125 126 127 128 129 130 131 132 133 134 135 136 137 138 139 140
 IMap= 141 142 143 144 145 146 147 148 149 150 151 152 153 154 155 156 157 158 159 160
 IMap= 161 162 163 164 165 166 167 168 169 170 171 172 173 174
 Actual    scratch disk usage=************ words.
 JobTyp=1 Pass  1:  I=   1 to 174 NPSUse= 32 ParTrn=T ParDer=T DoDerP=F.
 Spin components of T(2) and E(2):
     alpha-alpha T2 =       0.4774943739D+00 E2=     -0.1279237285D+01
     alpha-beta  T2 =       0.2512695315D+01 E2=     -0.7184119836D+01
     beta-beta   T2 =       0.4774943739D+00 E2=     -0.1279237285D+01
 The integrals were generated   1 times.
 ANorm=    0.2113689680D+01
 E2 =    -0.9742594406D+01 EUMP2 =    -0.27537507634561D+04
 Leave Link  906 at Sun Nov 14 02:17:17 2021, MaxMem=  7864320000 cpu:         5504474.1 elap:          175184.0
 (Enter /apps/gaussian/g16-c01-avx/g16/l601.exe)
 Copying SCF densities to generalized density rwf, IOpCl= 0 IROHF=0.
 Hyperfine terms turned off by default for NAtoms > 100.

 **********************************************************************

            Population analysis using the SCF Density.

 **********************************************************************

 Orbital symmetries:
       Occupied  (A) (A) (A) (A) (A) (A) (A) (A) (A) (A) (A) (A)
                 (A) (A) (A) (A) (A) (A) (A) (A) (A) (A) (A) (A)
                 (A) (A) (A) (A) (A) (A) (A) (A) (A) (A) (A) (A)
                 (A) (A) (A) (A) (A) (A) (A) (A) (A) (A) (A) (A)
                 (A) (A) (A) (A) (A) (A) (A) (A) (A) (A) (A) (A)
                 (A) (A) (A) (A) (A) (A) (A) (A) (A) (A) (A) (A)
                 (A) (A) (A) (A) (A) (A) (A) (A) (A) (A) (A) (A)
                 (A) (A) (A) (A) (A) (A) (A) (A) (A) (A) (A) (A)
                 (A) (A) (A) (A) (A) (A) (A) (A) (A) (A) (A) (A)
                 (A) (A) (A) (A) (A) (A) (A) (A) (A) (A) (A) (A)
                 (A) (A) (A) (A) (A) (A) (A) (A) (A) (A) (A) (A)
                 (A) (A) (A) (A) (A) (A) (A) (A) (A) (A) (A) (A)
                 (A) (A) (A) (A) (A) (A) (A) (A) (A) (A) (A) (A)
                 (A) (A) (A) (A) (A) (A) (A) (A) (A) (A) (A) (A)
                 (A) (A) (A) (A) (A) (A) (A) (A) (A) (A) (A) (A)
                 (A) (A) (A) (A) (A) (A) (A) (A) (A) (A) (A) (A)
                 (A) (A) (A) (A) (A) (A) (A) (A) (A) (A) (A) (A)
                 (A) (A) (A) (A) (A) (A) (A) (A) (A) (A) (A) (A)
                 (A) (A) (A) (A) (A) (A) (A) (A) (A) (A) (A) (A)
                 (A) (A) (A) (A) (A) (A) (A) (A) (A) (A) (A) (A)
                 (A)
       Virtual   (A) (A) (A) (A) (A) (A) (A) (A) (A) (A) (A) (A)
                 (A) (A) (A) (A) (A) (A) (A) (A) (A) (A) (A) (A)
                 (A) (A) (A) (A) (A) (A) (A) (A) (A) (A) (A) (A)
                 (A) (A) (A) (A) (A) (A) (A) (A) (A) (A) (A) (A)
                 (A) (A) (A) (A) (A) (A) (A) (A) (A) (A) (A) (A)
                 (A) (A) (A) (A) (A) (A) (A) (A) (A) (A) (A) (A)
                 (A) (A) (A) (A) (A) (A) (A) (A) (A) (A) (A) (A)
                 (A) (A) (A) (A) (A) (A) (A) (A) (A) (A) (A) (A)
                 (A) (A) (A) (A) (A) (A) (A) (A) (A) (A) (A) (A)
                 (A) (A) (A) (A) (A) (A) (A) (A) (A) (A) (A) (A)
                 (A) (A) (A) (A) (A) (A) (A) (A) (A) (A) (A) (A)
                 (A) (A) (A) (A) (A) (A) (A) (A) (A) (A) (A) (A)
                 (A) (A) (A) (A) (A) (A) (A) (A) (A) (A) (A) (A)
                 (A) (A) (A) (A) (A) (A) (A) (A) (A) (A) (A) (A)
                 (A) (A) (A) (A) (A) (A) (A) (A) (A) (A) (A) (A)
                 (A) (A) (A) (A) (A) (A) (A) (A) (A) (A) (A) (A)
                 (A) (A) (A) (A) (A) (A) (A) (A) (A) (A) (A) (A)
                 (A) (A) (A) (A) (A) (A) (A) (A) (A) (A) (A) (A)
                 (A) (A) (A) (A) (A) (A) (A) (A) (A) (A) (A) (A)
                 (A) (A) (A) (A) (A) (A) (A) (A) (A) (A) (A) (A)
                 (A) (A) (A) (A) (A) (A) (A) (A) (A) (A) (A) (A)
                 (A) (A) (A) (A) (A) (A) (A) (A) (A) (A) (A) (A)
                 (A) (A) (A) (A) (A) (A) (A) (A) (A) (A) (A) (A)
                 (A) (A) (A) (A) (A) (A) (A) (A) (A) (A) (A) (A)
                 (A) (A) (A) (A) (A) (A) (A) (A) (A) (A) (A) (A)
                 (A) (A) (A) (A) (A) (A) (A) (A) (A) (A) (A) (A)
                 (A) (A) (A) (A) (A) (A) (A) (A) (A) (A) (A) (A)
                 (A) (A) (A) (A) (A) (A) (A) (A) (A) (A) (A) (A)
                 (A) (A) (A) (A) (A) (A) (A) (A) (A) (A) (A) (A)
                 (A) (A) (A) (A) (A) (A) (A) (A) (A) (A) (A) (A)
                 (A) (A) (A) (A) (A) (A) (A) (A) (A) (A) (A) (A)
                 (A) (A) (A) (A) (A) (A) (A) (A) (A) (A) (A) (A)
                 (A) (A) (A) (A) (A) (A) (A) (A) (A) (A) (A) (A)
                 (A) (A) (A) (A) (A) (A) (A) (A) (A) (A) (A) (A)
                 (A) (A) (A) (A) (A) (A) (A) (A) (A) (A) (A) (A)
                 (A) (A) (A) (A) (A) (A) (A) (A) (A) (A) (A) (A)
                 (A) (A) (A) (A) (A) (A) (A) (A) (A) (A) (A) (A)
                 (A) (A) (A) (A) (A) (A) (A) (A) (A) (A) (A) (A)
                 (A) (A) (A) (A) (A) (A) (A) (A) (A) (A) (A) (A)
                 (A) (A) (A) (A) (A) (A) (A) (A) (A) (A) (A) (A)
                 (A) (A) (A) (A) (A) (A) (A) (A) (A) (A) (A) (A)
                 (A) (A) (A) (A) (A) (A) (A) (A) (A) (A) (A) (A)
                 (A) (A) (A) (A) (A) (A) (A) (A) (A) (A) (A) (A)
                 (A) (A) (A) (A) (A) (A) (A) (A) (A) (A) (A) (A)
                 (A) (A) (A) (A) (A) (A) (A) (A) (A) (A) (A) (A)
                 (A) (A) (A) (A) (A) (A) (A) (A) (A) (A) (A) (A)
[...]
 Alpha virt. eigenvalues --    2.06942   2.07215   2.07417   2.07556   2.07868
 Alpha virt. eigenvalues --    2.08156   2.08166   2.08668   2.08961   2.09285
 Alpha virt. eigenvalues --    2.09376   2.09506   2.09648   2.09873   2.10128
 Alpha virt. eigenvalues --    2.10231   2.10276   2.10697   2.10871   2.10916
 Alpha virt. eigenvalues --    2.11112   2.11203   2.11414   2.11753   2.12174
 Alpha virt. eigenvalues --    2.12475   2.12616   2.12936   2.12997   2.13210
 Alpha virt. eigenvalues --    2.13409   2.13609   2.13757   2.14092   2.14275
 Alpha virt. eigenvalues --    2.14499   2.14604   2.14662   2.15207   2.15467
 Alpha virt. eigenvalues --    2.15653   2.15952   2.16067   2.16358   2.16460
 Alpha virt. eigenvalues --    2.16626   2.16783   2.17051   2.17201   2.17270
 Alpha virt. eigenvalues --    2.17490   2.17819   2.17868   2.18165   2.18374
 Alpha virt. eigenvalues --    2.18611   2.18875   2.18953   2.19119   2.19324
 Alpha virt. eigenvalues --    2.19411   2.19561   2.19866   2.20121   2.20362
 Alpha virt. eigenvalues --    2.20611   2.20659   2.20849   2.21037   2.21382
 Alpha virt. eigenvalues --    2.21680   2.21821   2.21976   2.22058   2.22396
 Alpha virt. eigenvalues --    2.22538   2.22696   2.22918   2.23110   2.23321
 Alpha virt. eigenvalues --    2.23469   2.23609   2.23740   2.24065   2.24509
 Alpha virt. eigenvalues --    2.24615   2.24781   2.24970   2.25297   2.25435
 Alpha virt. eigenvalues --    2.25454   2.25719   2.25922   2.26068   2.26368
 Alpha virt. eigenvalues --    2.26516   2.26587   2.27094   2.27236   2.27575
 Alpha virt. eigenvalues --    2.27821   2.28060   2.28461   2.28624   2.28721
 Alpha virt. eigenvalues --    2.29013   2.29197   2.29325   2.29525   2.29580
 Alpha virt. eigenvalues --    2.29937   2.30030   2.30096   2.30501   2.30650
 Alpha virt. eigenvalues --    2.30874   2.31197   2.31303   2.31503   2.31677
 Alpha virt. eigenvalues --    2.31833   2.31965   2.32175   2.32291   2.32435
 Alpha virt. eigenvalues --    2.32905   2.33022   2.33182   2.33381   2.33554
 Alpha virt. eigenvalues --    2.33839   2.34228   2.34415   2.34604   2.34867
 Alpha virt. eigenvalues --    2.35029   2.35129   2.35341   2.35552   2.35941
 Alpha virt. eigenvalues --    2.36220   2.36418   2.36651   2.36751   2.36917
 Alpha virt. eigenvalues --    2.37303   2.37486   2.37563   2.38074   2.38135
 Alpha virt. eigenvalues --    2.38297   2.38504   2.38703   2.38886   2.39064
 Alpha virt. eigenvalues --    2.39351   2.39577   2.39799   2.39883   2.40204
 Alpha virt. eigenvalues --    2.40483   2.40523   2.40862   2.41011   2.41294
 Alpha virt. eigenvalues --    2.41566   2.41643   2.41692   2.41833   2.42097
 Alpha virt. eigenvalues --    2.42265   2.42411   2.42487   2.42709   2.43169
 Alpha virt. eigenvalues --    2.43201   2.43553   2.43701   2.43955   2.44265
 Alpha virt. eigenvalues --    2.44599   2.44776   2.44987   2.45264   2.45519
 Alpha virt. eigenvalues --    2.45783   2.46168   2.46239   2.46471   2.46549
 Alpha virt. eigenvalues --    2.46710   2.46799   2.46989   2.47308   2.47438
 Alpha virt. eigenvalues --    2.47995   2.48015   2.48221   2.48390   2.48704
 Alpha virt. eigenvalues --    2.48797   2.49108   2.49162   2.49339   2.49498
 Alpha virt. eigenvalues --    2.49909   2.50021   2.50165   2.50374   2.50732
 Alpha virt. eigenvalues --    2.50896   2.51071   2.51193   2.51399   2.51569
 Alpha virt. eigenvalues --    2.51748   2.52096   2.52296   2.52471   2.52760
 Alpha virt. eigenvalues --    2.52970   2.53088   2.53321   2.53455   2.53768
 Alpha virt. eigenvalues --    2.53987   2.54083   2.54270   2.54541   2.54836
 Alpha virt. eigenvalues --    2.55002   2.55313   2.55347   2.55758   2.56131
 Alpha virt. eigenvalues --    2.56255   2.56582   2.56744   2.57034   2.57123
 Alpha virt. eigenvalues --    2.57494   2.57753   2.58223   2.58306   2.58757
 Alpha virt. eigenvalues --    2.58968   2.59048   2.59246   2.59453   2.59560
 Alpha virt. eigenvalues --    2.59892   2.60213   2.60340   2.60646   2.60935
 Alpha virt. eigenvalues --    2.61152   2.61471   2.61664   2.61837   2.61932
 Alpha virt. eigenvalues --    2.62405   2.62431   2.62775   2.62982   2.63180
 Alpha virt. eigenvalues --    2.63363   2.63533   2.63824   2.63884   2.63990
 Alpha virt. eigenvalues --    2.64419   2.64480   2.64621   2.64997   2.65233
 Alpha virt. eigenvalues --    2.65596   2.65810   2.65919   2.65954   2.66147
 Alpha virt. eigenvalues --    2.66365   2.66601   2.66901   2.67035   2.67136
 Alpha virt. eigenvalues --    2.67571   2.67804   2.67933   2.68397   2.68408
 Alpha virt. eigenvalues --    2.68649   2.69034   2.69313   2.69784   2.69907
 Alpha virt. eigenvalues --    2.70048   2.70339   2.70878   2.71020   2.71242
 Alpha virt. eigenvalues --    2.71391   2.71658   2.72018   2.72095   2.72249
 Alpha virt. eigenvalues --    2.72391   2.72495   2.73097   2.73348   2.73668
 Alpha virt. eigenvalues --    2.74041   2.74221   2.74271   2.74421   2.74643
 Alpha virt. eigenvalues --    2.74730   2.74909   2.75275   2.75541   2.75673
 Alpha virt. eigenvalues --    2.75892   2.75991   2.76298   2.76661   2.76756
 Alpha virt. eigenvalues --    2.77325   2.77528   2.77642   2.77935   2.78740
 Alpha virt. eigenvalues --    2.78826   2.78987   2.79080   2.79686   2.79721
 Alpha virt. eigenvalues --    2.80066   2.80200   2.80801   2.81286   2.81921
 Alpha virt. eigenvalues --    2.82203   2.82964   2.83140   2.83292   2.83781
 Alpha virt. eigenvalues --    2.84762   2.85352   2.85948   2.86105   2.86281
 Alpha virt. eigenvalues --    2.86627   2.87181   2.87971   2.88099   2.88551
 Alpha virt. eigenvalues --    2.88731   2.89188   2.89258   2.89502   2.89703
 Alpha virt. eigenvalues --    2.90235   2.90383   2.90661   2.90705   2.90937
 Alpha virt. eigenvalues --    2.90992   2.91151   2.91943   2.92263   2.92341
 Alpha virt. eigenvalues --    2.92411   2.93058   2.93294   2.93728   2.94255
 Alpha virt. eigenvalues --    2.94639   2.94775   2.95113   2.95339   2.95670
 Alpha virt. eigenvalues --    2.96137   2.96728   2.96912   2.97575   2.97907
 Alpha virt. eigenvalues --    2.98439   2.98574   2.98678   2.98778   2.98971
 Alpha virt. eigenvalues --    2.99202   2.99359   2.99800   2.99818   3.00411
 Alpha virt. eigenvalues --    3.00599   3.00771   3.01562   3.01768   3.02551
 Alpha virt. eigenvalues --    3.02633   3.03183   3.03274   3.03347   3.03718
 Alpha virt. eigenvalues --    3.03892   3.04027   3.04279   3.04339   3.04633
 Alpha virt. eigenvalues --    3.04755   3.05006   3.05347   3.05819   3.06029
 Alpha virt. eigenvalues --    3.06374   3.06781   3.06825   3.07251   3.07936
 Alpha virt. eigenvalues --    3.08195   3.08576   3.09069   3.09640   3.09915
 Alpha virt. eigenvalues --    3.10386   3.10613   3.10875   3.11203   3.11770
 Alpha virt. eigenvalues --    3.12163   3.12812   3.13635   3.13853   3.13950
 Alpha virt. eigenvalues --    3.14234   3.14530   3.14678   3.15191   3.15744
 Alpha virt. eigenvalues --    3.15807   3.16294   3.16432   3.16867   3.17580
 Alpha virt. eigenvalues --    3.18011   3.18203   3.18623   3.19014   3.19498
 Alpha virt. eigenvalues --    3.20133   3.21061   3.21470   3.21887   3.22281
 Alpha virt. eigenvalues --    3.22908   3.23194   3.23504   3.23857   3.24014
 Alpha virt. eigenvalues --    3.24433   3.24560   3.24787   3.25198   3.25583
 Alpha virt. eigenvalues --    3.26052   3.27231   3.27644   3.27810   3.28420
 Alpha virt. eigenvalues --    3.29171   3.29344   3.29712   3.30146   3.30327
 Alpha virt. eigenvalues --    3.30593   3.31063   3.31647   3.32027   3.32424
 Alpha virt. eigenvalues --    3.33490   3.33808   3.34244   3.34392   3.34776
 Alpha virt. eigenvalues --    3.35013   3.35698   3.36723   3.37203   3.38190
 Alpha virt. eigenvalues --    3.38707   3.41113   3.42382   3.42962   3.43876
 Alpha virt. eigenvalues --    3.45532   3.46445   3.46870   3.47186   3.48001
 Alpha virt. eigenvalues --    3.49596   3.50557   3.51371   3.52185   3.52595
 Alpha virt. eigenvalues --    3.53929   3.56794   3.57131   3.57657   3.58872
 Alpha virt. eigenvalues --    3.60397   3.62001   3.62443   3.63076   3.63420
 Alpha virt. eigenvalues --    3.63523   3.64243   3.65185   3.65383   3.68362
 Alpha virt. eigenvalues --    3.71194   3.73684   3.74588   3.75352   3.76202
 Alpha virt. eigenvalues --    3.77753   3.78021   3.79495   3.79991   3.81164
 Alpha virt. eigenvalues --    3.84332   3.85488   3.86386   3.88713   3.89584
 Alpha virt. eigenvalues --    3.91462   3.92231   3.93076   3.93822   3.96709
 Alpha virt. eigenvalues --    3.97409   3.99975   4.00744   4.02564   4.03626
 Alpha virt. eigenvalues --    4.05904   4.06962   4.08353   4.08972   4.12682
 Alpha virt. eigenvalues --    4.14345   4.15550   4.16139   4.20671   4.21586
 Alpha virt. eigenvalues --    4.26022   4.38046   4.40753   4.43160   4.44400
 Alpha virt. eigenvalues --    4.45558   4.49802   4.51524   4.55000   4.56981
 Alpha virt. eigenvalues --    4.60612   4.66198   4.78015   4.79272   4.84752
 Alpha virt. eigenvalues --    4.86250   5.01466   5.17478   5.24476   5.29609
          Condensed to atoms (all electrons):
 Mulliken charges:
               1
     1  C    1.770435
     2  C    0.456088
     3  C    0.145312
     4  C    1.552479
     5  H   -1.081953
     6  C   -0.134290
     7  C    1.404684
     8  H   -0.868915
     9  C    0.110506
    10  C    0.482716
    11  H   -1.066305
    12  C    0.571422
    13  H   -0.823124
    14  H   -0.797008
    15  H   -0.752380
    16  C    1.505748
    17  C   -0.030160
    18  C    0.378419
    19  C    1.804587
    20  H   -0.978689
    21  C   -0.204500
    22  C    1.337647
    23  H   -0.926568
    24  C    0.230099
    25  C    0.370842
    26  H   -1.085906
    27  C    0.290870
    28  H   -0.815898
    29  H   -0.957107
    30  H   -0.808212
    31  C    0.704507
    32  C    0.985208
    33  C    0.534581
    34  C    1.524088
    35  H   -1.074671
    36  C   -0.056010
    37  C    1.026476
    38  H   -0.859692
    39  C    0.637398
    40  C    0.204345
    41  H   -0.627637
    42  C    0.445888
    43  H   -0.709472
    44  H   -0.719615
    45  C   -0.147779
    46  C   -0.106480
    47  N   -0.430133
    48  N   -0.406322
    49  C    0.447984
    50  C    0.029930
    51  N   -0.283857
    52  N   -0.018491
    53  C   -0.441758
    54  C   -0.384788
    55  N   -0.480262
    56  N   -0.192049
    57  C   -0.385075
    58  C   -0.140331
    59  N   -0.351525
    60  N   -0.571941
    61  C   -0.118536
    62  C   -0.209252
    63  N   -0.549913
    64  N   -0.499266
    65  H   -0.000295
    66  H    0.034621
    67  H   -1.424677
    68  C    0.753802
    69  C    0.712184
    70  C    0.786766
    71  C    0.815451
    72  C    0.920542
    73  H   -0.319026
    74  C    0.550282
    75  H   -0.238731
    76  H   -0.141640
    77  C    0.562408
    78  H   -0.143754
    79  H   -0.087880
    80  C    0.958739
    81  H   -0.083985
    82  H   -0.148405
    83  H   -0.138681
    84  H   -0.207131
    85  H   -0.410665
    86  H   -0.543864
    87  C    0.777230
    88  H   -0.125899
    89  H   -0.248935
    90  C    0.508626
    91  H   -0.209471
    92  H   -0.272875
    93  C    0.940083
    94  H   -0.136477
    95  H   -0.203124
    96  H   -0.300329
    97  H   -0.235195
    98  H   -0.363924
    99  H   -0.274981
   100  C    0.904732
   101  H   -0.340289
   102  C    0.535936
   103  H   -0.131560
   104  H   -0.216397
   105  C    0.564105
   106  H   -0.143862
   107  H   -0.089223
   108  H   -0.096432
   109  H   -0.145164
   110  H   -0.104318
   111  H   -0.217483
   112  H   -0.305575
   113  C    0.814970
   114  H   -0.393339
   115  C    0.530592
   116  H   -0.115760
   117  H   -0.201551
   118  C    0.535779
   119  H   -0.146691
   120  H   -0.084438
   121  H   -0.141563
   122  H   -0.083509
   123  H   -0.122992
   124  H   -0.228526
   125  H   -0.562457
   126  C    0.698670
   127  H   -0.369740
   128  C    0.608305
   129  H   -0.104540
   130  H   -0.135647
   131  C    0.559642
   132  H   -0.170382
   133  H   -0.109525
   134  H   -0.136961
   135  H   -0.170260
   136  H   -0.229124
   137  H   -0.372595
 Sum of Mulliken charges =   0.00000
 Mulliken charges with hydrogens summed into heavy atoms:
               1
     1  C    1.770435
     2  C   -0.340921
     3  C   -0.936641
     4  C    1.552479
     6  C   -1.003205
     7  C    1.404684
     9  C   -0.955799
    10  C   -0.340408
    12  C   -0.180958
    16  C    1.505748
    17  C   -0.987267
    18  C   -0.600269
    19  C    1.804587
    21  C   -1.131068
    22  C    1.337647
    24  C   -0.855807
    25  C   -0.445056
    27  C   -0.517342
    31  C    0.704507
    32  C   -0.439469
    33  C   -0.540090
    34  C    1.524088
    36  C   -0.915702
    37  C    1.026476
    39  C    0.009761
    40  C   -0.505127
    42  C   -0.273727
    45  C   -0.691643
    46  C   -0.470404
    47  N   -0.430133
    48  N   -0.406322
    49  C    0.078244
    50  C   -0.532527
    51  N   -0.249531
    52  N   -0.018491
    53  C   -0.852423
    54  C   -0.703814
    55  N   -0.480262
    56  N   -0.192049
    57  C   -0.690650
    58  C   -0.533671
    59  N   -0.351525
    60  N   -0.571941
    61  C   -0.458825
    62  C   -0.484233
    63  N   -0.549913
    64  N   -0.499266
    68  C    0.152083
    69  C    0.337349
    70  C    0.464965
    71  C    0.463933
    72  C    0.540171
    74  C    0.318648
    77  C    0.330018
    80  C    0.612927
    87  C    0.294883
    90  C    0.169025
    93  C    0.404559
   100  C    0.556774
   102  C    0.302852
   105  C    0.322508
   113  C    0.497658
   115  C    0.299463
   118  C    0.310707
   126  C    0.458483
   128  C    0.328397
   131  C    0.252420
 Electronic spatial extent (au):  <R**2>=          60161.6454
 Charge=              0.0000 electrons
 Dipole moment (field-independent basis, Debye):
    X=              1.2545    Y=             -1.0184    Z=              0.9082  Tot=              1.8536
 Quadrupole moment (field-independent basis, Debye-Ang):
   XX=           -400.6999   YY=           -403.1745   ZZ=           -399.0062
   XY=             17.0385   XZ=              5.3675   YZ=              5.6498
 Traceless Quadrupole moment (field-independent basis, Debye-Ang):
   XX=              0.2603   YY=             -2.2143   ZZ=              1.9540
   XY=             17.0385   XZ=              5.3675   YZ=              5.6498
 Octapole moment (field-independent basis, Debye-Ang**2):
  XXX=            166.6554  YYY=            117.7198  ZZZ=             52.2047  XYY=             10.5281
  XXY=           -112.4768  XXZ=             -2.7863  XZZ=              0.2347  YZZ=            -69.7723
  YYZ=             -6.8358  XYZ=             28.1920
 Hexadecapole moment (field-independent basis, Debye-Ang**3):
 XXXX=         -37037.7392 YYYY=         -23970.0131 ZZZZ=         -22592.7415 XXXY=            641.1452
 XXXZ=           -159.9357 YYYX=            264.1336 YYYZ=             13.8234 ZZZX=            210.5048
 ZZZY=             27.7854 XXYY=         -10372.7333 XXZZ=          -9846.1074 YYZZ=          -7902.5708
 XXYZ=            203.9586 YYXZ=             -3.1029 ZZXY=             25.0409
 N-N= 1.043978836383D+04 E-N=-2.727815747869D+04  KE= 2.743542245880D+03
 Leave Link  601 at Sun Nov 14 02:17:21 2021, MaxMem=  7864320000 cpu:              86.0 elap:               3.2
 (Enter /apps/gaussian/g16-c01-avx/g16/l9999.exe)
 Unable to Open any file for archive entry.
 1\1\GINC-CX3-6-10\SP\RMP2-FC\Aug-CC-pVDZ\C57H70N10\ATARZIA\14-Nov-2021
 \0\\#P MP2/aug-cc-pVDZ SP SCF=(YQC,MaxCycle=900) int=(Grid=Superfinegr
 id)\\_3_alde1_5_ami3_2_opt_gas_mp2\\0,1\C,0,-3.3192,-1.4255,-0.146\C,0
 ,-3.3564,-1.1076,1.272\C,0,-2.5731,-2.4936,-0.6411\C,0,-2.492,-2.7238,
 -2.0107\H,0,-2.0589,-3.1312,0.0618\C,0,-3.1191,-1.844,-2.8936\C,0,-3.8
 664,-0.775,-2.414\H,0,-3.0129,-2.0216,-3.9529\C,0,-3.9863,-0.5927,-1.0
 375\C,0,-4.4386,0.2077,-3.3247\H,0,-4.5811,0.2349,-0.6845\C,0,-1.7324,
 -3.8594,-2.5106\H,0,-4.0123,0.2154,-4.3404\H,0,-4.0515,-0.2998,1.5473\
 H,0,-1.2664,-4.4917,-1.7401\C,0,2.0145,-2.0023,0.2643\C,0,1.7556,-2.61
 09,1.5636\C,0,2.6454,-0.7629,0.1638\C,0,2.9003,-0.1917,-1.0779\H,0,2.9
 384,-0.259,1.073\C,0,2.4923,-0.8577,-2.2332\C,0,1.8652,-2.095,-2.1495\
 H,0,2.6861,-0.3928,-3.1876\C,0,1.6381,-2.6653,-0.8978\C,0,1.4148,-2.77
 76,-3.3546\H,0,1.1551,-3.6293,-0.8551\C,0,3.5561,1.1043,-1.1539\H,0,1.
 3266,-2.1496,-4.2549\H,0,1.28,-3.5971,1.5208\H,0,3.7243,1.604,-0.1869\
 C,0,-0.9369,1.9432,0.5275\C,0,-0.712,1.0674,1.6704\C,0,-2.2373,2.2615,
 0.1409\C,0,-2.4828,2.9321,-1.0524\H,0,-3.0502,1.9333,0.7693\C,0,-1.407
 7,3.327,-1.8469\C,0,-0.1027,3.0806,-1.4372\H,0,-1.6145,3.829,-2.7797\C
 ,0,0.1264,2.3752,-0.2567\C,0,1.0246,3.4638,-2.2789\H,0,1.145,2.1536,0.
 0214\C,0,-3.8562,3.1067,-1.4967\H,0,0.8128,3.5242,-3.3586\H,0,-4.6252,
 2.8251,-0.7613\C,0,-1.402,-0.14,3.5426\C,0,-2.6042,-1.1128,3.4536\N,0,
 -1.6002,0.8605,2.541\N,0,-2.611,-1.6582,2.1297\C,0,3.2845,-2.5802,4.62
 94\C,0,1.889,-2.5637,3.9423\N,0,3.9818,-1.3125,4.561\N,0,2.0669,-2.017
 7,2.6328\C,0,-0.785,-5.1979,-4.1537\C,0,0.5989,-4.6175,-4.5325\N,0,-1.
 6161,-4.1085,-3.7423\N,0,1.1324,-4.0059,-3.3578\C,0,-5.7202,2.0887,-3.
 8318\C,0,-5.5331,3.4167,-3.0559\N,0,-5.319,1.0319,-2.9577\N,0,-4.1592,
 3.4857,-2.6621\C,0,4.4169,2.9692,-2.2162\C,0,3.2781,3.9079,-2.676\N,0,
 3.9028,1.635,-2.2449\N,0,2.1703,3.6772,-1.802\H,0,4.0685,-1.0315,3.590
 1\H,0,3.4425,-0.5952,5.0367\H,0,0.2617,0.5532,1.6881\C,0,1.2338,-3.942
 1,4.057\C,0,-1.3696,0.487,4.9376\C,0,3.767,5.3547,-2.5978\C,0,-7.1895,
 1.952,-4.233\C,0,1.5115,-5.7516,-5.0019\H,0,0.46,-3.8867,-5.3501\C,0,0
 .8994,-6.472,-6.1981\H,0,2.486,-5.3351,-5.266\H,0,1.6567,-6.4475,-4.17
 39\C,0,-0.4794,-7.023,-5.847\H,0,1.5575,-7.2849,-6.5117\H,0,0.8081,-5.
 7732,-7.033\C,0,-1.3955,-5.9054,-5.3606\H,0,-0.3788,-7.7757,-5.0615\H,
 0,-0.9206,-7.5071,-6.7204\H,0,-1.5508,-5.1708,-6.1524\H,0,-2.371,-6.30
 74,-5.0801\H,0,-0.621,-5.9161,-3.3311\H,0,-0.4735,-0.7102,3.3638\C,0,-
 1.2595,-0.5912,6.0108\H,0,-2.2816,1.0696,5.0795\H,0,-0.5209,1.1721,4.9
 987\C,0,-2.4087,-1.5895,5.9026\H,0,-1.2622,-0.1258,6.9988\H,0,-0.3104,
 -1.1204,5.895\C,0,-2.4614,-2.205,4.5081\H,0,-3.3517,-1.0769,6.1064\H,0
 ,-2.2886,-2.3772,6.6495\H,0,-3.3061,-2.8922,4.4283\H,0,-1.5497,-2.7687
 ,4.3084\H,0,-3.5148,-0.518,3.6471\H,0,3.0215,3.6686,-3.7237\C,0,5.6148
 ,3.1338,-3.1465\H,0,4.6935,3.2695,-1.1894\C,0,6.1037,4.5787,-3.114\H,0
 ,5.3172,2.8542,-4.1584\H,0,6.4107,2.4564,-2.8308\C,0,4.9838,5.5425,-3.
 4989\H,0,6.9461,4.6984,-3.798\H,0,6.4539,4.8168,-2.1068\H,0,4.6936,5.3
 624,-4.5368\H,0,5.3391,6.5723,-3.4246\H,0,4.0199,5.5875,-1.562\H,0,2.9
 59,6.0222,-2.9058\H,0,-5.0935,2.1222,-4.7414\C,0,-5.9198,4.5876,-3.953
 5\H,0,-6.2014,3.3755,-2.1773\C,0,-7.3747,4.4542,-4.3925\H,0,-5.2593,4.
 5982,-4.822\H,0,-5.772,5.5212,-3.4073\C,0,-7.6057,3.1276,-5.1115\H,0,-
 7.6388,5.2836,-5.0514\H,0,-8.0219,4.5058,-3.5136\H,0,-8.6595,3.029,-5.
 3797\H,0,-7.022,3.1109,-6.0349\H,0,-7.8002,1.9169,-3.3293\H,0,-7.3262,
 1.01,-4.7688\H,0,1.2775,-1.8258,4.4835\C,0,3.1265,-3.,6.0903\H,0,3.907
 7,-3.3148,4.1041\C,0,2.448,-4.36,6.2083\H,0,2.5316,-2.2463,6.6133\H,0,
 4.1144,-3.0231,6.5518\C,0,1.0857,-4.3379,5.5223\H,0,2.3308,-4.6239,7.2
 612\H,0,3.0771,-5.1205,5.7403\H,0,0.4331,-3.6234,6.0306\H,0,0.6169,-5.
 3221,5.591\H,0,1.8562,-4.6804,3.5443\H,0,0.2532,-3.9263,3.5731\\Versio
 n=ES64L-G16RevC.01\State=1-A\HF=-2744.0081691\MP2=-2753.7507635\RMSD=6
 .368e-09\PG=C01 [X(C57H70N10)]\\@
 The archive entry for this job was punched.


 STEINBACH'S GUIDELINES FOR SYSTEMS PROGRAMMING:
 NEVER TEST FOR AN ERROR CONDITION YOU DON'T KNOW HOW
 TO HANDLE.
 Job cpu time:      71 days 14 hours 18 minutes 40.0 seconds.
 Elapsed time:       2 days  6 hours 37 minutes 46.5 seconds.
 File lengths (MBytes):  RWF=******* Int=      0 D2E=      0 Chk=    312 Scr=     16
 Normal termination of Gaussian 16 at Sun Nov 14 02:17:22 2021.
