 Entering Gaussian System, Link 0=g16
 Initial command:
 /apps/gaussian/g16-c01-avx/g16/l1.exe "/rds/general/ephemeral/user/atarzia/ephemeral/xtb_spe_DFT/Gau-40880.inp" -scrdir="/rds/general/ephemeral/user/atarzia/ephemeral/xtb_spe_DFT/"
 Entering Link 1 = /apps/gaussian/g16-c01-avx/g16/l1.exe PID=     40893.
  
 Copyright (c) 1988-2019, Gaussian, Inc.  All Rights Reserved.
  
 This is part of the Gaussian(R) 16 program.  It is based on
 the Gaussian(R) 09 system (copyright 2009, Gaussian, Inc.),
 the Gaussian(R) 03 system (copyright 2003, Gaussian, Inc.),
 the Gaussian(R) 98 system (copyright 1998, Gaussian, Inc.),
 the Gaussian(R) 94 system (copyright 1995, Gaussian, Inc.),
 the Gaussian 92(TM) system (copyright 1992, Gaussian, Inc.),
 the Gaussian 90(TM) system (copyright 1990, Gaussian, Inc.),
 the Gaussian 88(TM) system (copyright 1988, Gaussian, Inc.),
 the Gaussian 86(TM) system (copyright 1986, Carnegie Mellon
 University), and the Gaussian 82(TM) system (copyright 1983,
 Carnegie Mellon University). Gaussian is a federally registered
 trademark of Gaussian, Inc.
  
 This software contains proprietary and confidential information,
 including trade secrets, belonging to Gaussian, Inc.
  
 This software is provided under written license and may be
 used, copied, transmitted, or stored only in accord with that
 written license.
  
 The following legend is applicable only to US Government
 contracts under FAR:
  
                    RESTRICTED RIGHTS LEGEND
  
 Use, reproduction and disclosure by the US Government is
 subject to restrictions as set forth in subparagraphs (a)
 and (c) of the Commercial Computer Software - Restricted
 Rights clause in FAR 52.227-19.
  
 Gaussian, Inc.
 340 Quinnipiac St., Bldg. 40, Wallingford CT 06492
  
  
 ---------------------------------------------------------------
 Warning -- This program may not be used in any manner that
 competes with the business of Gaussian, Inc. or will provide
 assistance to any competitor of Gaussian, Inc.  The licensee
 of this program is prohibited from giving any competitor of
 Gaussian, Inc. access to this program.  By using this program,
 the user acknowledges that Gaussian, Inc. is engaged in the
 business of creating and licensing software in the field of
 computational chemistry and represents and warrants to the
 licensee that it is not a competitor of Gaussian, Inc. and that
 it will not use this program in any manner prohibited above.
 ---------------------------------------------------------------
  

 Cite this work as:
 Gaussian 16, Revision C.01,
 M. J. Frisch, G. W. Trucks, H. B. Schlegel, G. E. Scuseria, 
 M. A. Robb, J. R. Cheeseman, G. Scalmani, V. Barone, 
 G. A. Petersson, H. Nakatsuji, X. Li, M. Caricato, A. V. Marenich, 
 J. Bloino, B. G. Janesko, R. Gomperts, B. Mennucci, H. P. Hratchian, 
 J. V. Ortiz, A. F. Izmaylov, J. L. Sonnenberg, D. Williams-Young, 
 F. Ding, F. Lipparini, F. Egidi, J. Goings, B. Peng, A. Petrone, 
 T. Henderson, D. Ranasinghe, V. G. Zakrzewski, J. Gao, N. Rega, 
 G. Zheng, W. Liang, M. Hada, M. Ehara, K. Toyota, R. Fukuda, 
 J. Hasegawa, M. Ishida, T. Nakajima, Y. Honda, O. Kitao, H. Nakai, 
 T. Vreven, K. Throssell, J. A. Montgomery, Jr., J. E. Peralta, 
 F. Ogliaro, M. J. Bearpark, J. J. Heyd, E. N. Brothers, K. N. Kudin, 
 V. N. Staroverov, T. A. Keith, R. Kobayashi, J. Normand, 
 K. Raghavachari, A. P. Rendell, J. C. Burant, S. S. Iyengar, 
 J. Tomasi, M. Cossi, J. M. Millam, M. Klene, C. Adamo, R. Cammi, 
 J. W. Ochterski, R. L. Martin, K. Morokuma, O. Farkas, 
 J. B. Foresman, and D. J. Fox, Gaussian, Inc., Wallingford CT, 2019.
 
 ******************************************
 Gaussian 16:  ES64L-G16RevC.01  3-Jul-2019
                29-Oct-2021 
 ******************************************
 %chk=_3_alde1_5_ami1_1_opt_gas_mp2.chk
 %mem=60000mb
 %nprocshared=32
 Will use up to   32 processors via shared memory.
 ---------------------------------------------------------------------
 #P MP2/aug-cc-pVDZ SP SCF=(YQC,MaxCycle=900) int=(Grid=Superfinegrid)
 ---------------------------------------------------------------------
 1/38=1,172=1/1;
 2/12=2,17=6,18=5,40=1/2;
 3/5=16,7=10,11=9,25=1,30=1,75=-7/1,2,3;
 4//1;
 5/5=2,7=900,8=4,13=1,38=1/8,2,8;
 8/10=1/1;
 9/16=-3/6;
 6/7=2,8=2,9=2,10=2/1;
 99/5=1,9=1/99;
 Leave Link    1 at Fri Oct 29 09:40:52 2021, MaxMem=  7864320000 cpu:               6.9 elap:               0.2
 (Enter /apps/gaussian/g16-c01-avx/g16/l101.exe)
 -----------------------------
 _3_alde1_5_ami1_1_opt_gas_mp2
 -----------------------------
 Symbolic Z-matrix:
 Charge =  0 Multiplicity = 1
 C                    -2.9936   -1.9118   -0.4933 
 C                    -3.1751   -1.5398    0.9008 
 C                    -2.2452   -3.0216   -0.8826 
 C                    -2.0713   -3.3167   -2.2316 
 H                    -1.8073   -3.649    -0.1213 
 C                    -2.5974   -2.4575   -3.1965 
 C                    -3.3426   -1.3459   -2.8233 
 H                    -2.4196   -2.6866   -4.2362 
 C                    -3.5636   -1.1017   -1.4699 
 C                    -3.8373   -0.4059   -3.821 
 H                    -4.1636   -0.2473   -1.1997 
 C                    -1.3315   -4.5056   -2.6289 
 H                    -3.3642   -0.4738   -4.8132 
 H                    -3.9162   -0.7437    1.0682 
 H                    -0.9492   -5.1243   -1.8041 
 C                     1.7441   -2.3367    0.2375 
 C                     1.1364   -2.7972    1.5446 
 C                     2.4797   -1.165     0.1591 
 C                     2.9977   -0.7286   -1.06 
 H                     2.6567   -0.5946    1.0593 
 C                     2.7568   -1.4731   -2.2117 
 C                     2.0399   -2.6608   -2.1383 
 H                     3.1522   -1.1151   -3.1499 
 C                     1.5395   -3.085    -0.9085 
 C                     1.7686   -3.449    -3.3324 
 H                     0.9905   -4.0095   -0.8583 
 C                     3.7515    0.513    -1.1104 
 H                     1.8368   -2.9118   -4.2921 
 H                     3.881     1.0261   -0.1444 
 C                    -0.7616    1.4573    0.2956 
 C                    -0.6602    0.6623    1.5125 
 C                    -2.0126    1.7552   -0.2418 
 C                    -2.1278    2.3506   -1.4927 
 H                    -2.8892    1.4751    0.3211 
 C                    -0.972     2.6895   -2.1943 
 C                     0.2824    2.4661   -1.6388 
 H                    -1.0756    3.1341   -3.1724 
 C                     0.3815    1.8377   -0.3983 
 C                     1.4858    2.8271   -2.3787 
 H                     1.3632    1.6376    0.0002 
 C                    -3.4464    2.5236   -2.0826 
 H                     1.3623    2.9189   -3.4697 
 H                    -4.294     2.3112   -1.4135 
 C                    -1.554    -0.4491    3.365 
 C                    -2.7139   -1.4637    3.1641 
 N                    -1.6526    0.4637    2.2646 
 H                    -0.5969   -0.996     3.3314 
 C                    -1.6195    0.3209    4.6997 
 N                    -2.5224   -2.0383    1.8594 
 H                    -3.6484   -0.8782    3.1912 
 C                    -2.8027   -2.5785    4.2193 
 H                    -1.6189   -0.4133    5.5122 
 C                    -2.871     1.1873    4.8058 
 C                    -0.3669    1.1859    4.8424 
 H                    -2.9286   -2.1133    5.2023 
 C                    -1.5573   -3.4582    4.2343 
 C                    -4.0397   -3.43      3.9318 
 H                    -0.3462    1.9504    4.0688 
 H                     0.5342    0.5819    4.7526 
 H                    -0.3567    1.6764    5.8132 
 H                    -3.7675    0.577     4.8765 
 H                    -2.9496    1.8263    3.9304 
 H                    -2.8161    1.8124    5.6945 
 H                    -4.9384   -2.8167    3.9334 
 H                    -4.1518   -4.2054    4.6863 
 H                    -3.9471   -3.9017    2.9561 
 H                    -1.71     -4.3163    4.8862 
 H                    -0.6957   -2.9054    4.6001 
 H                    -1.3585   -3.8111    3.2258 
 C                     2.9984   -3.0979    2.8611 
 C                     2.5717   -4.4823    2.265 
 N                     1.8516   -2.2135    2.6731 
 H                     3.8049   -2.6963    2.2349 
 C                     3.4987   -3.1478    4.3109 
 N                     1.2575   -4.2486    1.6665 
 H                     2.4957   -5.24      3.0524 
 C                     3.557    -5.0044    1.2055 
 H                     4.2703   -3.9241    4.3519 
 C                     2.4107   -3.5088    5.3246 
 C                     4.1335   -1.8095    4.6871 
 H                     3.6606   -4.2392    0.43 
 C                     3.0002   -6.271     0.5599 
 C                     4.9262   -5.2907    1.8164 
 H                     4.4751   -1.826     5.7197 
 H                     3.4094   -1.0065    4.571 
 H                     4.9851   -1.5958    4.0455 
 H                     1.7371   -2.6701    5.4943 
 H                     2.8681   -3.7568    6.2798 
 H                     1.8272   -4.3675    4.9987 
 H                     4.8386   -6.0212    2.6191 
 H                     5.3811   -4.3887    2.2176 
 H                     5.5923   -5.6966    1.0585 
 H                     2.9022   -7.0636    1.2996 
 H                     3.6651   -6.6155   -0.2285 
 H                     2.0232   -6.0699    0.1323 
 C                    -0.3333   -5.9495   -4.1507 
 C                     1.0925   -5.3993   -4.4316 
 N                    -1.1475   -4.8109   -3.839 
 H                    -0.2499   -6.6168   -3.2767 
 C                    -0.9631   -6.7247   -5.3199 
 N                     1.4571   -4.6668   -3.2577 
 H                     1.0413   -4.7359   -5.3126 
 C                     2.1385   -6.499    -4.7051 
 H                    -0.3227   -7.5824   -5.5493 
 C                    -1.1135   -5.8582   -6.5669 
 C                    -2.3293   -7.252    -4.8803 
 H                     1.7982   -7.0817   -5.567 
 C                     2.323    -7.4258   -3.5067 
 C                     3.4712   -5.8452   -5.0712 
 H                    -2.9886   -6.4197   -4.6449 
 H                    -2.2345   -7.8778   -3.995 
 H                    -2.7819   -7.8436   -5.6729 
 H                    -0.1456   -5.6224   -7.0016 
 H                    -1.617    -4.9319   -6.3058 
 H                    -1.7031   -6.3813   -7.3167 
 H                     4.2045   -6.605    -5.332 
 H                     3.8522   -5.2705   -4.2297 
 H                     3.3538   -5.1765   -5.9219 
 H                     3.1733   -8.084    -3.6729 
 H                     1.4439   -8.0446   -3.3478 
 H                     2.5024   -6.835    -2.6128 
 C                    -5.1016    1.4313   -4.5214 
 C                    -4.9433    2.8146   -3.8292 
 N                    -4.7185    0.4521   -3.5485 
 H                    -4.4261    1.4015   -5.393 
 C                    -6.5381    1.1485   -5.0094 
 N                    -3.6136    2.8408   -3.2917 
 H                    -5.6895    2.8553   -3.0177 
 C                    -5.1476    4.0209   -4.7607 
 H                    -6.839     1.9748   -5.6613 
 C                    -7.5292    1.0327   -3.8545 
 C                    -6.5481   -0.1366   -5.8372 
 H                    -6.1567    3.9656   -5.1821 
 C                    -4.1274    4.0494   -5.8954 
 C                    -5.0447    5.3016   -3.932 
 H                    -5.8537   -0.0653   -6.6721 
 H                    -7.5436   -0.3197   -6.2353 
 H                    -6.2621   -0.9862   -5.2205 
 H                    -7.6602    1.9861   -3.3499 
 H                    -7.171     0.3017   -3.1345 
 H                    -8.4993    0.7129   -4.2289 
 H                    -5.7739    5.2986   -3.1242 
 H                    -5.2263    6.1741   -4.5554 
 H                    -4.0505    5.3824   -3.4984 
 H                    -3.1275    3.935    -5.4868 
 H                    -4.1863    4.997    -6.4263 
 H                    -4.3091    3.2507   -6.6098 
 C                     4.8434    2.2782   -2.1451 
 C                     3.7616    3.3052   -2.5778 
 N                     4.218     0.9877   -2.1821 
 H                     5.1383    2.5353   -1.1134 
 C                     6.0975    2.2677   -3.0358 
 N                     2.5909    3.0124   -1.8055 
 H                     3.5633    3.1675   -3.6543 
 C                     4.1822    4.7722   -2.3457 
 H                     6.5228    3.2768   -3.0478 
 C                     5.7829    1.8364   -4.4656 
 C                     7.1271    1.3198   -2.4203 
 H                     5.1555    4.9214   -2.824 
 C                     4.2951    5.1142   -0.8623 
 C                     3.1733    5.7023   -3.0192 
 H                     6.726     0.3093   -2.39 
 H                     7.3739    1.624    -1.4049 
 H                     8.0414    1.3156   -3.0093 
 H                     6.7059    1.679    -5.0194 
 H                     5.2014    2.5917   -4.9878 
 H                     5.2184    0.9087   -4.4475 
 H                     3.0953    5.485    -4.0827 
 H                     3.4817    6.739    -2.9041 
 H                     2.1902    5.5837   -2.568 
 H                     3.3681    4.8618   -0.3544 
 H                     4.4869    6.1781   -0.7406 
 H                     5.1091    4.5689   -0.3924 
 H                     0.3209    0.201     1.6959 
 H                     0.5242   -4.6088    2.2674 
 H                     0.0805   -2.497     1.5499 
 H                     1.2589   -2.255     3.497 
 
 ITRead=  0  0  0  0  0  0  0  0  0  0  0  0  0  0  0  0  0  0  0  0
 ITRead=  0  0  0  0  0  0  0  0  0  0  0  0  0  0  0  0  0  0  0  0
 ITRead=  0  0  0  0  0  0  0  0  0  0  0  0  0  0  0  0  0  0  0  0
 ITRead=  0  0  0  0  0  0  0  0  0  0  0  0  0  0  0  0  0  0  0  0
 ITRead=  0  0  0  0  0  0  0  0  0  0  0  0  0  0  0  0  0  0  0  0
 ITRead=  0  0  0  0  0  0  0  0  0  0  0  0  0  0  0  0  0  0  0  0
 ITRead=  0  0  0  0  0  0  0  0  0  0  0  0  0  0  0  0  0  0  0  0
 ITRead=  0  0  0  0  0  0  0  0  0  0  0  0  0  0  0  0  0  0  0  0
 ITRead=  0  0  0  0  0  0  0  0  0  0  0  0  0  0  0  0  0
 MicOpt= -1 -1 -1 -1 -1 -1 -1 -1 -1 -1 -1 -1 -1 -1 -1 -1 -1 -1 -1 -1
 MicOpt= -1 -1 -1 -1 -1 -1 -1 -1 -1 -1 -1 -1 -1 -1 -1 -1 -1 -1 -1 -1
 MicOpt= -1 -1 -1 -1 -1 -1 -1 -1 -1 -1 -1 -1 -1 -1 -1 -1 -1 -1 -1 -1
 MicOpt= -1 -1 -1 -1 -1 -1 -1 -1 -1 -1 -1 -1 -1 -1 -1 -1 -1 -1 -1 -1
 MicOpt= -1 -1 -1 -1 -1 -1 -1 -1 -1 -1 -1 -1 -1 -1 -1 -1 -1 -1 -1 -1
 MicOpt= -1 -1 -1 -1 -1 -1 -1 -1 -1 -1 -1 -1 -1 -1 -1 -1 -1 -1 -1 -1
 MicOpt= -1 -1 -1 -1 -1 -1 -1 -1 -1 -1 -1 -1 -1 -1 -1 -1 -1 -1 -1 -1
 MicOpt= -1 -1 -1 -1 -1 -1 -1 -1 -1 -1 -1 -1 -1 -1 -1 -1 -1 -1 -1 -1
 MicOpt= -1 -1 -1 -1 -1 -1 -1 -1 -1 -1 -1 -1 -1 -1 -1 -1 -1
 NAtoms=    177 NQM=      177 NQMF=       0 NMMI=      0 NMMIF=      0
                NMic=       0 NMicF=      0.
                    Isotopes and Nuclear Properties:
 (Nuclear quadrupole moments (NQMom) in fm**2, nuclear magnetic moments (NMagM)
  in nuclear magnetons)

  Atom         1           2           3           4           5           6           7           8           9          10
 IAtWgt=          12          12          12          12           1          12          12           1          12          12
 AtmWgt=  12.0000000  12.0000000  12.0000000  12.0000000   1.0078250  12.0000000  12.0000000   1.0078250  12.0000000  12.0000000
 NucSpn=           0           0           0           0           1           0           0           1           0           0
 AtZEff=  -0.0000000  -0.0000000  -0.0000000  -0.0000000  -0.0000000  -0.0000000  -0.0000000  -0.0000000  -0.0000000  -0.0000000
 NQMom=    0.0000000   0.0000000   0.0000000   0.0000000   0.0000000   0.0000000   0.0000000   0.0000000   0.0000000   0.0000000
 NMagM=    0.0000000   0.0000000   0.0000000   0.0000000   2.7928460   0.0000000   0.0000000   2.7928460   0.0000000   0.0000000
 AtZNuc=   6.0000000   6.0000000   6.0000000   6.0000000   1.0000000   6.0000000   6.0000000   1.0000000   6.0000000   6.0000000

  Atom        11          12          13          14          15          16          17          18          19          20
 IAtWgt=           1          12           1           1           1          12          12          12          12           1
 AtmWgt=   1.0078250  12.0000000   1.0078250   1.0078250   1.0078250  12.0000000  12.0000000  12.0000000  12.0000000   1.0078250
 NucSpn=           1           0           1           1           1           0           0           0           0           1
 AtZEff=  -0.0000000  -0.0000000  -0.0000000  -0.0000000  -0.0000000  -0.0000000  -0.0000000  -0.0000000  -0.0000000  -0.0000000
 NQMom=    0.0000000   0.0000000   0.0000000   0.0000000   0.0000000   0.0000000   0.0000000   0.0000000   0.0000000   0.0000000
 NMagM=    2.7928460   0.0000000   2.7928460   2.7928460   2.7928460   0.0000000   0.0000000   0.0000000   0.0000000   2.7928460
 AtZNuc=   1.0000000   6.0000000   1.0000000   1.0000000   1.0000000   6.0000000   6.0000000   6.0000000   6.0000000   1.0000000

  Atom        21          22          23          24          25          26          27          28          29          30
 IAtWgt=          12          12           1          12          12           1          12           1           1          12
 AtmWgt=  12.0000000  12.0000000   1.0078250  12.0000000  12.0000000   1.0078250  12.0000000   1.0078250   1.0078250  12.0000000
 NucSpn=           0           0           1           0           0           1           0           1           1           0
 AtZEff=  -0.0000000  -0.0000000  -0.0000000  -0.0000000  -0.0000000  -0.0000000  -0.0000000  -0.0000000  -0.0000000  -0.0000000
 NQMom=    0.0000000   0.0000000   0.0000000   0.0000000   0.0000000   0.0000000   0.0000000   0.0000000   0.0000000   0.0000000
 NMagM=    0.0000000   0.0000000   2.7928460   0.0000000   0.0000000   2.7928460   0.0000000   2.7928460   2.7928460   0.0000000
 AtZNuc=   6.0000000   6.0000000   1.0000000   6.0000000   6.0000000   1.0000000   6.0000000   1.0000000   1.0000000   6.0000000

  Atom        31          32          33          34          35          36          37          38          39          40
 IAtWgt=          12          12          12           1          12          12           1          12          12           1
 AtmWgt=  12.0000000  12.0000000  12.0000000   1.0078250  12.0000000  12.0000000   1.0078250  12.0000000  12.0000000   1.0078250
 NucSpn=           0           0           0           1           0           0           1           0           0           1
 AtZEff=  -0.0000000  -0.0000000  -0.0000000  -0.0000000  -0.0000000  -0.0000000  -0.0000000  -0.0000000  -0.0000000  -0.0000000
 NQMom=    0.0000000   0.0000000   0.0000000   0.0000000   0.0000000   0.0000000   0.0000000   0.0000000   0.0000000   0.0000000
 NMagM=    0.0000000   0.0000000   0.0000000   2.7928460   0.0000000   0.0000000   2.7928460   0.0000000   0.0000000   2.7928460
 AtZNuc=   6.0000000   6.0000000   6.0000000   1.0000000   6.0000000   6.0000000   1.0000000   6.0000000   6.0000000   1.0000000

  Atom        41          42          43          44          45          46          47          48          49          50
 IAtWgt=          12           1           1          12          12          14           1          12          14           1
 AtmWgt=  12.0000000   1.0078250   1.0078250  12.0000000  12.0000000  14.0030740   1.0078250  12.0000000  14.0030740   1.0078250
 NucSpn=           0           1           1           0           0           2           1           0           2           1
 AtZEff=  -0.0000000  -0.0000000  -0.0000000  -0.0000000  -0.0000000  -0.0000000  -0.0000000  -0.0000000  -0.0000000  -0.0000000
 NQMom=    0.0000000   0.0000000   0.0000000   0.0000000   0.0000000   2.0440000   0.0000000   0.0000000   2.0440000   0.0000000
 NMagM=    0.0000000   2.7928460   2.7928460   0.0000000   0.0000000   0.4037610   2.7928460   0.0000000   0.4037610   2.7928460
 AtZNuc=   6.0000000   1.0000000   1.0000000   6.0000000   6.0000000   7.0000000   1.0000000   6.0000000   7.0000000   1.0000000

  Atom        51          52          53          54          55          56          57          58          59          60
 IAtWgt=          12           1          12          12           1          12          12           1           1           1
 AtmWgt=  12.0000000   1.0078250  12.0000000  12.0000000   1.0078250  12.0000000  12.0000000   1.0078250   1.0078250   1.0078250
 NucSpn=           0           1           0           0           1           0           0           1           1           1
 AtZEff=  -0.0000000  -0.0000000  -0.0000000  -0.0000000  -0.0000000  -0.0000000  -0.0000000  -0.0000000  -0.0000000  -0.0000000
 NQMom=    0.0000000   0.0000000   0.0000000   0.0000000   0.0000000   0.0000000   0.0000000   0.0000000   0.0000000   0.0000000
 NMagM=    0.0000000   2.7928460   0.0000000   0.0000000   2.7928460   0.0000000   0.0000000   2.7928460   2.7928460   2.7928460
 AtZNuc=   6.0000000   1.0000000   6.0000000   6.0000000   1.0000000   6.0000000   6.0000000   1.0000000   1.0000000   1.0000000

  Atom        61          62          63          64          65          66          67          68          69          70
 IAtWgt=           1           1           1           1           1           1           1           1           1          12
 AtmWgt=   1.0078250   1.0078250   1.0078250   1.0078250   1.0078250   1.0078250   1.0078250   1.0078250   1.0078250  12.0000000
 NucSpn=           1           1           1           1           1           1           1           1           1           0
 AtZEff=  -0.0000000  -0.0000000  -0.0000000  -0.0000000  -0.0000000  -0.0000000  -0.0000000  -0.0000000  -0.0000000  -0.0000000
 NQMom=    0.0000000   0.0000000   0.0000000   0.0000000   0.0000000   0.0000000   0.0000000   0.0000000   0.0000000   0.0000000
 NMagM=    2.7928460   2.7928460   2.7928460   2.7928460   2.7928460   2.7928460   2.7928460   2.7928460   2.7928460   0.0000000
 AtZNuc=   1.0000000   1.0000000   1.0000000   1.0000000   1.0000000   1.0000000   1.0000000   1.0000000   1.0000000   6.0000000

  Atom        71          72          73          74          75          76          77          78          79          80
 IAtWgt=          12          14           1          12          14           1          12           1          12          12
 AtmWgt=  12.0000000  14.0030740   1.0078250  12.0000000  14.0030740   1.0078250  12.0000000   1.0078250  12.0000000  12.0000000
 NucSpn=           0           2           1           0           2           1           0           1           0           0
 AtZEff=  -0.0000000  -0.0000000  -0.0000000  -0.0000000  -0.0000000  -0.0000000  -0.0000000  -0.0000000  -0.0000000  -0.0000000
 NQMom=    0.0000000   2.0440000   0.0000000   0.0000000   2.0440000   0.0000000   0.0000000   0.0000000   0.0000000   0.0000000
 NMagM=    0.0000000   0.4037610   2.7928460   0.0000000   0.4037610   2.7928460   0.0000000   2.7928460   0.0000000   0.0000000
 AtZNuc=   6.0000000   7.0000000   1.0000000   6.0000000   7.0000000   1.0000000   6.0000000   1.0000000   6.0000000   6.0000000

  Atom        81          82          83          84          85          86          87          88          89          90
 IAtWgt=           1          12          12           1           1           1           1           1           1           1
 AtmWgt=   1.0078250  12.0000000  12.0000000   1.0078250   1.0078250   1.0078250   1.0078250   1.0078250   1.0078250   1.0078250
 NucSpn=           1           0           0           1           1           1           1           1           1           1
 AtZEff=  -0.0000000  -0.0000000  -0.0000000  -0.0000000  -0.0000000  -0.0000000  -0.0000000  -0.0000000  -0.0000000  -0.0000000
 NQMom=    0.0000000   0.0000000   0.0000000   0.0000000   0.0000000   0.0000000   0.0000000   0.0000000   0.0000000   0.0000000
 NMagM=    2.7928460   0.0000000   0.0000000   2.7928460   2.7928460   2.7928460   2.7928460   2.7928460   2.7928460   2.7928460
 AtZNuc=   1.0000000   6.0000000   6.0000000   1.0000000   1.0000000   1.0000000   1.0000000   1.0000000   1.0000000   1.0000000

  Atom        91          92          93          94          95          96          97          98          99         100
 IAtWgt=           1           1           1           1           1          12          12          14           1          12
 AtmWgt=   1.0078250   1.0078250   1.0078250   1.0078250   1.0078250  12.0000000  12.0000000  14.0030740   1.0078250  12.0000000
 NucSpn=           1           1           1           1           1           0           0           2           1           0
 AtZEff=  -0.0000000  -0.0000000  -0.0000000  -0.0000000  -0.0000000  -0.0000000  -0.0000000  -0.0000000  -0.0000000  -0.0000000
 NQMom=    0.0000000   0.0000000   0.0000000   0.0000000   0.0000000   0.0000000   0.0000000   2.0440000   0.0000000   0.0000000
 NMagM=    2.7928460   2.7928460   2.7928460   2.7928460   2.7928460   0.0000000   0.0000000   0.4037610   2.7928460   0.0000000
 AtZNuc=   1.0000000   1.0000000   1.0000000   1.0000000   1.0000000   6.0000000   6.0000000   7.0000000   1.0000000   6.0000000

  Atom       101         102         103         104         105         106         107         108         109         110
 IAtWgt=          14           1          12           1          12          12           1          12          12           1
 AtmWgt=  14.0030740   1.0078250  12.0000000   1.0078250  12.0000000  12.0000000   1.0078250  12.0000000  12.0000000   1.0078250
 NucSpn=           2           1           0           1           0           0           1           0           0           1
 AtZEff=  -0.0000000  -0.0000000  -0.0000000  -0.0000000  -0.0000000  -0.0000000  -0.0000000  -0.0000000  -0.0000000  -0.0000000
 NQMom=    2.0440000   0.0000000   0.0000000   0.0000000   0.0000000   0.0000000   0.0000000   0.0000000   0.0000000   0.0000000
 NMagM=    0.4037610   2.7928460   0.0000000   2.7928460   0.0000000   0.0000000   2.7928460   0.0000000   0.0000000   2.7928460
 AtZNuc=   7.0000000   1.0000000   6.0000000   1.0000000   6.0000000   6.0000000   1.0000000   6.0000000   6.0000000   1.0000000

  Atom       111         112         113         114         115         116         117         118         119         120
 IAtWgt=           1           1           1           1           1           1           1           1           1           1
 AtmWgt=   1.0078250   1.0078250   1.0078250   1.0078250   1.0078250   1.0078250   1.0078250   1.0078250   1.0078250   1.0078250
 NucSpn=           1           1           1           1           1           1           1           1           1           1
 AtZEff=  -0.0000000  -0.0000000  -0.0000000  -0.0000000  -0.0000000  -0.0000000  -0.0000000  -0.0000000  -0.0000000  -0.0000000
 NQMom=    0.0000000   0.0000000   0.0000000   0.0000000   0.0000000   0.0000000   0.0000000   0.0000000   0.0000000   0.0000000
 NMagM=    2.7928460   2.7928460   2.7928460   2.7928460   2.7928460   2.7928460   2.7928460   2.7928460   2.7928460   2.7928460
 AtZNuc=   1.0000000   1.0000000   1.0000000   1.0000000   1.0000000   1.0000000   1.0000000   1.0000000   1.0000000   1.0000000

  Atom       121         122         123         124         125         126         127         128         129         130
 IAtWgt=           1          12          12          14           1          12          14           1          12           1
 AtmWgt=   1.0078250  12.0000000  12.0000000  14.0030740   1.0078250  12.0000000  14.0030740   1.0078250  12.0000000   1.0078250
 NucSpn=           1           0           0           2           1           0           2           1           0           1
 AtZEff=  -0.0000000  -0.0000000  -0.0000000  -0.0000000  -0.0000000  -0.0000000  -0.0000000  -0.0000000  -0.0000000  -0.0000000
 NQMom=    0.0000000   0.0000000   0.0000000   2.0440000   0.0000000   0.0000000   2.0440000   0.0000000   0.0000000   0.0000000
 NMagM=    2.7928460   0.0000000   0.0000000   0.4037610   2.7928460   0.0000000   0.4037610   2.7928460   0.0000000   2.7928460
 AtZNuc=   1.0000000   6.0000000   6.0000000   7.0000000   1.0000000   6.0000000   7.0000000   1.0000000   6.0000000   1.0000000

  Atom       131         132         133         134         135         136         137         138         139         140
 IAtWgt=          12          12           1          12          12           1           1           1           1           1
 AtmWgt=  12.0000000  12.0000000   1.0078250  12.0000000  12.0000000   1.0078250   1.0078250   1.0078250   1.0078250   1.0078250
 NucSpn=           0           0           1           0           0           1           1           1           1           1
 AtZEff=  -0.0000000  -0.0000000  -0.0000000  -0.0000000  -0.0000000  -0.0000000  -0.0000000  -0.0000000  -0.0000000  -0.0000000
 NQMom=    0.0000000   0.0000000   0.0000000   0.0000000   0.0000000   0.0000000   0.0000000   0.0000000   0.0000000   0.0000000
 NMagM=    0.0000000   0.0000000   2.7928460   0.0000000   0.0000000   2.7928460   2.7928460   2.7928460   2.7928460   2.7928460
 AtZNuc=   6.0000000   6.0000000   1.0000000   6.0000000   6.0000000   1.0000000   1.0000000   1.0000000   1.0000000   1.0000000

  Atom       141         142         143         144         145         146         147         148         149         150
 IAtWgt=           1           1           1           1           1           1           1          12          12          14
 AtmWgt=   1.0078250   1.0078250   1.0078250   1.0078250   1.0078250   1.0078250   1.0078250  12.0000000  12.0000000  14.0030740
 NucSpn=           1           1           1           1           1           1           1           0           0           2
 AtZEff=  -0.0000000  -0.0000000  -0.0000000  -0.0000000  -0.0000000  -0.0000000  -0.0000000  -0.0000000  -0.0000000  -0.0000000
 NQMom=    0.0000000   0.0000000   0.0000000   0.0000000   0.0000000   0.0000000   0.0000000   0.0000000   0.0000000   2.0440000
 NMagM=    2.7928460   2.7928460   2.7928460   2.7928460   2.7928460   2.7928460   2.7928460   0.0000000   0.0000000   0.4037610
 AtZNuc=   1.0000000   1.0000000   1.0000000   1.0000000   1.0000000   1.0000000   1.0000000   6.0000000   6.0000000   7.0000000

  Atom       151         152         153         154         155         156         157         158         159         160
 IAtWgt=           1          12          14           1          12           1          12          12           1          12
 AtmWgt=   1.0078250  12.0000000  14.0030740   1.0078250  12.0000000   1.0078250  12.0000000  12.0000000   1.0078250  12.0000000
 NucSpn=           1           0           2           1           0           1           0           0           1           0
 AtZEff=  -0.0000000  -0.0000000  -0.0000000  -0.0000000  -0.0000000  -0.0000000  -0.0000000  -0.0000000  -0.0000000  -0.0000000
 NQMom=    0.0000000   0.0000000   2.0440000   0.0000000   0.0000000   0.0000000   0.0000000   0.0000000   0.0000000   0.0000000
 NMagM=    2.7928460   0.0000000   0.4037610   2.7928460   0.0000000   2.7928460   0.0000000   0.0000000   2.7928460   0.0000000
 AtZNuc=   1.0000000   6.0000000   7.0000000   1.0000000   6.0000000   1.0000000   6.0000000   6.0000000   1.0000000   6.0000000

  Atom       161         162         163         164         165         166         167         168         169         170
 IAtWgt=          12           1           1           1           1           1           1           1           1           1
 AtmWgt=  12.0000000   1.0078250   1.0078250   1.0078250   1.0078250   1.0078250   1.0078250   1.0078250   1.0078250   1.0078250
 NucSpn=           0           1           1           1           1           1           1           1           1           1
 AtZEff=  -0.0000000  -0.0000000  -0.0000000  -0.0000000  -0.0000000  -0.0000000  -0.0000000  -0.0000000  -0.0000000  -0.0000000
 NQMom=    0.0000000   0.0000000   0.0000000   0.0000000   0.0000000   0.0000000   0.0000000   0.0000000   0.0000000   0.0000000
 NMagM=    0.0000000   2.7928460   2.7928460   2.7928460   2.7928460   2.7928460   2.7928460   2.7928460   2.7928460   2.7928460
 AtZNuc=   6.0000000   1.0000000   1.0000000   1.0000000   1.0000000   1.0000000   1.0000000   1.0000000   1.0000000   1.0000000

  Atom       171         172         173         174         175         176         177
 IAtWgt=           1           1           1           1           1           1           1
 AtmWgt=   1.0078250   1.0078250   1.0078250   1.0078250   1.0078250   1.0078250   1.0078250
 NucSpn=           1           1           1           1           1           1           1
 AtZEff=  -0.0000000  -0.0000000  -0.0000000  -0.0000000  -0.0000000  -0.0000000  -0.0000000
 NQMom=    0.0000000   0.0000000   0.0000000   0.0000000   0.0000000   0.0000000   0.0000000
 NMagM=    2.7928460   2.7928460   2.7928460   2.7928460   2.7928460   2.7928460   2.7928460
 AtZNuc=   1.0000000   1.0000000   1.0000000   1.0000000   1.0000000   1.0000000   1.0000000
 Leave Link  101 at Fri Oct 29 09:40:52 2021, MaxMem=  7864320000 cpu:               5.0 elap:               0.2
 (Enter /apps/gaussian/g16-c01-avx/g16/l202.exe)
 Stoichiometry    C67H100N10
 Framework group  C1[X(C67H100N10)]
 Deg. of freedom   525
 Full point group                 C1      NOp   1
 Largest Abelian subgroup         C1      NOp   1
 Largest concise Abelian subgroup C1      NOp   1
                         Standard orientation:                         
 ---------------------------------------------------------------------
 Center     Atomic      Atomic             Coordinates (Angstroms)
 Number     Number       Type             X           Y           Z
 ---------------------------------------------------------------------
      1          6           0       -1.202505   -2.021158    2.071857
      2          6           0       -0.877007   -1.403254    3.347430
      3          6           0       -0.253648   -2.684745    1.295562
      4          6           0       -0.606324   -3.229952    0.064508
      5          1           0        0.756093   -2.771744    1.666802
      6          6           0       -1.902556   -3.052784   -0.419674
      7          6           0       -2.857858   -2.390764    0.341498
      8          1           0       -2.143752   -3.453067   -1.392646
      9          6           0       -2.506375   -1.909224    1.600365
     10          6           0       -4.193792   -2.141011   -0.184465
     11          1           0       -3.266961   -1.418388    2.186535
     12          6           0        0.377479   -3.965311   -0.716526
     13          1           0       -4.303106   -2.250992   -1.274809
     14          1           0       -1.748971   -1.058604    3.923558
     15          1           0        1.374591   -4.053992   -0.261399
     16          6           0        2.594661    0.141657    0.055879
     17          6           0        3.058982   -0.159885    1.464193
     18          6           0        2.396516    1.444256   -0.373200
     19          6           0        1.926482    1.707466   -1.659576
     20          1           0        2.620220    2.258922    0.300091
     21          6           0        1.638783    0.646000   -2.513534
     22          6           0        1.856262   -0.662144   -2.099495
     23          1           0        1.262374    0.865272   -3.500935
     24          6           0        2.336410   -0.903659   -0.813461
     25          6           0        1.552545   -1.786609   -2.973607
     26          1           0        2.508545   -1.919503   -0.501933
     27          6           0        1.714525    3.084636   -2.072856
     28          1           0        0.843161   -1.584706   -3.792306
     29          1           0        1.969355    3.847734   -1.320565
     30          6           0       -1.214167    2.071543    1.619436
     31          6           0       -0.123142    1.812944    2.549998
     32          6           0       -2.484014    1.555148    1.871167
     33          6           0       -3.488019    1.632529    0.912779
     34          1           0       -2.654975    1.058695    2.813529
     35          6           0       -3.226317    2.273616   -0.296968
     36          6           0       -1.987583    2.858348   -0.532838
     37          1           0       -4.008734    2.310247   -1.039641
     38          6           0       -0.980817    2.742916    0.424579
     39          6           0       -1.724129    3.529867   -1.799960
     40          1           0       -0.014252    3.169299    0.208875
     41          6           0       -4.758141    0.965118    1.153549
     42          1           0       -2.374618    3.233257   -2.638319
     43          1           0       -4.897435    0.569059    2.170884
     44          6           0        0.771260    0.991052    4.547592
     45          6           0        0.461330   -0.468190    4.983136
     46          7           0       -0.329222    1.381609    3.716803
     47          1           0        1.712500    0.995483    3.972861
     48          6           0        0.923202    1.976927    5.723848
     49          7           0        0.298934   -1.222886    3.769406
     50          1           0       -0.489395   -0.431625    5.541366
     51          6           0        1.527170   -1.129590    5.872319
     52          1           0        1.720717    1.603722    6.374920
     53          6           0       -0.363422    2.113809    6.532564
     54          6           0        1.352786    3.341099    5.183398
     55          1           0        1.643807   -0.525392    6.777798
     56          6           0        2.874316   -1.245751    5.167464
     57          6           0        1.032205   -2.516483    6.283922
     58          1           0        0.571012    3.760812    4.554100
     59          1           0        2.261682    3.255067    4.590635
     60          1           0        1.541709    4.028888    6.004617
     61          1           0       -0.594242    1.194189    7.063787
     62          1           0       -1.189903    2.352479    5.868644
     63          1           0       -0.258759    2.910950    7.265477
     64          1           0        0.078061   -2.446855    6.802153
     65          1           0        1.749119   -2.995118    6.947265
     66          1           0        0.900092   -3.140154    5.402646
     67          1           0        3.561846   -1.841776    5.764695
     68          1           0        3.319916   -0.265615    5.017376
     69          1           0        2.731823   -1.729086    4.204544
     70          6           0        5.112544    0.874418    1.525334
     71          6           0        5.321563   -0.646613    1.214291
     72          7           0        3.747947    0.992891    2.031787
     73          1           0        5.137649    1.418954    0.573125
     74          6           0        6.164337    1.491602    2.456744
     75          7           0        4.016175   -1.264238    1.447620
     76          1           0        6.068520   -1.083660    1.885803
     77          6           0        5.783659   -0.901680   -0.230477
     78          1           0        7.144212    1.237791    2.038275
     79          6           0        6.108395    0.954594    3.888576
     80          6           0        6.018599    3.012844    2.468150
     81          1           0        5.056812   -0.441611   -0.907008
     82          6           0        5.814730   -2.402915   -0.506935
     83          6           0        7.161826   -0.297176   -0.485635
     84          1           0        6.747009    3.460978    3.140325
     85          1           0        5.020445    3.290300    2.798778
     86          1           0        6.172855    3.419793    1.471587
     87          1           0        5.259297    1.367901    4.430944
     88          1           0        7.009191    1.245788    4.424204
     89          1           0        6.042525   -0.131379    3.907861
     90          1           0        7.892818   -0.713031    0.205990
     91          1           0        7.151644    0.783548   -0.369748
     92          1           0        7.484384   -0.525234   -1.498948
     93          1           0        6.543908   -2.893128    0.135689
     94          1           0        6.087491   -2.589601   -1.542838
     95          1           0        4.837052   -2.834517   -0.318049
     96          6           0        1.149302   -5.107406   -2.586562
     97          6           0        1.673686   -4.040127   -3.586796
     98          7           0        0.102968   -4.474263   -1.837694
     99          1           0        1.994317   -5.367504   -1.927458
    100          6           0        0.606903   -6.388382   -3.241937
    101          7           0        2.062512   -2.922046   -2.782906
    102          1           0        0.849400   -3.769590   -4.269616
    103          6           0        2.873337   -4.517477   -4.430144
    104          1           0        1.416006   -6.850612   -3.816463
    105          6           0       -0.571834   -6.103208   -4.168062
    106          6           0        0.184955   -7.362335   -2.141405
    107          1           0        2.563900   -5.410760   -4.981967
    108          6           0        4.086220   -4.849756   -3.565467
    109          6           0        3.236011   -3.434349   -5.446448
    110          1           0       -0.619826   -6.928548   -1.552363
    111          1           0        1.019660   -7.579396   -1.477687
    112          1           0       -0.162910   -8.297749   -2.573891
    113          1           0       -0.253485   -5.562218   -5.055406
    114          1           0       -1.311774   -5.508686   -3.640095
    115          1           0       -1.030983   -7.036457   -4.486951
    116          1           0        4.038147   -3.779565   -6.094865
    117          1           0        3.567924   -2.533713   -4.934341
    118          1           0        2.378150   -3.182961   -6.067343
    119          1           0        4.955129   -5.027111   -4.195866
    120          1           0        3.913624   -5.742681   -2.970593
    121          1           0        4.297088   -4.018885   -2.898028
    122          6           0       -6.416641   -1.439824   -0.006703
    123          6           0       -6.761687   -0.022737    0.532302
    124          7           0       -5.146015   -1.783317    0.558677
    125          1           0       -6.353227   -1.385383   -1.106653
    126          6           0       -7.461875   -2.511679    0.367816
    127          7           0       -5.620977    0.799515    0.248793
    128          1           0       -6.907557   -0.119773    1.621480
    129          6           0       -8.019434    0.607048   -0.089013
    130          1           0       -8.439099   -2.162532    0.019368
    131          6           0       -7.523561   -2.758718    1.872691
    132          6           0       -7.135585   -3.814387   -0.362473
    133          1           0       -8.871532   -0.050053    0.113632
    134          6           0       -7.879305    0.801957   -1.596175
    135          6           0       -8.279821    1.951567    0.590687
    136          1           0       -7.098976   -3.656787   -1.438649
    137          1           0       -7.895476   -4.563704   -0.152428
    138          1           0       -6.171959   -4.200092   -0.035991
    139          1           0       -7.911208   -1.890937    2.399417
    140          1           0       -6.529011   -2.981828    2.249732
    141          1           0       -8.178041   -3.601745    2.083653
    142          1           0       -8.391294    1.825666    1.665864
    143          1           0       -9.188711    2.405038    0.201912
    144          1           0       -7.446431    2.625965    0.407329
    145          1           0       -6.943902    1.310830   -1.810444
    146          1           0       -8.703621    1.403584   -1.972762
    147          1           0       -7.889892   -0.150271   -2.120059
    148          6           0        0.972261    4.776717   -3.474529
    149          6           0       -0.544095    4.974473   -3.202856
    150          7           0        1.257577    3.396611   -3.206599
    151          1           0        1.514468    5.427740   -2.767668
    152          6           0        1.408162    5.123047   -4.908499
    153          7           0       -0.808493    4.384435   -1.924315
    154          1           0       -1.109195    4.456177   -3.996056
    155          6           0       -0.975609    6.456522   -3.189019
    156          1           0        1.122521    6.159500   -5.117024
    157          6           0        0.762785    4.204673   -5.942616
    158          6           0        2.930859    5.017530   -4.996192
    159          1           0       -0.625403    6.916167   -4.118764
    160          6           0       -0.391412    7.218417   -2.002252
    161          6           0       -2.501623    6.540810   -3.161722
    162          1           0        3.242339    3.996931   -4.785792
    163          1           0        3.406222    5.679373   -4.274749
    164          1           0        3.275202    5.290154   -5.991173
    165          1           0        1.215937    4.365137   -6.918477
    166          1           0       -0.303507    4.395857   -6.030845
    167          1           0        0.911058    3.169458   -5.649426
    168          1           0       -2.934170    6.019037   -4.013187
    169          1           0       -2.822085    7.579572   -3.198887
    170          1           0       -2.888505    6.093900   -2.248088
    171          1           0       -0.638118    6.704572   -1.076998
    172          1           0       -0.803150    8.224810   -1.968709
    173          1           0        0.689573    7.298705   -2.078276
    174          1           0        0.888598    1.961833    2.146011
    175          1           0        4.005448   -1.746237    2.339873
    176          1           0        2.176340   -0.424127    2.061010
    177          1           0        3.758327    0.906209    3.043817
 ---------------------------------------------------------------------
 Rotational constants (GHZ):           0.0250422           0.0210003           0.0198461
 Leave Link  202 at Fri Oct 29 09:40:53 2021, MaxMem=  7864320000 cpu:               0.2 elap:               0.0
 (Enter /apps/gaussian/g16-c01-avx/g16/l301.exe)
 Standard basis: Aug-CC-pVDZ (5D, 7F)
 Ernie: Thresh=  0.10000D-02 Tol=  0.10000D-05 Strict=F.
 Ernie:  154 primitive shells out of 2625 were deleted.
 There are  2825 symmetry adapted cartesian basis functions of A   symmetry.
 There are  2671 symmetry adapted basis functions of A   symmetry.
  2671 basis functions,  4411 primitive gaussians,  2825 cartesian basis functions
   286 alpha electrons      286 beta electrons
       nuclear repulsion energy     14221.5290992844 Hartrees.
 IExCor=    0 DFT=F Ex=HF Corr=None ExCW=0 ScaHFX=  1.000000
 ScaDFX=  1.000000  1.000000  1.000000  1.000000 ScalE2=  1.000000  1.000000
 IRadAn=      7 IRanWt=     -1 IRanGd=            0 ICorTp=0 IEmpDi=  4
 NAtoms=  177 NActive=  177 NUniq=  177 SFac= 1.00D+00 NAtFMM=   60 NAOKFM=T Big=T
 Integral buffers will be    131072 words long.
 Raffenetti 1 integral format.
 Two-electron integral symmetry is turned on.
 Leave Link  301 at Fri Oct 29 09:40:53 2021, MaxMem=  7864320000 cpu:               1.7 elap:               0.1
 (Enter /apps/gaussian/g16-c01-avx/g16/l302.exe)
 NPDir=0 NMtPBC=     1 NCelOv=     1 NCel=       1 NClECP=     1 NCelD=      1
         NCelK=      1 NCelE2=     1 NClLst=     1 CellRange=     0.0.
 One-electron integrals computed using PRISM.
 One-electron integral symmetry used in STVInt
 NBasis=  2671 RedAO= T EigKep=  1.03D-06  NBF=  2671
 NBsUse=  2627 1.00D-06 EigRej=  9.88D-07 NBFU=  2627
 Leave Link  302 at Fri Oct 29 09:41:18 2021, MaxMem=  7864320000 cpu:             762.7 elap:              24.1
 (Enter /apps/gaussian/g16-c01-avx/g16/l303.exe)
 DipDrv:  MaxL=1.
 Leave Link  303 at Fri Oct 29 09:41:20 2021, MaxMem=  7864320000 cpu:              61.8 elap:               2.4
 (Enter /apps/gaussian/g16-c01-avx/g16/l401.exe)
 ExpMin= 2.97D-02 ExpMax= 9.05D+03 ExpMxC= 3.09D+02 IAcc=3 IRadAn=         7 AccDes= 0.00D+00
 Harris functional with IExCor=  205 and IRadAn=       7 diagonalized for initial guess.
 HarFok:  IExCor=  205 AccDes= 0.00D+00 IRadAn=         7 IDoV= 1 UseB2=F ITyADJ=14
 ICtDFT=  3500011 ScaDFX=  1.000000  1.000000  1.000000  1.000000
 FoFCou: FMM=F IPFlag=           0 FMFlag=      100000 FMFlg1=        2001
         NFxFlg=           0 DoJE=T BraDBF=F KetDBF=T FulRan=T
         wScrn=  0.000000 ICntrl=       500 IOpCl=  0 I1Cent=   200000004 NGrid=           0
         NMat0=    1 NMatS0=      1 NMatT0=    0 NMatD0=    1 NMtDS0=    0 NMtDT0=    0
 Petite list used in FoFCou.
 Harris En= -3145.72090919257    
 JPrj=0 DoOrth=F DoCkMO=F.
 Leave Link  401 at Fri Oct 29 09:43:06 2021, MaxMem=  7864320000 cpu:            3374.5 elap:             106.2
 (Enter /apps/gaussian/g16-c01-avx/g16/l508.exe)
 Integral symmetry usage will be decided dynamically.
 Tight linear equation convergence will be used.
 RHF wavefunction.
 Linear searches until partial convergence.
 Full line searches.
 Fock matrices will be formed incrementally for  20 cycles.
 FoFJK:  IHMeth= 1 ICntrl=       0 DoSepK=F KAlg= 0 I1Cent=           0 FoldK=F
 IRaf= 910000000 NMat=       1 IRICut=       1 DoRegI=T DoRafI=F ISym2E= 1 IDoP0=0 IntGTp=1.
 FoFCou: FMM=T IPFlag=           0 FMFlag=      100000 FMFlg1=        2001
         NFxFlg=           0 DoJE=F BraDBF=F KetDBF=F FulRan=T
         wScrn=  0.000000 ICntrl=         0 IOpCl=  0 I1Cent=           0 NGrid=           0
         NMat0=    1 NMatS0=      1 NMatT0=    0 NMatD0=    1 NMtDS0=    0 NMtDT0=    0
 Petite list used in FoFCou.
 FMM levels:  10  Number of levels for PrismC:   9
 Iteration   1 EE= -3136.70769470718                                    Grad=2.875D+00 Max rot=    1.9202 deg.
 Gradient too large for Newton-Raphson -- use scaled steepest descent instead.
 Alpha Gap=     0.449 HL deriv= 3.68D-03
     ILin= 1 X=0.000D+00 Y=-3.136707694707D+03 DE= 0.00D+00 F= -1.08D+01
 RMSU=  6.81D-03    CP:  7.71D-01
     ILin= 2 X=3.000D-01 Y=-3.139135117832D+03 DE=-2.43D+00 F= -5.32D+00 OKLS=F
 RMSU=  1.58D-03    CP:  6.53D-01  1.56D+00
     ILin= 3 X=5.000D-01 Y=-3.139828243878D+03 DE=-3.12D+00 F= -1.61D+00
 RMSU=  3.78D-03    CP:  4.97D-01  2.42D+00  3.00D+00
     ILin= 4 X=9.000D-01 Y=-3.138998300272D+03 DE=-2.29D+00 F=  5.73D+00
     An  expanding polynomial of degree  4 produced  0.5876
 RMSU=  3.88D-06    CP:  6.09D-01  1.78D+00  1.69D+00  1.46D-05
 Iteration   2 EE= -3139.89824506034     Delta-E=       -3.190550353160 Grad=9.399D-01 Max rot=    0.9892 deg.
 Gradient too large for Newton-Raphson -- use scaled steepest descent instead.
 Alpha Gap=     0.464 HL deriv= 3.09D-03
     ILin= 1 X=0.000D+00 Y=-3.139898245060D+03 DE= 0.00D+00 F= -4.79D-01
 RMSU=  1.67D-03    CP:  5.48D-01  1.98D+00  2.80D+00  2.42D-03  3.00D+00
     ILin= 2 X=4.000D-01 Y=-3.140045563227D+03 DE=-1.47D-01 F= -2.58D-01 OKLS=F
 RMSU=  3.22D-04    CP:  4.99D-01  2.15D+00  3.00D+00  5.01D-01  3.00D+00
                    CP:  1.91D+00
     ILin= 3 X=8.000D-01 Y=-3.140104804464D+03 DE=-2.07D-01 F= -3.82D-02
 RMSU=  1.67D-03    CP:  4.34D-01  2.41D+00  3.00D+00  2.23D+00  3.00D+00
                    CP:  3.00D+00  3.00D+00
     ILin= 4 X=1.700D+00 Y=-3.139917429513D+03 DE=-1.92D-02 F=  4.54D-01
     An  expanding polynomial of degree  4 produced  0.8697
     Minimum is close to point  3 DX=  6.97D-02 DF= -1.33D-03 DXR=  8.01D-02 DFR=  6.45D-03 which will be used.
 Iteration   3 EE= -3140.10480446357     Delta-E=       -0.206559403225 Grad=2.582D-01 Max rot=    0.2518 deg.
 Gradient too large for Newton-Raphson -- use scaled steepest descent instead.
 Alpha Gap=     0.454 HL deriv= 8.40D-04
     ILin= 1 X=0.000D+00 Y=-3.140104804464D+03 DE= 0.00D+00 F= -5.91D-02
 RMSU=  7.91D-04    CP:  4.75D-01  2.15D+00  3.00D+00  7.34D-01  3.00D+00
                    CP:  2.11D+00  2.00D+00 -1.33D-03
     ILin= 2 X=7.000D-01 Y=-3.140127418431D+03 DE=-2.26D-02 F= -5.54D-03 OKLS=T
     Reject lnstep IMin12=  1  2 Big=T Turn=F Min= 1.334D+00 FVal=-3.140131096428D+03 Lims=  0.00D+00  7.00D-01
 RMSU=  8.51D-05    CP:  4.54D-01  2.15D+00  3.00D+00  9.84D-01  3.00D+00
                    CP:  2.29D+00  3.00D+00  1.46D-02  1.98D+00
     ILin= 3 X=1.400D+00 Y=-3.140112548964D+03 DE=-7.74D-03 F=  4.80D-02
     An  expanding polynomial of degree  3 produced  0.7723
     Minimum is close to point  2 DX=  7.23D-02 DF= -2.00D-04 DXR=  9.36D-02 DFR=  8.84D-03 which will be used.
 Iteration   4 EE= -3140.12741843143     Delta-E=       -0.022613967863 Grad=9.951D-02 Max rot=    0.1744 deg.
 Gradient too large for Newton-Raphson -- use scaled steepest descent instead.
 Alpha Gap=     0.463 HL deriv= 7.10D-04
     ILin= 1 X=0.000D+00 Y=-3.140127418431D+03 DE= 0.00D+00 F= -9.65D-03
 RMSU=  2.49D-04    CP:  4.64D-01  2.13D+00  3.00D+00  7.95D-01  3.00D+00
                    CP:  2.28D+00  2.52D+00 -1.10D-03  1.31D+00  1.12D+00
     ILin= 2 X=8.000D-01 Y=-3.140131631507D+03 DE=-4.21D-03 F= -8.87D-04 OKLS=T
     Reject lnstep IMin12=  1  2 Big=T Turn=F Min= 1.568D+00 FVal=-3.140131816538D+03 Lims=  0.00D+00  8.00D-01
 RMSU=  1.96D-05    CP:  4.53D-01  2.12D+00  3.00D+00  8.60D-01  3.00D+00
                    CP:  2.45D+00  3.00D+00  1.13D-02  1.61D+00  2.41D+00
                    CP:  1.98D+00
     ILin= 3 X=1.600D+00 Y=-3.140128846251D+03 DE=-1.43D-03 F=  7.84D-03
     An  expanding polynomial of degree  3 produced  0.8816
     Minimum is close to point  2 DX=  8.16D-02 DF= -3.64D-05 DXR=  9.26D-02 DFR=  8.64D-03 which will be used.
 Iteration   5 EE= -3140.13163150746     Delta-E=       -0.004213076027 Grad=3.907D-02 Max rot=    0.0892 deg.
 Gradient too large for Newton-Raphson -- use scaled steepest descent instead.
 Alpha Gap=     0.461 HL deriv= 2.10D-04
     ILin= 1 X=0.000D+00 Y=-3.140131631507D+03 DE= 0.00D+00 F= -2.33D-03
 RMSU=  9.21D-05    CP:  4.60D-01  2.12D+00  3.00D+00  8.12D-01  3.00D+00
                    CP:  2.32D+00  2.76D+00 -1.20D-03  1.56D+00  1.31D+00
                    CP:  1.09D+00 -2.42D-01
     ILin= 2 X=8.000D-01 Y=-3.140132481953D+03 DE=-8.50D-04 F=  2.05D-04 OKLS=T
     Accept linear search using points  1 and  2.
     An  expanding polynomial of degree  2 produced  0.6911
 RMSU=  1.56D-07    CP:  4.61D-01  2.12D+00  3.00D+00  8.10D-01  3.00D+00
                    CP:  2.31D+00  2.73D+00 -1.19D-03  1.52D+00  1.28D+00
                    CP:  1.07D+00 -2.09D-01  8.64D-01
 Iteration   6 EE= -3140.13248543046     Delta-E=       -0.000853923004 Grad=1.799D-02 Max rot=    0.0587 deg.
 Gradient too large for Newton-Raphson -- use scaled steepest descent instead.
 Alpha Gap=     0.463 HL deriv= 1.42D-04
     ILin= 1 X=0.000D+00 Y=-3.140132485430D+03 DE= 0.00D+00 F= -5.76D-04
 RMSU=  2.64D-05    CP:  4.59D-01  2.12D+00  3.00D+00  8.11D-01  3.00D+00
                    CP:  2.34D+00  2.83D+00 -1.14D-03  1.59D+00  1.54D+00
                    CP:  1.37D+00 -1.25D-01  1.06D+00  3.00D+00
     ILin= 2 X=8.000D-01 Y=-3.140132720620D+03 DE=-2.35D-04 F= -1.18D-05 OKLS=T
     Reject lnstep IMin12=  1  2 Big=T Turn=F Min= 8.398D-01 FVal=-3.140132720909D+03 Lims=  0.00D+00  8.00D-01
 RMSU=  5.84D-07    CP:  4.57D-01  2.11D+00  3.00D+00  8.13D-01  3.00D+00
                    CP:  2.36D+00  2.92D+00 -1.08D-03  1.67D+00  1.79D+00
                    CP:  1.66D+00 -1.95D-02  1.25D+00  3.00D+00  1.99D+00
     ILin= 3 X=1.600D+00 Y=-3.140132504557D+03 DE=-1.91D-05 F=  5.52D-04
     An  expanding polynomial of degree  3 produced  0.8170
     Minimum is close to point  2 DX=  1.70D-02 DF= -1.01D-07 DXR=  2.08D-02 DFR=  4.31D-04 which will be used.
 Iteration   7 EE= -3140.13272062015     Delta-E=       -0.000235189691 Grad=1.035D-02 Max rot=    0.0338 deg.
 Gradient too large for Newton-Raphson -- use scaled steepest descent instead.
 Alpha Gap=     0.463 HL deriv= 3.59D-05
     ILin= 1 X=0.000D+00 Y=-3.140132720620D+03 DE= 0.00D+00 F= -2.06D-04
 RMSU=  1.25D-05    CP:  4.59D-01  2.11D+00  3.00D+00  8.12D-01  3.00D+00
                    CP:  2.35D+00  2.87D+00 -1.17D-03  1.65D+00  1.56D+00
                    CP:  1.37D+00 -1.41D-01  1.44D+00 -7.05D-01  1.27D+00
                    CP: -1.90D+00
     ILin= 2 X=8.000D-01 Y=-3.140132788150D+03 DE=-6.75D-05 F=  3.68D-05 OKLS=T
     Accept linear search using points  1 and  2.
     An  expanding polynomial of degree  2 produced  0.6234
 RMSU=  1.06D-07    CP:  4.59D-01  2.12D+00  3.00D+00  8.12D-01  3.00D+00
                    CP:  2.35D+00  2.86D+00 -1.16D-03  1.63D+00  1.55D+00
                    CP:  1.37D+00 -1.37D-01  1.36D+00  9.30D-01  1.21D+00
                    CP: -1.43D+00  7.80D-01
 Iteration   8 EE= -3140.13278991935     Delta-E=       -0.000069299196 Grad=4.774D-03 Max rot=    0.0171 deg.
 SCF Done:  E(RHF) =  -3140.13278992     a.u. after    8 cycles
            Convg  =    0.4774D-02                    18 Fock formations.
              S**2 =  0.0000                  -V/T =  2.0001
 Leave Link  508 at Sat Oct 30 00:19:15 2021, MaxMem=  7864320000 cpu:         1666221.5 elap:           52568.6
 (Enter /apps/gaussian/g16-c01-avx/g16/l502.exe)
 Integral symmetry usage will be decided dynamically.
 Closed shell SCF:
 Using DIIS extrapolation, IDIIS=  1040.
 NGot=  7864320000 LenX=  7848237812 LenY=  7840254362
 Requested convergence on RMS density matrix=1.00D-08 within 128 cycles.
 Requested convergence on MAX density matrix=1.00D-06.
 Requested convergence on             energy=1.00D-06.
 No special actions if energy rises.
 Fock matrices will be formed incrementally for  20 cycles.

 Cycle   1  Pass 1  IDiag  1:
 FoFJK:  IHMeth= 1 ICntrl=       0 DoSepK=F KAlg= 0 I1Cent=           0 FoldK=F
 IRaf= 910000000 NMat=       1 IRICut=       1 DoRegI=T DoRafI=F ISym2E= 0 IDoP0=0 IntGTp=1.
 FoFCou: FMM=T IPFlag=           0 FMFlag=      100000 FMFlg1=        2001
         NFxFlg=           0 DoJE=F BraDBF=F KetDBF=F FulRan=T
         wScrn=  0.000000 ICntrl=         0 IOpCl=  0 I1Cent=           0 NGrid=           0
         NMat0=    1 NMatS0=      1 NMatT0=    0 NMatD0=    1 NMtDS0=    0 NMtDT0=    0
 Symmetry not used in FoFCou.
 FMM levels:  10  Number of levels for PrismC:   9
 E= -3140.13278985177    
 DIIS: error= 2.43D-05 at cycle   1 NSaved=   1.
 NSaved= 1 IEnMin= 1 EnMin= -3140.13278985177     IErMin= 1 ErrMin= 2.43D-05
 ErrMax= 2.43D-05  0.00D+00 EMaxC= 1.00D-01 BMatC= 1.14D-05 BMatP= 1.14D-05
 IDIUse=1 WtCom= 1.00D+00 WtEn= 0.00D+00
 Coeff-Com:  0.100D+01
 Coeff:      0.100D+01
 Gap=     0.463 Goal=   None    Shift=    0.000
 RMSDP=5.85D-05 MaxDP=9.84D-03              OVMax= 1.29D-03

 Cycle   2  Pass 1  IDiag  1:
 RMSU=  5.06D-05    CP:  9.99D-01
 E= -3140.13281911589     Delta-E=       -0.000029264120 Rises=F Damp=F
 DIIS: error= 1.28D-05 at cycle   2 NSaved=   2.
 NSaved= 2 IEnMin= 2 EnMin= -3140.13281911589     IErMin= 2 ErrMin= 1.28D-05
 ErrMax= 1.28D-05  0.00D+00 EMaxC= 1.00D-01 BMatC= 4.47D-06 BMatP= 1.14D-05
 IDIUse=1 WtCom= 1.00D+00 WtEn= 0.00D+00
 Coeff-Com:  0.285D+00 0.715D+00
 Coeff:      0.285D+00 0.715D+00
 Gap=     0.333 Goal=   None    Shift=    0.000
 RMSDP=1.10D-05 MaxDP=1.04D-03 DE=-2.93D-05 OVMax= 5.85D-04

 Cycle   3  Pass 1  IDiag  1:
 RMSU=  9.46D-06    CP:  9.99D-01  1.11D+00
 E= -3140.13282589022     Delta-E=       -0.000006774331 Rises=F Damp=F
 DIIS: error= 6.77D-06 at cycle   3 NSaved=   3.
 NSaved= 3 IEnMin= 3 EnMin= -3140.13282589022     IErMin= 3 ErrMin= 6.77D-06
 ErrMax= 6.77D-06  0.00D+00 EMaxC= 1.00D-01 BMatC= 9.03D-07 BMatP= 4.47D-06
 IDIUse=1 WtCom= 1.00D+00 WtEn= 0.00D+00
 Coeff-Com: -0.266D+00 0.786D-01 0.119D+01
 Coeff:     -0.266D+00 0.786D-01 0.119D+01
 Gap=     0.333 Goal=   None    Shift=    0.000
 RMSDP=1.12D-05 MaxDP=1.54D-03 DE=-6.77D-06 OVMax= 6.81D-04

 Cycle   4  Pass 1  IDiag  1:
 RMSU=  6.11D-06    CP:  9.99D-01  1.27D+00  1.34D+00
 E= -3140.13282954799     Delta-E=       -0.000003657769 Rises=F Damp=F
 DIIS: error= 2.96D-06 at cycle   4 NSaved=   4.
 NSaved= 4 IEnMin= 4 EnMin= -3140.13282954799     IErMin= 4 ErrMin= 2.96D-06
 ErrMax= 2.96D-06  0.00D+00 EMaxC= 1.00D-01 BMatC= 1.08D-07 BMatP= 9.03D-07
 IDIUse=1 WtCom= 1.00D+00 WtEn= 0.00D+00
 Coeff-Com:  0.114D+00-0.117D+00-0.554D+00 0.156D+01
 Coeff:      0.114D+00-0.117D+00-0.554D+00 0.156D+01
 Gap=     0.333 Goal=   None    Shift=    0.000
 RMSDP=4.56D-06 MaxDP=6.75D-04 DE=-3.66D-06 OVMax= 3.76D-04

 Cycle   5  Pass 1  IDiag  1:
 RMSU=  3.04D-06    CP:  9.99D-01  1.26D+00  1.53D+00  1.44D+00
 E= -3140.13283025088     Delta-E=       -0.000000702894 Rises=F Damp=F
 DIIS: error= 1.66D-06 at cycle   5 NSaved=   5.
 NSaved= 5 IEnMin= 5 EnMin= -3140.13283025088     IErMin= 5 ErrMin= 1.66D-06
 ErrMax= 1.66D-06  0.00D+00 EMaxC= 1.00D-01 BMatC= 2.64D-08 BMatP= 1.08D-07
 IDIUse=1 WtCom= 1.00D+00 WtEn= 0.00D+00
 Coeff-Com:  0.805D-01-0.488D-01-0.362D+00 0.366D+00 0.964D+00
 Coeff:      0.805D-01-0.488D-01-0.362D+00 0.366D+00 0.964D+00
 Gap=     0.333 Goal=   None    Shift=    0.000
 RMSDP=1.95D-06 MaxDP=2.93D-04 DE=-7.03D-07 OVMax= 1.52D-04

 Cycle   6  Pass 1  IDiag  1:
 RMSU=  1.13D-06    CP:  9.99D-01  1.26D+00  1.55D+00  1.65D+00  1.31D+00
 E= -3140.13283038181     Delta-E=       -0.000000130924 Rises=F Damp=F
 DIIS: error= 6.34D-07 at cycle   6 NSaved=   6.
 NSaved= 6 IEnMin= 6 EnMin= -3140.13283038181     IErMin= 6 ErrMin= 6.34D-07
 ErrMax= 6.34D-07  0.00D+00 EMaxC= 1.00D-01 BMatC= 5.33D-09 BMatP= 2.64D-08
 IDIUse=1 WtCom= 1.00D+00 WtEn= 0.00D+00
 Coeff-Com: -0.242D-01 0.237D-01 0.129D+00-0.418D+00 0.946D-01 0.119D+01
 Coeff:     -0.242D-01 0.237D-01 0.129D+00-0.418D+00 0.946D-01 0.119D+01
 Gap=     0.333 Goal=   None    Shift=    0.000
 RMSDP=1.09D-06 MaxDP=1.12D-04 DE=-1.31D-07 OVMax= 9.58D-05

 Cycle   7  Pass 1  IDiag  1:
 RMSU=  4.84D-07    CP:  9.99D-01  1.26D+00  1.58D+00  1.71D+00  1.56D+00
                    CP:  1.31D+00
 E= -3140.13283041167     Delta-E=       -0.000000029861 Rises=F Damp=F
 DIIS: error= 1.84D-07 at cycle   7 NSaved=   7.
 NSaved= 7 IEnMin= 7 EnMin= -3140.13283041167     IErMin= 7 ErrMin= 1.84D-07
 ErrMax= 1.84D-07  0.00D+00 EMaxC= 1.00D-01 BMatC= 7.36D-10 BMatP= 5.33D-09
 IDIUse=1 WtCom= 1.00D+00 WtEn= 0.00D+00
 Coeff-Com: -0.170D-01 0.114D-01 0.872D-01-0.177D+00-0.784D-01 0.376D+00
 Coeff-Com:  0.798D+00
 Coeff:     -0.170D-01 0.114D-01 0.872D-01-0.177D+00-0.784D-01 0.376D+00
 Coeff:      0.798D+00
 Gap=     0.333 Goal=   None    Shift=    0.000
 RMSDP=2.57D-07 MaxDP=2.51D-05 DE=-2.99D-08 OVMax= 1.56D-05

 Cycle   8  Pass 1  IDiag  1:
 RMSU=  1.93D-07    CP:  9.99D-01  1.26D+00  1.59D+00  1.71D+00  1.60D+00
                    CP:  1.36D+00  1.15D+00
 E= -3140.13283041320     Delta-E=       -0.000000001535 Rises=F Damp=F
 DIIS: error= 5.49D-08 at cycle   8 NSaved=   8.
 NSaved= 8 IEnMin= 8 EnMin= -3140.13283041320     IErMin= 8 ErrMin= 5.49D-08
 ErrMax= 5.49D-08  0.00D+00 EMaxC= 1.00D-01 BMatC= 9.00D-11 BMatP= 7.36D-10
 IDIUse=1 WtCom= 1.00D+00 WtEn= 0.00D+00
 Coeff-Com:  0.412D-02-0.562D-02-0.190D-01 0.669D-01-0.135D-01-0.193D+00
 Coeff-Com:  0.411D-04 0.116D+01
 Coeff:      0.412D-02-0.562D-02-0.190D-01 0.669D-01-0.135D-01-0.193D+00
 Coeff:      0.411D-04 0.116D+01
 Gap=     0.333 Goal=   None    Shift=    0.000
 RMSDP=1.28D-07 MaxDP=1.54D-05 DE=-1.54D-09 OVMax= 7.68D-06

 Cycle   9  Pass 1  IDiag  1:
 RMSU=  7.21D-08    CP:  9.99D-01  1.26D+00  1.59D+00  1.72D+00  1.59D+00
                    CP:  1.39D+00  1.30D+00  1.10D+00
 E= -3140.13283041440     Delta-E=       -0.000000001201 Rises=F Damp=F
 DIIS: error= 2.40D-08 at cycle   9 NSaved=   9.
 NSaved= 9 IEnMin= 9 EnMin= -3140.13283041440     IErMin= 9 ErrMin= 2.40D-08
 ErrMax= 2.40D-08  0.00D+00 EMaxC= 1.00D-01 BMatC= 1.84D-11 BMatP= 9.00D-11
 IDIUse=1 WtCom= 1.00D+00 WtEn= 0.00D+00
 Coeff-Com:  0.258D-02-0.269D-02-0.122D-01 0.295D-01 0.619D-02-0.701D-01
 Coeff-Com: -0.101D+00 0.135D+00 0.101D+01
 Coeff:      0.258D-02-0.269D-02-0.122D-01 0.295D-01 0.619D-02-0.701D-01
 Coeff:     -0.101D+00 0.135D+00 0.101D+01
 Gap=     0.333 Goal=   None    Shift=    0.000
 RMSDP=1.06D-07 MaxDP=6.72D-06 DE=-1.20D-09 OVMax= 2.73D-06

 Cycle  10  Pass 1  IDiag  1:
 RMSU=  8.45D-08    CP:  9.99D-01  1.26D+00  1.59D+00  1.72D+00  1.60D+00
                    CP:  1.40D+00  1.30D+00  1.32D+00  1.12D+00
 E= -3140.13283041311     Delta-E=        0.000000001295 Rises=F Damp=F
 DIIS: error= 1.40D-08 at cycle  10 NSaved=  10.
 NSaved=10 IEnMin= 9 EnMin= -3140.13283041440     IErMin=10 ErrMin= 1.40D-08
 ErrMax= 1.40D-08  0.00D+00 EMaxC= 1.00D-01 BMatC= 3.62D-12 BMatP= 1.84D-11
 IDIUse=1 WtCom= 1.00D+00 WtEn= 0.00D+00
 Coeff-Com: -0.861D-03 0.997D-03 0.458D-02-0.151D-01 0.288D-02 0.463D-01
 Coeff-Com: -0.506D-02-0.281D+00 0.313D-01 0.122D+01
 Coeff:     -0.861D-03 0.997D-03 0.458D-02-0.151D-01 0.288D-02 0.463D-01
 Coeff:     -0.506D-02-0.281D+00 0.313D-01 0.122D+01
 Gap=     0.333 Goal=   None    Shift=    0.000
 RMSDP=1.07D-07 MaxDP=1.29D-05 DE= 1.30D-09 OVMax= 1.52D-06

 Cycle  11  Pass 1  IDiag  1:
 RMSU=  8.25D-08    CP:  9.99D-01  1.26D+00  1.59D+00  1.72D+00  1.61D+00
                    CP:  1.41D+00  1.30D+00  1.35D+00  1.63D+00  1.50D+00
 E= -3140.13283041556     Delta-E=       -0.000000002452 Rises=F Damp=F
 DIIS: error= 1.18D-08 at cycle  11 NSaved=  11.
 NSaved=11 IEnMin=11 EnMin= -3140.13283041556     IErMin=11 ErrMin= 1.18D-08
 ErrMax= 1.18D-08  0.00D+00 EMaxC= 1.00D-01 BMatC= 8.00D-13 BMatP= 3.62D-12
 IDIUse=1 WtCom= 1.00D+00 WtEn= 0.00D+00
 Coeff-Com: -0.589D-03 0.610D-03 0.301D-02-0.787D-02-0.483D-03 0.221D-01
 Coeff-Com:  0.167D-01-0.841D-01-0.172D+00 0.324D+00 0.899D+00
 Coeff:     -0.589D-03 0.610D-03 0.301D-02-0.787D-02-0.483D-03 0.221D-01
 Coeff:      0.167D-01-0.841D-01-0.172D+00 0.324D+00 0.899D+00
 Gap=     0.333 Goal=   None    Shift=    0.000
 RMSDP=2.81D-07 MaxDP=1.83D-05 DE=-2.45D-09 OVMax= 5.79D-07

 Cycle  12  Pass 1  IDiag  1:
 RMSU=  1.28D-07    CP:  9.99D-01  1.26D+00  1.59D+00  1.73D+00  1.63D+00
                    CP:  1.40D+00  1.21D+00  1.75D+00  1.45D+00  3.00D+00
                    CP:  1.83D+00
 E= -3140.13283041686     Delta-E=       -0.000000001302 Rises=F Damp=F
 DIIS: error= 3.10D-08 at cycle  12 NSaved=  12.
 NSaved=12 IEnMin=12 EnMin= -3140.13283041686     IErMin=11 ErrMin= 1.18D-08
 ErrMax= 3.10D-08  0.00D+00 EMaxC= 1.00D-01 BMatC= 5.42D-13 BMatP= 8.00D-13
 IDIUse=1 WtCom= 1.00D+00 WtEn= 0.00D+00
 Coeff-Com: -0.346D-03 0.359D-03 0.176D-02-0.451D-02-0.501D-03 0.125D-01
 Coeff-Com:  0.116D-01-0.430D-01-0.119D+00 0.166D+00 0.593D+00 0.383D+00
 Coeff:     -0.346D-03 0.359D-03 0.176D-02-0.451D-02-0.501D-03 0.125D-01
 Coeff:      0.116D-01-0.430D-01-0.119D+00 0.166D+00 0.593D+00 0.383D+00
 Gap=     0.333 Goal=   None    Shift=    0.000
 RMSDP=1.49D-07 MaxDP=1.51D-05 DE=-1.30D-09 OVMax= 8.34D-08

 Cycle  13  Pass 1  IDiag  1:
 RMSU=  4.46D-08    CP:  9.99D-01  1.26D+00  1.59D+00  1.73D+00  1.64D+00
                    CP:  1.40D+00  1.18D+00  1.88D+00  1.62D+00  3.00D+00
                    CP:  2.84D+00  1.73D+00
 E= -3140.13283041734     Delta-E=       -0.000000000473 Rises=F Damp=F
 DIIS: error= 3.91D-08 at cycle  13 NSaved=  13.
 NSaved=13 IEnMin=13 EnMin= -3140.13283041734     IErMin=11 ErrMin= 1.18D-08
 ErrMax= 3.91D-08  0.00D+00 EMaxC= 1.00D-01 BMatC= 8.35D-13 BMatP= 5.42D-13
 IDIUse=1 WtCom= 1.00D+00 WtEn= 0.00D+00
 Coeff-Com: -0.184D-03 0.168D-03 0.889D-03-0.165D-02-0.119D-02 0.364D-02
 Coeff-Com:  0.130D-01 0.104D-01-0.133D+00-0.564D-01 0.590D+00 0.217D+01
 Coeff-Com: -0.159D+01
 Coeff:     -0.184D-03 0.168D-03 0.889D-03-0.165D-02-0.119D-02 0.364D-02
 Coeff:      0.130D-01 0.104D-01-0.133D+00-0.564D-01 0.590D+00 0.217D+01
 Coeff:     -0.159D+01
 Gap=     0.333 Goal=   None    Shift=    0.000
 RMSDP=4.45D-07 MaxDP=3.60D-05 DE=-4.73D-10 OVMax= 7.48D-08

 Cycle  14  Pass 1  IDiag  1:
 RMSU=  3.76D-08    CP:  9.99D-01  1.26D+00  1.59D+00  1.72D+00  1.60D+00
                    CP:  1.41D+00  1.31D+00  1.31D+00  1.72D+00  1.32D+00
                    CP:  1.11D+00 -1.09D-01  1.14D-01
 E= -3140.13283041623     Delta-E=        0.000000001106 Rises=F Damp=F
 DIIS: error= 9.87D-09 at cycle  14 NSaved=  14.
 NSaved=14 IEnMin=13 EnMin= -3140.13283041734     IErMin=14 ErrMin= 9.87D-09
 ErrMax= 9.87D-09  0.00D+00 EMaxC= 1.00D-01 BMatC= 2.28D-13 BMatP= 5.42D-13
 IDIUse=1 WtCom= 1.00D+00 WtEn= 0.00D+00
 Coeff-Com:  0.133D-03-0.151D-03-0.751D-03 0.251D-02-0.852D-03-0.800D-02
 Coeff-Com:  0.323D-02 0.517D-01-0.310D-01-0.206D+00 0.573D-01 0.178D+01
 Coeff-Com: -0.159D+01 0.944D+00
 Coeff:      0.133D-03-0.151D-03-0.751D-03 0.251D-02-0.852D-03-0.800D-02
 Coeff:      0.323D-02 0.517D-01-0.310D-01-0.206D+00 0.573D-01 0.178D+01
 Coeff:     -0.159D+01 0.944D+00
 Gap=     0.333 Goal=   None    Shift=    0.000
 RMSDP=1.50D-07 MaxDP=1.84D-05 DE= 1.11D-09 OVMax= 1.39D-07

 Cycle  15  Pass 1  IDiag  1:
 RMSU=  5.49D-08    CP:  9.99D-01  1.26D+00  1.59D+00  1.72D+00  1.60D+00
                    CP:  1.40D+00  1.33D+00  1.23D+00  1.44D+00  4.67D-01
                    CP: -1.05D-01 -2.66D-01  1.58D-01  1.43D+00
 E= -3140.13283041473     Delta-E=        0.000000001499 Rises=F Damp=F
 DIIS: error= 3.85D-09 at cycle  15 NSaved=  15.
 NSaved=15 IEnMin=13 EnMin= -3140.13283041734     IErMin=15 ErrMin= 3.85D-09
 ErrMax= 3.85D-09  0.00D+00 EMaxC= 1.00D-01 BMatC= 4.05D-14 BMatP= 2.28D-13
 IDIUse=1 WtCom= 1.00D+00 WtEn= 0.00D+00
 Coeff-Com:  0.918D-04-0.873D-04-0.508D-03 0.143D-02-0.163D-03-0.423D-02
 Coeff-Com: -0.613D-03 0.215D-01 0.787D-02-0.788D-01-0.746D-01 0.362D+00
 Coeff-Com: -0.371D+00 0.328D+00 0.809D+00
 Coeff:      0.918D-04-0.873D-04-0.508D-03 0.143D-02-0.163D-03-0.423D-02
 Coeff:     -0.613D-03 0.215D-01 0.787D-02-0.788D-01-0.746D-01 0.362D+00
 Coeff:     -0.371D+00 0.328D+00 0.809D+00
 Gap=     0.333 Goal=   None    Shift=    0.000
 RMSDP=6.68D-08 MaxDP=6.41D-06 DE= 1.50D-09 OVMax= 8.16D-08

 Cycle  16  Pass 1  IDiag  1:
 RMSU=  4.59D-08    CP:  9.99D-01  1.26D+00  1.59D+00  1.72D+00  1.59D+00
                    CP:  1.40D+00  1.35D+00  1.16D+00  1.61D+00  1.12D-01
                    CP: -3.73D-02 -3.98D-01  4.30D-01  1.54D+00  1.31D+00
 E= -3140.13283041387     Delta-E=        0.000000000866 Rises=F Damp=F
 DIIS: error= 5.20D-09 at cycle  16 NSaved=  16.
 NSaved=16 IEnMin=13 EnMin= -3140.13283041734     IErMin=15 ErrMin= 3.85D-09
 ErrMax= 5.20D-09  0.00D+00 EMaxC= 1.00D-01 BMatC= 2.87D-14 BMatP= 4.05D-14
 IDIUse=1 WtCom= 1.00D+00 WtEn= 0.00D+00
 Coeff-Com:  0.336D-04-0.258D-04-0.193D-03 0.517D-03-0.296D-04-0.152D-02
 Coeff-Com: -0.214D-03 0.744D-02 0.305D-02-0.254D-01-0.294D-01 0.736D-01
 Coeff-Com: -0.467D-01-0.710D-03 0.386D+00 0.634D+00
 Coeff:      0.336D-04-0.258D-04-0.193D-03 0.517D-03-0.296D-04-0.152D-02
 Coeff:     -0.214D-03 0.744D-02 0.305D-02-0.254D-01-0.294D-01 0.736D-01
 Coeff:     -0.467D-01-0.710D-03 0.386D+00 0.634D+00
 Gap=     0.333 Goal=   None    Shift=    0.000
 RMSDP=4.83D-08 MaxDP=4.40D-06 DE= 8.66D-10 OVMax= 3.36D-08

 Cycle  17  Pass 1  IDiag  1:
 RMSU=  2.93D-08    CP:  9.99D-01  1.26D+00  1.59D+00  1.72D+00  1.59D+00
                    CP:  1.40D+00  1.35D+00  1.16D+00  1.70D+00  1.95D-01
                    CP:  1.39D-01 -4.50D-01  4.94D-01  1.69D+00  1.73D+00
                    CP:  1.50D+00
 E= -3140.13283041323     Delta-E=        0.000000000633 Rises=F Damp=F
 DIIS: error= 7.47D-09 at cycle  17 NSaved=  17.
 NSaved=17 IEnMin=13 EnMin= -3140.13283041734     IErMin=15 ErrMin= 3.85D-09
 ErrMax= 7.47D-09  0.00D+00 EMaxC= 1.00D-01 BMatC= 4.11D-14 BMatP= 2.87D-14
 IDIUse=1 WtCom= 1.00D+00 WtEn= 0.00D+00
 Coeff-Com:  0.340D-04-0.256D-04-0.195D-03 0.517D-03-0.206D-04-0.150D-02
 Coeff-Com: -0.273D-03 0.721D-02 0.368D-02-0.242D-01-0.321D-01 0.557D-01
 Coeff-Com: -0.308D-01-0.892D-02 0.411D+00 0.697D+00-0.770D-01
 Coeff:      0.340D-04-0.256D-04-0.195D-03 0.517D-03-0.206D-04-0.150D-02
 Coeff:     -0.273D-03 0.721D-02 0.368D-02-0.242D-01-0.321D-01 0.557D-01
 Coeff:     -0.308D-01-0.892D-02 0.411D+00 0.697D+00-0.770D-01
 Gap=     0.333 Goal=   None    Shift=    0.000
 RMSDP=5.78D-09 MaxDP=6.74D-07 DE= 6.33D-10 OVMax= 1.04D-09

 SCF Done:  E(RHF) =  -3140.13283041     A.U. after   17 cycles
            NFock= 17  Conv=0.58D-08     -V/T= 2.0001
 KE= 3.139763206159D+03 PE=-3.576204529655D+04 EE= 1.526062016070D+04
 Leave Link  502 at Sat Oct 30 10:34:06 2021, MaxMem=  7864320000 cpu:         1169874.0 elap:           36890.7
 (Enter /apps/gaussian/g16-c01-avx/g16/l508.exe)
 QCSCF skips out because SCF is already converged.
 Leave Link  508 at Sat Oct 30 10:34:07 2021, MaxMem=  7864320000 cpu:               1.3 elap:               0.1
 (Enter /apps/gaussian/g16-c01-avx/g16/l801.exe)
 ExpMin= 2.97D-02 ExpMax= 9.05D+03 ExpMxC= 3.09D+02 IAcc=3 IRadAn=         7 AccDes= 0.00D+00
 HarFok:  IExCor=  205 AccDes= 0.00D+00 IRadAn=         7 IDoV=-2 UseB2=F ITyADJ=14
 ICtDFT= 12500011 ScaDFX=  1.000000  1.000000  1.000000  1.000000
 GSVD:  LWork=       -6545 too small for GESVD, short by       30800 words or       30800 for optimal perf.
 Largest valence mixing into a core orbital is  1.12D-04
 Largest core mixing into a valence orbital is  4.62D-05
 Range of M.O.s used for correlation:    78  2627
 NBasis=  2671 NAE=   286 NBE=   286 NFC=    77 NFV=     0
 NROrb=   2550 NOA=   209 NOB=   209 NVA=  2341 NVB=  2341

 **** Warning!!: The largest alpha MO coefficient is  0.15639699D+03

 Leave Link  801 at Sat Oct 30 10:34:10 2021, MaxMem=  7864320000 cpu:             108.5 elap:               3.5
 (Enter /apps/gaussian/g16-c01-avx/g16/l906.exe)
 FulOut=F Deriv=F AODrv=F NAtomX=   177
   MMem=           0  MDisk=         209 MDiskD=         209
  W3Min=  1382184925 MinDsk=  1213265454 NBas6D=        2825
 NBas2D=     3995328    NTT=     3991725    LW2=     2000000
    MDV=  7829030051 MDiskM=       38480 NBas2p=     2506725
 Disk-based method using OVN memory for209 occupieds at a time.
 Estimated scratch disk usage=************ words.
 IMap=   1   2   3   4   5   6   7   8   9  10  11  12  13  14  15  16  17  18  19  20
 IMap=  21  22  23  24  25  26  27  28  29  30  31  32  33  34  35  36  37  38  39  40
 IMap=  41  42  43  44  45  46  47  48  49  50  51  52  53  54  55  56  57  58  59  60
 IMap=  61  62  63  64  65  66  67  68  69  70  71  72  73  74  75  76  77  78  79  80
 IMap=  81  82  83  84  85  86  87  88  89  90  91  92  93  94  95  96  97  98  99 100
 IMap= 101 102 103 104 105 106 107 108 109 110 111 112 113 114 115 116 117 118 119 120
 IMap= 121 122 123 124 125 126 127 128 129 130 131 132 133 134 135 136 137 138 139 140
 IMap= 141 142 143 144 145 146 147 148 149 150 151 152 153 154 155 156 157 158 159 160
 IMap= 161 162 163 164 165 166 167 168 169 170 171 172 173 174 175 176 177 178 179 180
 IMap= 181 182 183 184 185 186 187 188 189 190 191 192 193 194 195 196 197 198 199 200
 IMap= 201 202 203 204 205 206 207 208 209
 Actual    scratch disk usage=************ words.
 JobTyp=1 Pass  1:  I=   1 to 209 NPSUse= 32 ParTrn=T ParDer=T DoDerP=F.
