 Entering Gaussian System, Link 0=g16
 Initial command:
 /apps/gaussian/g16-c01-avx/g16/l1.exe "/rds/general/ephemeral/user/atarzia/ephemeral/Gau-1819576.inp" -scrdir="/rds/general/ephemeral/user/atarzia/ephemeral/"
 Entering Link 1 = /apps/gaussian/g16-c01-avx/g16/l1.exe PID=   1819577.
  
 Copyright (c) 1988-2019, Gaussian, Inc.  All Rights Reserved.
  
 This is part of the Gaussian(R) 16 program.  It is based on
 the Gaussian(R) 09 system (copyright 2009, Gaussian, Inc.),
 the Gaussian(R) 03 system (copyright 2003, Gaussian, Inc.),
 the Gaussian(R) 98 system (copyright 1998, Gaussian, Inc.),
 the Gaussian(R) 94 system (copyright 1995, Gaussian, Inc.),
 the Gaussian 92(TM) system (copyright 1992, Gaussian, Inc.),
 the Gaussian 90(TM) system (copyright 1990, Gaussian, Inc.),
 the Gaussian 88(TM) system (copyright 1988, Gaussian, Inc.),
 the Gaussian 86(TM) system (copyright 1986, Carnegie Mellon
 University), and the Gaussian 82(TM) system (copyright 1983,
 Carnegie Mellon University). Gaussian is a federally registered
 trademark of Gaussian, Inc.
  
 This software contains proprietary and confidential information,
 including trade secrets, belonging to Gaussian, Inc.
  
 This software is provided under written license and may be
 used, copied, transmitted, or stored only in accord with that
 written license.
  
 The following legend is applicable only to US Government
 contracts under FAR:
  
                    RESTRICTED RIGHTS LEGEND
  
 Use, reproduction and disclosure by the US Government is
 subject to restrictions as set forth in subparagraphs (a)
 and (c) of the Commercial Computer Software - Restricted
 Rights clause in FAR 52.227-19.
  
 Gaussian, Inc.
 340 Quinnipiac St., Bldg. 40, Wallingford CT 06492
  
  
 ---------------------------------------------------------------
 Warning -- This program may not be used in any manner that
 competes with the business of Gaussian, Inc. or will provide
 assistance to any competitor of Gaussian, Inc.  The licensee
 of this program is prohibited from giving any competitor of
 Gaussian, Inc. access to this program.  By using this program,
 the user acknowledges that Gaussian, Inc. is engaged in the
 business of creating and licensing software in the field of
 computational chemistry and represents and warrants to the
 licensee that it is not a competitor of Gaussian, Inc. and that
 it will not use this program in any manner prohibited above.
 ---------------------------------------------------------------
  

 Cite this work as:
 Gaussian 16, Revision C.01,
 M. J. Frisch, G. W. Trucks, H. B. Schlegel, G. E. Scuseria, 
 M. A. Robb, J. R. Cheeseman, G. Scalmani, V. Barone, 
 G. A. Petersson, H. Nakatsuji, X. Li, M. Caricato, A. V. Marenich, 
 J. Bloino, B. G. Janesko, R. Gomperts, B. Mennucci, H. P. Hratchian, 
 J. V. Ortiz, A. F. Izmaylov, J. L. Sonnenberg, D. Williams-Young, 
 F. Ding, F. Lipparini, F. Egidi, J. Goings, B. Peng, A. Petrone, 
 T. Henderson, D. Ranasinghe, V. G. Zakrzewski, J. Gao, N. Rega, 
 G. Zheng, W. Liang, M. Hada, M. Ehara, K. Toyota, R. Fukuda, 
 J. Hasegawa, M. Ishida, T. Nakajima, Y. Honda, O. Kitao, H. Nakai, 
 T. Vreven, K. Throssell, J. A. Montgomery, Jr., J. E. Peralta, 
 F. Ogliaro, M. J. Bearpark, J. J. Heyd, E. N. Brothers, K. N. Kudin, 
 V. N. Staroverov, T. A. Keith, R. Kobayashi, J. Normand, 
 K. Raghavachari, A. P. Rendell, J. C. Burant, S. S. Iyengar, 
 J. Tomasi, M. Cossi, J. M. Millam, M. Klene, C. Adamo, R. Cammi, 
 J. W. Ochterski, R. L. Martin, K. Morokuma, O. Farkas, 
 J. B. Foresman, and D. J. Fox, Gaussian, Inc., Wallingford CT, 2019.
 
 ******************************************
 Gaussian 16:  ES64L-G16RevC.01  3-Jul-2019
                18-Oct-2021 
 ******************************************
 %chk=_3_alde1_4_ami1_1_opt_gas.chk
 %mem=60000mb
 %nprocshared=32
 Will use up to   32 processors via shared memory.
 ----------------------------------------------------------------------
 #P PBE1PBE/Def2TZVP SP SCF=(YQC,MaxCycle=900) int=(Grid=Superfinegrid)
  EmpiricalDispersion=GD3
 ----------------------------------------------------------------------
 1/38=1,172=1/1;
 2/12=2,17=6,18=5,40=1/2;
 3/5=44,7=101,11=2,25=1,30=1,74=-13,75=-7,124=31/1,2,3;
 4//1;
 5/5=2,7=900,8=4,13=1,38=1/8,2,8;
 6/7=2,8=2,9=2,10=2,28=1/1;
 99/5=1,9=1/99;
 Leave Link    1 at Mon Oct 18 08:48:25 2021, MaxMem=  7864320000 cpu:               8.1 elap:               0.3
 (Enter /apps/gaussian/g16-c01-avx/g16/l101.exe)
 -------------------------
 _3_alde1_4_ami1_1_opt_gas
 -------------------------
 Symbolic Z-matrix:
 Charge =  0 Multiplicity = 1
 C                    -3.5566   -1.7611   -0.8335 
 C                    -3.724    -1.4111    0.5693 
 C                    -2.8403   -2.8934   -1.2165 
 C                    -2.6275   -3.1775   -2.5613 
 H                    -2.4555   -3.5419   -0.4443 
 C                    -3.0905   -2.2876   -3.5309 
 C                    -3.8089   -1.1559   -3.1645 
 H                    -2.8845   -2.5056   -4.5678 
 C                    -4.0652   -0.9185   -1.8148 
 C                    -4.2275   -0.1836   -4.1656 
 H                    -4.6407   -0.0451   -1.5522 
 C                    -1.9077   -4.384    -2.9373 
 H                    -3.7342   -0.2704   -5.1467 
 H                    -4.4117   -0.576     0.7687 
 H                    -1.5974   -5.0277   -2.0997 
 C                     1.3972   -2.395     0.1117 
 C                     0.8464   -2.802     1.4087 
 C                     2.1787   -1.2426    0.0221 
 C                     2.6743   -0.8172   -1.205 
 H                     2.3962   -0.6923    0.9271 
 C                     2.3597   -1.5469   -2.351 
 C                     1.6028   -2.711    -2.2731 
 H                     2.7343   -1.1911   -3.2988 
 C                     1.1303   -3.1371   -1.0337 
 C                     1.2857   -3.4627   -3.482 
 H                     0.5435   -4.0409   -0.9844 
 C                     3.4862    0.3886   -1.2879 
 H                     1.3598   -2.9003   -4.4257 
 H                     0.3009   -3.7635    1.3855 
 H                     3.6555    0.9154   -0.3377 
 C                    -1.0512    1.4309   -0.0341 
 C                    -1.0007    0.6185    1.1753 
 C                    -2.2796    1.7843   -0.5905 
 C                    -2.3481    2.422    -1.8237 
 H                    -3.176     1.5187   -0.0527 
 C                    -1.1671    2.7424   -2.4917 
 C                     0.0668    2.4571   -1.9185 
 H                    -1.2348    3.2238   -3.4555 
 C                     0.1174    1.7917   -0.6938 
 C                     1.2979    2.8077   -2.6145 
 H                     1.084     1.5544   -0.2784 
 C                    -3.6489    2.6749   -2.4247 
 H                     1.1932    3.0323   -3.6879 
 H                    -4.5131    2.4959   -1.7678 
 C                    -1.9726   -0.4938    2.9903 
 C                    -3.1774   -1.463     2.8223 
 N                    -2.0278    0.4015    1.8721 
 H                    -1.0426   -1.082     2.9784 
 C                    -2.0084    0.3144    4.3052 
 N                    -3.0845   -1.9881    1.4906 
 H                    -4.0919   -0.856     2.9347 
 C                    -3.2134   -2.6196    3.8344 
 H                    -2.1013   -0.3973    5.1311 
 C                    -3.1763    1.296     4.3557 
 C                    -0.6852    1.0603    4.4731 
 H                    -3.1588   -2.1985    4.8432 
 C                    -2.0572   -3.5942    3.6351 
 C                    -4.5465   -3.3558    3.6948 
 H                    -0.6595    1.5695    5.4341 
 H                    -0.5658    1.8034    3.687 
 H                     0.1522    0.3675    4.4264 
 H                    -3.1018    1.9149    5.2474 
 H                    -4.1292    0.7744    4.3857 
 H                    -3.1576    1.9388    3.4793 
 H                    -4.6418   -3.7628    2.6904 
 H                    -5.3823   -2.6822    3.8744 
 H                    -4.6056   -4.1739    4.4091 
 H                    -2.1457   -4.4245    4.3328 
 H                    -1.0997   -3.1093    3.7994 
 H                    -2.083    -3.9812    2.6205 
 O                     0.9419   -2.1677    2.4308 
 C                    -0.8763   -5.8538   -4.4111 
 C                     0.5779   -5.3609   -4.6398 
 N                    -1.6568   -4.6821   -4.1365 
 H                    -0.8547   -6.521    -3.5327 
 C                    -1.4909   -6.6083   -5.6023 
 N                     0.9478   -4.6744   -3.4391 
 H                     0.5759   -4.6715   -5.5018 
 C                     1.5855   -6.4943   -4.9193 
 H                    -0.8816   -7.4963   -5.7988 
 C                    -1.5475   -5.7447   -6.859 
 C                    -2.8972   -7.0696   -5.2189 
 H                     1.2472   -7.03     -5.8116 
 C                     1.6919   -7.4726   -3.7532 
 C                     2.9558   -5.8879   -5.2226 
 H                    -2.8698   -7.6899   -4.3252 
 H                    -3.3399   -7.6488   -6.0259 
 H                    -3.529    -6.2069   -5.0201 
 H                    -2.0206   -4.7952   -6.6255 
 H                    -2.1268   -6.2467   -7.6308 
 H                    -0.5522   -5.555    -7.2525 
 H                     3.6607   -6.67     -5.495 
 H                     3.3401   -5.3655   -4.3491 
 H                     2.8926   -5.1815   -6.0481 
 H                     1.8926   -6.9286   -2.8342 
 H                     2.5039   -8.1744   -3.9308 
 H                     0.7742   -8.0416   -3.6315 
 C                    -5.3601    1.7317   -4.8795 
 C                    -5.1119    3.0946   -4.1732 
 N                    -5.0644    0.7219   -3.9079 
 H                    -4.6744    1.6587   -5.7408 
 C                    -6.8053    1.5578   -5.3915 
 N                    -3.7863    3.0281   -3.6277 
 H                    -5.8581    3.177    -3.3652 
 C                    -5.2292    4.3208   -5.0935 
 H                    -7.0308    2.4017   -6.0511 
 C                    -7.822     1.5225   -4.2538 
 C                    -6.8986    0.2736   -6.2158 
 H                    -6.239     4.3406   -5.5162 
 C                    -4.2078    4.2875   -6.2269 
 C                    -5.0379    5.5834   -4.2528 
 H                    -6.6916   -0.5928   -5.591 
 H                    -6.1842    0.2872   -7.0367 
 H                    -7.8971    0.1666   -6.6333 
 H                    -7.8922    2.4865   -3.7572 
 H                    -7.5307    0.7723   -3.5235 
 H                    -8.8061    1.2713   -4.6435 
 H                    -4.0414    5.59     -3.817 
 H                    -5.767     5.6242   -3.4459 
 H                    -5.1565    6.4722   -4.8682 
 H                    -4.4446    3.5102   -6.9489 
 H                    -3.2192    4.0986   -5.8184 
 H                    -4.1983    5.2417   -6.749 
 C                     4.6522    2.0524   -2.4092 
 C                     3.6054    3.1576   -2.7344 
 N                     3.9598    0.7992   -2.3823 
 H                     5.069     2.2869   -1.4158 
 C                     5.7988    1.9894   -3.4335 
 N                     2.407     2.8448   -2.0197 
 H                     3.4282    3.1579   -3.8236 
 C                     4.0966    4.5636   -2.3217 
 H                     6.1608    3.0083   -3.6082 
 C                     5.3468    1.3888   -4.7619 
 C                     6.9429    1.1594   -2.8525 
 H                     5.1335    4.6681   -2.6581 
 C                     4.0427    4.7712   -0.8102 
 C                     3.2519    5.6266   -3.0221 
 H                     6.5963    0.1506   -2.6388 
 H                     7.3125    1.6012   -1.9292 
 H                     7.7679    1.1008   -3.5586 
 H                     4.571     1.992    -5.2255 
 H                     4.9538    0.3902   -4.5963 
 H                     6.1882    1.33     -5.4486 
 H                     3.596     6.6214   -2.7488 
 H                     2.2081    5.5322   -2.7286 
 H                     3.3194    5.5263   -4.1036 
 H                     4.3856    5.7732   -0.5618 
 H                     4.6759    4.0574   -0.2904 
 H                     3.0234    4.648    -0.4539 
 H                    -0.0238    0.1715    1.4071 
 
 ITRead=  0  0  0  0  0  0  0  0  0  0  0  0  0  0  0  0  0  0  0  0
 ITRead=  0  0  0  0  0  0  0  0  0  0  0  0  0  0  0  0  0  0  0  0
 ITRead=  0  0  0  0  0  0  0  0  0  0  0  0  0  0  0  0  0  0  0  0
 ITRead=  0  0  0  0  0  0  0  0  0  0  0  0  0  0  0  0  0  0  0  0
 ITRead=  0  0  0  0  0  0  0  0  0  0  0  0  0  0  0  0  0  0  0  0
 ITRead=  0  0  0  0  0  0  0  0  0  0  0  0  0  0  0  0  0  0  0  0
 ITRead=  0  0  0  0  0  0  0  0  0  0  0  0  0  0  0  0  0  0  0  0
 ITRead=  0  0  0  0  0  0  0  0  0  0
 MicOpt= -1 -1 -1 -1 -1 -1 -1 -1 -1 -1 -1 -1 -1 -1 -1 -1 -1 -1 -1 -1
 MicOpt= -1 -1 -1 -1 -1 -1 -1 -1 -1 -1 -1 -1 -1 -1 -1 -1 -1 -1 -1 -1
 MicOpt= -1 -1 -1 -1 -1 -1 -1 -1 -1 -1 -1 -1 -1 -1 -1 -1 -1 -1 -1 -1
 MicOpt= -1 -1 -1 -1 -1 -1 -1 -1 -1 -1 -1 -1 -1 -1 -1 -1 -1 -1 -1 -1
 MicOpt= -1 -1 -1 -1 -1 -1 -1 -1 -1 -1 -1 -1 -1 -1 -1 -1 -1 -1 -1 -1
 MicOpt= -1 -1 -1 -1 -1 -1 -1 -1 -1 -1 -1 -1 -1 -1 -1 -1 -1 -1 -1 -1
 MicOpt= -1 -1 -1 -1 -1 -1 -1 -1 -1 -1 -1 -1 -1 -1 -1 -1 -1 -1 -1 -1
 MicOpt= -1 -1 -1 -1 -1 -1 -1 -1 -1 -1
 NAtoms=    150 NQM=      150 NQMF=       0 NMMI=      0 NMMIF=      0
                NMic=       0 NMicF=      0.
                    Isotopes and Nuclear Properties:
 (Nuclear quadrupole moments (NQMom) in fm**2, nuclear magnetic moments (NMagM)
  in nuclear magnetons)

  Atom         1           2           3           4           5           6           7           8           9          10
 IAtWgt=          12          12          12          12           1          12          12           1          12          12
 AtmWgt=  12.0000000  12.0000000  12.0000000  12.0000000   1.0078250  12.0000000  12.0000000   1.0078250  12.0000000  12.0000000
 NucSpn=           0           0           0           0           1           0           0           1           0           0
 AtZEff=  -0.0000000  -0.0000000  -0.0000000  -0.0000000  -0.0000000  -0.0000000  -0.0000000  -0.0000000  -0.0000000  -0.0000000
 NQMom=    0.0000000   0.0000000   0.0000000   0.0000000   0.0000000   0.0000000   0.0000000   0.0000000   0.0000000   0.0000000
 NMagM=    0.0000000   0.0000000   0.0000000   0.0000000   2.7928460   0.0000000   0.0000000   2.7928460   0.0000000   0.0000000
 AtZNuc=   6.0000000   6.0000000   6.0000000   6.0000000   1.0000000   6.0000000   6.0000000   1.0000000   6.0000000   6.0000000

  Atom        11          12          13          14          15          16          17          18          19          20
 IAtWgt=           1          12           1           1           1          12          12          12          12           1
 AtmWgt=   1.0078250  12.0000000   1.0078250   1.0078250   1.0078250  12.0000000  12.0000000  12.0000000  12.0000000   1.0078250
 NucSpn=           1           0           1           1           1           0           0           0           0           1
 AtZEff=  -0.0000000  -0.0000000  -0.0000000  -0.0000000  -0.0000000  -0.0000000  -0.0000000  -0.0000000  -0.0000000  -0.0000000
 NQMom=    0.0000000   0.0000000   0.0000000   0.0000000   0.0000000   0.0000000   0.0000000   0.0000000   0.0000000   0.0000000
 NMagM=    2.7928460   0.0000000   2.7928460   2.7928460   2.7928460   0.0000000   0.0000000   0.0000000   0.0000000   2.7928460
 AtZNuc=   1.0000000   6.0000000   1.0000000   1.0000000   1.0000000   6.0000000   6.0000000   6.0000000   6.0000000   1.0000000

  Atom        21          22          23          24          25          26          27          28          29          30
 IAtWgt=          12          12           1          12          12           1          12           1           1           1
 AtmWgt=  12.0000000  12.0000000   1.0078250  12.0000000  12.0000000   1.0078250  12.0000000   1.0078250   1.0078250   1.0078250
 NucSpn=           0           0           1           0           0           1           0           1           1           1
 AtZEff=  -0.0000000  -0.0000000  -0.0000000  -0.0000000  -0.0000000  -0.0000000  -0.0000000  -0.0000000  -0.0000000  -0.0000000
 NQMom=    0.0000000   0.0000000   0.0000000   0.0000000   0.0000000   0.0000000   0.0000000   0.0000000   0.0000000   0.0000000
 NMagM=    0.0000000   0.0000000   2.7928460   0.0000000   0.0000000   2.7928460   0.0000000   2.7928460   2.7928460   2.7928460
 AtZNuc=   6.0000000   6.0000000   1.0000000   6.0000000   6.0000000   1.0000000   6.0000000   1.0000000   1.0000000   1.0000000

  Atom        31          32          33          34          35          36          37          38          39          40
 IAtWgt=          12          12          12          12           1          12          12           1          12          12
 AtmWgt=  12.0000000  12.0000000  12.0000000  12.0000000   1.0078250  12.0000000  12.0000000   1.0078250  12.0000000  12.0000000
 NucSpn=           0           0           0           0           1           0           0           1           0           0
 AtZEff=  -0.0000000  -0.0000000  -0.0000000  -0.0000000  -0.0000000  -0.0000000  -0.0000000  -0.0000000  -0.0000000  -0.0000000
 NQMom=    0.0000000   0.0000000   0.0000000   0.0000000   0.0000000   0.0000000   0.0000000   0.0000000   0.0000000   0.0000000
 NMagM=    0.0000000   0.0000000   0.0000000   0.0000000   2.7928460   0.0000000   0.0000000   2.7928460   0.0000000   0.0000000
 AtZNuc=   6.0000000   6.0000000   6.0000000   6.0000000   1.0000000   6.0000000   6.0000000   1.0000000   6.0000000   6.0000000

  Atom        41          42          43          44          45          46          47          48          49          50
 IAtWgt=           1          12           1           1          12          12          14           1          12          14
 AtmWgt=   1.0078250  12.0000000   1.0078250   1.0078250  12.0000000  12.0000000  14.0030740   1.0078250  12.0000000  14.0030740
 NucSpn=           1           0           1           1           0           0           2           1           0           2
 AtZEff=  -0.0000000  -0.0000000  -0.0000000  -0.0000000  -0.0000000  -0.0000000  -0.0000000  -0.0000000  -0.0000000  -0.0000000
 NQMom=    0.0000000   0.0000000   0.0000000   0.0000000   0.0000000   0.0000000   2.0440000   0.0000000   0.0000000   2.0440000
 NMagM=    2.7928460   0.0000000   2.7928460   2.7928460   0.0000000   0.0000000   0.4037610   2.7928460   0.0000000   0.4037610
 AtZNuc=   1.0000000   6.0000000   1.0000000   1.0000000   6.0000000   6.0000000   7.0000000   1.0000000   6.0000000   7.0000000

  Atom        51          52          53          54          55          56          57          58          59          60
 IAtWgt=           1          12           1          12          12           1          12          12           1           1
 AtmWgt=   1.0078250  12.0000000   1.0078250  12.0000000  12.0000000   1.0078250  12.0000000  12.0000000   1.0078250   1.0078250
 NucSpn=           1           0           1           0           0           1           0           0           1           1
 AtZEff=  -0.0000000  -0.0000000  -0.0000000  -0.0000000  -0.0000000  -0.0000000  -0.0000000  -0.0000000  -0.0000000  -0.0000000
 NQMom=    0.0000000   0.0000000   0.0000000   0.0000000   0.0000000   0.0000000   0.0000000   0.0000000   0.0000000   0.0000000
 NMagM=    2.7928460   0.0000000   2.7928460   0.0000000   0.0000000   2.7928460   0.0000000   0.0000000   2.7928460   2.7928460
 AtZNuc=   1.0000000   6.0000000   1.0000000   6.0000000   6.0000000   1.0000000   6.0000000   6.0000000   1.0000000   1.0000000

  Atom        61          62          63          64          65          66          67          68          69          70
 IAtWgt=           1           1           1           1           1           1           1           1           1           1
 AtmWgt=   1.0078250   1.0078250   1.0078250   1.0078250   1.0078250   1.0078250   1.0078250   1.0078250   1.0078250   1.0078250
 NucSpn=           1           1           1           1           1           1           1           1           1           1
 AtZEff=  -0.0000000  -0.0000000  -0.0000000  -0.0000000  -0.0000000  -0.0000000  -0.0000000  -0.0000000  -0.0000000  -0.0000000
 NQMom=    0.0000000   0.0000000   0.0000000   0.0000000   0.0000000   0.0000000   0.0000000   0.0000000   0.0000000   0.0000000
 NMagM=    2.7928460   2.7928460   2.7928460   2.7928460   2.7928460   2.7928460   2.7928460   2.7928460   2.7928460   2.7928460
 AtZNuc=   1.0000000   1.0000000   1.0000000   1.0000000   1.0000000   1.0000000   1.0000000   1.0000000   1.0000000   1.0000000

  Atom        71          72          73          74          75          76          77          78          79          80
 IAtWgt=          16          12          12          14           1          12          14           1          12           1
 AtmWgt=  15.9949146  12.0000000  12.0000000  14.0030740   1.0078250  12.0000000  14.0030740   1.0078250  12.0000000   1.0078250
 NucSpn=           0           0           0           2           1           0           2           1           0           1
 AtZEff=  -0.0000000  -0.0000000  -0.0000000  -0.0000000  -0.0000000  -0.0000000  -0.0000000  -0.0000000  -0.0000000  -0.0000000
 NQMom=    0.0000000   0.0000000   0.0000000   2.0440000   0.0000000   0.0000000   2.0440000   0.0000000   0.0000000   0.0000000
 NMagM=    0.0000000   0.0000000   0.0000000   0.4037610   2.7928460   0.0000000   0.4037610   2.7928460   0.0000000   2.7928460
 AtZNuc=   8.0000000   6.0000000   6.0000000   7.0000000   1.0000000   6.0000000   7.0000000   1.0000000   6.0000000   1.0000000

  Atom        81          82          83          84          85          86          87          88          89          90
 IAtWgt=          12          12           1          12          12           1           1           1           1           1
 AtmWgt=  12.0000000  12.0000000   1.0078250  12.0000000  12.0000000   1.0078250   1.0078250   1.0078250   1.0078250   1.0078250
 NucSpn=           0           0           1           0           0           1           1           1           1           1
 AtZEff=  -0.0000000  -0.0000000  -0.0000000  -0.0000000  -0.0000000  -0.0000000  -0.0000000  -0.0000000  -0.0000000  -0.0000000
 NQMom=    0.0000000   0.0000000   0.0000000   0.0000000   0.0000000   0.0000000   0.0000000   0.0000000   0.0000000   0.0000000
 NMagM=    0.0000000   0.0000000   2.7928460   0.0000000   0.0000000   2.7928460   2.7928460   2.7928460   2.7928460   2.7928460
 AtZNuc=   6.0000000   6.0000000   1.0000000   6.0000000   6.0000000   1.0000000   1.0000000   1.0000000   1.0000000   1.0000000

  Atom        91          92          93          94          95          96          97          98          99         100
 IAtWgt=           1           1           1           1           1           1           1          12          12          14
 AtmWgt=   1.0078250   1.0078250   1.0078250   1.0078250   1.0078250   1.0078250   1.0078250  12.0000000  12.0000000  14.0030740
 NucSpn=           1           1           1           1           1           1           1           0           0           2
 AtZEff=  -0.0000000  -0.0000000  -0.0000000  -0.0000000  -0.0000000  -0.0000000  -0.0000000  -0.0000000  -0.0000000  -0.0000000
 NQMom=    0.0000000   0.0000000   0.0000000   0.0000000   0.0000000   0.0000000   0.0000000   0.0000000   0.0000000   2.0440000
 NMagM=    2.7928460   2.7928460   2.7928460   2.7928460   2.7928460   2.7928460   2.7928460   0.0000000   0.0000000   0.4037610
 AtZNuc=   1.0000000   1.0000000   1.0000000   1.0000000   1.0000000   1.0000000   1.0000000   6.0000000   6.0000000   7.0000000

  Atom       101         102         103         104         105         106         107         108         109         110
 IAtWgt=           1          12          14           1          12           1          12          12           1          12
 AtmWgt=   1.0078250  12.0000000  14.0030740   1.0078250  12.0000000   1.0078250  12.0000000  12.0000000   1.0078250  12.0000000
 NucSpn=           1           0           2           1           0           1           0           0           1           0
 AtZEff=  -0.0000000  -0.0000000  -0.0000000  -0.0000000  -0.0000000  -0.0000000  -0.0000000  -0.0000000  -0.0000000  -0.0000000
 NQMom=    0.0000000   0.0000000   2.0440000   0.0000000   0.0000000   0.0000000   0.0000000   0.0000000   0.0000000   0.0000000
 NMagM=    2.7928460   0.0000000   0.4037610   2.7928460   0.0000000   2.7928460   0.0000000   0.0000000   2.7928460   0.0000000
 AtZNuc=   1.0000000   6.0000000   7.0000000   1.0000000   6.0000000   1.0000000   6.0000000   6.0000000   1.0000000   6.0000000

  Atom       111         112         113         114         115         116         117         118         119         120
 IAtWgt=          12           1           1           1           1           1           1           1           1           1
 AtmWgt=  12.0000000   1.0078250   1.0078250   1.0078250   1.0078250   1.0078250   1.0078250   1.0078250   1.0078250   1.0078250
 NucSpn=           0           1           1           1           1           1           1           1           1           1
 AtZEff=  -0.0000000  -0.0000000  -0.0000000  -0.0000000  -0.0000000  -0.0000000  -0.0000000  -0.0000000  -0.0000000  -0.0000000
 NQMom=    0.0000000   0.0000000   0.0000000   0.0000000   0.0000000   0.0000000   0.0000000   0.0000000   0.0000000   0.0000000
 NMagM=    0.0000000   2.7928460   2.7928460   2.7928460   2.7928460   2.7928460   2.7928460   2.7928460   2.7928460   2.7928460
 AtZNuc=   6.0000000   1.0000000   1.0000000   1.0000000   1.0000000   1.0000000   1.0000000   1.0000000   1.0000000   1.0000000

  Atom       121         122         123         124         125         126         127         128         129         130
 IAtWgt=           1           1           1          12          12          14           1          12          14           1
 AtmWgt=   1.0078250   1.0078250   1.0078250  12.0000000  12.0000000  14.0030740   1.0078250  12.0000000  14.0030740   1.0078250
 NucSpn=           1           1           1           0           0           2           1           0           2           1
 AtZEff=  -0.0000000  -0.0000000  -0.0000000  -0.0000000  -0.0000000  -0.0000000  -0.0000000  -0.0000000  -0.0000000  -0.0000000
 NQMom=    0.0000000   0.0000000   0.0000000   0.0000000   0.0000000   2.0440000   0.0000000   0.0000000   2.0440000   0.0000000
 NMagM=    2.7928460   2.7928460   2.7928460   0.0000000   0.0000000   0.4037610   2.7928460   0.0000000   0.4037610   2.7928460
 AtZNuc=   1.0000000   1.0000000   1.0000000   6.0000000   6.0000000   7.0000000   1.0000000   6.0000000   7.0000000   1.0000000

  Atom       131         132         133         134         135         136         137         138         139         140
 IAtWgt=          12           1          12          12           1          12          12           1           1           1
 AtmWgt=  12.0000000   1.0078250  12.0000000  12.0000000   1.0078250  12.0000000  12.0000000   1.0078250   1.0078250   1.0078250
 NucSpn=           0           1           0           0           1           0           0           1           1           1
 AtZEff=  -0.0000000  -0.0000000  -0.0000000  -0.0000000  -0.0000000  -0.0000000  -0.0000000  -0.0000000  -0.0000000  -0.0000000
 NQMom=    0.0000000   0.0000000   0.0000000   0.0000000   0.0000000   0.0000000   0.0000000   0.0000000   0.0000000   0.0000000
 NMagM=    0.0000000   2.7928460   0.0000000   0.0000000   2.7928460   0.0000000   0.0000000   2.7928460   2.7928460   2.7928460
 AtZNuc=   6.0000000   1.0000000   6.0000000   6.0000000   1.0000000   6.0000000   6.0000000   1.0000000   1.0000000   1.0000000

  Atom       141         142         143         144         145         146         147         148         149         150
 IAtWgt=           1           1           1           1           1           1           1           1           1           1
 AtmWgt=   1.0078250   1.0078250   1.0078250   1.0078250   1.0078250   1.0078250   1.0078250   1.0078250   1.0078250   1.0078250
 NucSpn=           1           1           1           1           1           1           1           1           1           1
 AtZEff=  -0.0000000  -0.0000000  -0.0000000  -0.0000000  -0.0000000  -0.0000000  -0.0000000  -0.0000000  -0.0000000  -0.0000000
 NQMom=    0.0000000   0.0000000   0.0000000   0.0000000   0.0000000   0.0000000   0.0000000   0.0000000   0.0000000   0.0000000
 NMagM=    2.7928460   2.7928460   2.7928460   2.7928460   2.7928460   2.7928460   2.7928460   2.7928460   2.7928460   2.7928460
 AtZNuc=   1.0000000   1.0000000   1.0000000   1.0000000   1.0000000   1.0000000   1.0000000   1.0000000   1.0000000   1.0000000
 Leave Link  101 at Mon Oct 18 08:48:26 2021, MaxMem=  7864320000 cpu:               3.5 elap:               0.1
 (Enter /apps/gaussian/g16-c01-avx/g16/l202.exe)
 Stoichiometry    C59H82N8O
 Framework group  C1[X(C59H82N8O)]
 Deg. of freedom   444
 Full point group                 C1      NOp   1
 Largest Abelian subgroup         C1      NOp   1
 Largest concise Abelian subgroup C1      NOp   1
                         Standard orientation:                         
 ---------------------------------------------------------------------
 Center     Atomic      Atomic             Coordinates (Angstroms)
 Number     Number       Type             X           Y           Z
 ---------------------------------------------------------------------
      1          6           0        2.472173    1.351705    1.403294
      2          6           0        2.611086    0.825387    2.753132
      3          6           0        1.655234    2.448154    1.134431
      4          6           0        1.475726    2.896754   -0.169800
      5          1           0        1.166314    2.938272    1.962476
      6          6           0        2.077859    2.204833   -1.221036
      7          6           0        2.897593    1.111539   -0.968377
      8          1           0        1.897940    2.545427   -2.229374
      9          6           0        3.114967    0.712649    0.349718
     10          6           0        3.466105    0.338430   -2.064685
     11          1           0        3.769465   -0.126114    0.526058
     12          6           0        0.646886    4.064921   -0.421874
     13          1           0        3.012633    0.512745   -3.053327
     14          1           0        3.375762    0.044687    2.879076
     15          1           0        0.229410    4.548617    0.474765
     16          6           0       -2.559920    1.338812    2.119702
     17          6           0       -2.118003    1.611839    3.491345
     18          6           0       -3.205926    0.137354    1.826494
     19          6           0       -3.594290   -0.158084    0.524861
     20          1           0       -3.404083   -0.554793    2.633233
     21          6           0       -3.308047    0.754714   -0.489839
     22          6           0       -2.687197    1.966851   -0.208122
     23          1           0       -3.596905    0.500545   -1.498404
     24          6           0       -2.322421    2.258890    1.104350
     25          6           0       -2.397936    2.910474   -1.281876
     26          1           0       -1.840722    3.201482    1.311965
     27          6           0       -4.264965   -1.416161    0.229154
     28          1           0       -2.366060    2.482812   -2.295998
     29          1           0       -1.680224    2.617321    3.632574
     30          1           0       -4.419939   -2.086674    1.086742
     31          6           0        0.295565   -2.159163    1.606077
     32          6           0        0.100276   -1.535616    2.909243
     33          6           0        1.579832   -2.303566    1.083349
     34          6           0        1.775037   -2.749887   -0.218507
     35          1           0        2.415790   -2.027141    1.706301
     36          6           0        0.668553   -3.090743   -0.995135
     37          6           0       -0.614527   -3.016336   -0.465387
     38          1           0        0.833323   -3.421394   -2.009413
     39          6           0       -0.794585   -2.539716    0.832928
     40          6           0       -1.766153   -3.388053   -1.276884
     41          1           0       -1.799647   -2.463071    1.216540
     42          6           0        3.122306   -2.781657   -0.767231
     43          1           0       -1.587556   -3.446553   -2.362368
     44          1           0        3.930182   -2.610647   -0.040257
     45          6           0        0.859144   -0.598672    4.914806
     46          6           0        1.957482    0.501874    4.954408
     47          7           0        1.063890   -1.316290    3.690843
     48          1           0       -0.127924   -0.112262    4.925828
     49          6           0        0.921505   -1.577095    6.107379
     50          7           0        1.870110    1.198109    3.703245
     51          1           0        2.926519   -0.018857    5.039255
     52          6           0        1.819725    1.501083    6.114567
     53          1           0        0.897501   -0.983825    7.026461
     54          6           0        2.185928   -2.432185    6.095685
     55          6           0       -0.318764   -2.469773    6.090748
     56          1           0        1.764367    0.938005    7.051510
     57          6           0        0.574632    2.371542    5.978894
     58          6           0        3.069561    2.381206    6.158473
     59          1           0       -0.333578   -3.109896    6.970229
     60          1           0       -0.319504   -3.102291    5.205125
     61          1           0       -1.223679   -1.866028    6.087262
     62          1           0        2.137868   -3.175472    6.888736
     63          1           0        3.073756   -1.826019    6.254773
     64          1           0        2.278445   -2.942920    5.140589
     65          1           0        3.166665    2.933911    5.226465
     66          1           0        3.964586    1.777382    6.295883
     67          1           0        3.005594    3.091621    6.979584
     68          1           0        0.539301    3.099308    6.787055
     69          1           0       -0.330842    1.773529    6.016637
     70          1           0        0.605387    2.898938    5.029812
     71          8           0       -2.191322    0.832786    4.409956
     72          6           0       -0.468826    5.616187   -1.742837
     73          6           0       -1.848263    5.015500   -2.125304
     74          7           0        0.421221    4.502815   -1.582572
     75          1           0       -0.604115    6.146572   -0.784924
     76          6           0        0.114699    6.590281   -2.780430
     77          7           0       -2.196685    4.131877   -1.054042
     78          1           0       -1.730779    4.458941   -3.071221
     79          6           0       -2.959395    6.068783   -2.309572
     80          1           0       -0.578041    7.430625   -2.891502
     81          6           0        0.323842    5.923637   -4.136951
     82          6           0        1.442800    7.133075   -2.252231
     83          1           0       -2.640292    6.757026   -3.098315
     84          6           0       -3.226275    6.856145   -1.030112
     85          6           0       -4.239654    5.375423   -2.776072
     86          1           0        1.306157    7.614522   -1.285918
     87          1           0        1.856834    7.862677   -2.944302
     88          1           0        2.155011    6.319604   -2.134065
     89          1           0        0.886329    5.003658   -4.006018
     90          1           0        0.880292    6.586111   -4.796314
     91          1           0       -0.625340    5.691467   -4.612979
     92          1           0       -5.012214    6.112526   -2.982459
     93          1           0       -4.605006    4.698266   -2.006938
     94          1           0       -4.061251    4.803171   -3.684448
     95          1           0       -3.409092    6.169925   -0.207641
     96          1           0       -4.100840    7.489871   -1.160250
     97          1           0       -2.382853    7.492422   -0.776071
     98          6           0        4.833084   -1.331391   -2.961277
     99          6           0        4.702416   -2.798676   -2.463323
    100          7           0        4.383887   -0.504693   -1.881492
    101          1           0        4.184484   -1.207177   -3.845155
    102          6           0        6.272990   -0.940830   -3.355128
    103          7           0        3.353460   -2.945112   -1.996331
    104          1           0        5.414603   -2.918452   -1.629709
    105          6           0        4.995699   -3.863849   -3.532748
    106          1           0        6.619807   -1.655486   -4.108172
    107          6           0        7.225522   -0.963924   -2.162888
    108          6           0        6.263953    0.449938   -3.989974
    109          1           0        6.020257   -3.720901   -3.891370
    110          6           0        4.030812   -3.774291   -4.711704
    111          6           0        4.904306   -5.245625   -2.884772
    112          1           0        5.934675    1.193558   -3.267148
    113          1           0        5.594422    0.480240   -4.847435
    114          1           0        7.263208    0.715861   -4.326918
    115          1           0        7.377255   -1.976372   -1.798522
    116          1           0        6.820297   -0.358231   -1.356711
    117          1           0        8.193441   -0.561408   -2.453633
    118          1           0        3.895223   -5.415074   -2.515967
    119          1           0        5.595024   -5.326019   -2.047643
    120          1           0        5.147815   -6.021614   -3.606779
    121          1           0        4.214811   -2.882577   -5.305457
    122          1           0        3.009510   -3.746564   -4.342842
    123          1           0        4.149909   -4.640906   -5.358211
    124          6           0       -5.188758   -3.014130   -1.177332
    125          6           0       -4.013545   -3.950018   -1.584762
    126          7           0       -4.639296   -1.713585   -0.937900
    127          1           0       -5.623403   -3.428076   -0.252514
    128          6           0       -6.286296   -2.923496   -2.252064
    129          7           0       -2.891135   -3.621492   -0.761919
    130          1           0       -3.786704   -3.778049   -2.650935
    131          6           0       -4.367079   -5.442846   -1.397911
    132          1           0       -6.526366   -3.938831   -2.585506
    133          6           0       -5.841016   -2.098032   -3.456226
    134          6           0       -7.540028   -2.304709   -1.635069
    135          1           0       -5.369532   -5.603433   -1.808456
    136          6           0       -4.361482   -5.855868    0.071788
    137          6           0       -3.379622   -6.304570   -2.183027
    138          1           0       -7.315967   -1.306408   -1.265382
    139          1           0       -7.901906   -2.908059   -0.804836
    140          1           0       -8.332618   -2.230806   -2.375998
    141          1           0       -4.983216   -2.547531   -3.948943
    142          1           0       -5.567524   -1.098249   -3.132636
    143          1           0       -6.650818   -2.028346   -4.178952
    144          1           0       -3.625470   -7.357806   -2.069104
    145          1           0       -2.367213   -6.147151   -1.815851
    146          1           0       -3.407091   -6.059488   -3.242951
    147          1           0       -4.604189   -6.912545    0.160186
    148          1           0       -5.092386   -5.290935    0.643867
    149          1           0       -3.379475   -5.681473    0.503471
    150          1           0       -0.929329   -1.227524    3.139172
 ---------------------------------------------------------------------
 Rotational constants (GHZ):           0.0275503           0.0271361           0.0240931
 Leave Link  202 at Mon Oct 18 08:48:26 2021, MaxMem=  7864320000 cpu:               0.2 elap:               0.0
 (Enter /apps/gaussian/g16-c01-avx/g16/l301.exe)
 Standard basis: def2TZVP (5D, 7F)
 Ernie: Thresh=  0.10000D-02 Tol=  0.10000D-05 Strict=F.
 There are  2940 symmetry adapted cartesian basis functions of A   symmetry.
 There are  2600 symmetry adapted basis functions of A   symmetry.
  2600 basis functions,  4124 primitive gaussians,  2940 cartesian basis functions
   250 alpha electrons      250 beta electrons
       nuclear repulsion energy     11258.2040532802 Hartrees.
 IExCor= 1009 DFT=T Ex+Corr=PBE1PBE ExCW=0 ScaHFX=  0.250000
 ScaDFX=  0.750000  0.750000  1.000000  1.000000 ScalE2=  1.000000  1.000000
 IRadAn=      7 IRanWt=     -1 IRanGd=            0 ICorTp=0 IEmpDi=131
 NAtoms=  150 NActive=  150 NUniq=  150 SFac= 1.00D+00 NAtFMM=   60 NAOKFM=T Big=T
 Integral buffers will be    131072 words long.
 Raffenetti 2 integral format.
 Two-electron integral symmetry is turned on.
 R6Disp:  Grimme-D3 Dispersion energy=       -0.1399290451 Hartrees.
 Nuclear repulsion after empirical dispersion term =    11258.0641242350 Hartrees.
 Leave Link  301 at Mon Oct 18 08:48:26 2021, MaxMem=  7864320000 cpu:               1.4 elap:               0.1
 (Enter /apps/gaussian/g16-c01-avx/g16/l302.exe)
 NPDir=0 NMtPBC=     1 NCelOv=     1 NCel=       1 NClECP=     1 NCelD=      1
         NCelK=      1 NCelE2=     1 NClLst=     1 CellRange=     0.0.
 One-electron integrals computed using PRISM.
 One-electron integral symmetry used in STVInt
   1 Symmetry operations used in ECPInt.
 ECPInt:  NShTT=  579426 NPrTT= 1717620 LenC2=  371279 LenP2D=  702599.
 LDataN:  DoStor=T MaxTD1= 6 Len=  172
 Number of processors reduced to  28 by ecpmxn.
 NBasis=  2600 RedAO= T EigKep=  4.01D-06  NBF=  2600
 NBsUse=  2600 1.00D-06 EigRej= -1.00D+00 NBFU=  2600
 Precomputing XC quadrature grid using
 IXCGrd= 4 IRadAn=           7 IRanWt=          -1 IRanGd=           0 AccXCQ= 0.00D+00.
 Generated NRdTot=       0 NPtTot=           0 NUsed=           0 NTot=          32
 NSgBfM=  2532  2493  2508  2520  2532 MxSgAt=   150 MxSgA2=   150.
 Leave Link  302 at Mon Oct 18 08:48:53 2021, MaxMem=  7864320000 cpu:             861.7 elap:              27.1
 (Enter /apps/gaussian/g16-c01-avx/g16/l303.exe)
 DipDrv:  MaxL=1.
 Leave Link  303 at Mon Oct 18 08:48:55 2021, MaxMem=  7864320000 cpu:              44.2 elap:               1.7
 (Enter /apps/gaussian/g16-c01-avx/g16/l401.exe)
 ExpMin= 9.52D-02 ExpMax= 2.70D+04 ExpMxC= 9.22D+02 IAcc=3 IRadAn=         7 AccDes= 0.00D+00
 Harris functional with IExCor= 1009 and IRadAn=       7 diagonalized for initial guess.
 HarFok:  IExCor= 1009 AccDes= 0.00D+00 IRadAn=         7 IDoV= 1 UseB2=F ITyADJ=14
 ICtDFT=  3500011 ScaDFX=  1.000000  1.000000  1.000000  1.000000
 FoFCou: FMM=F IPFlag=           0 FMFlag=      100000 FMFlg1=        2001
         NFxFlg=           0 DoJE=T BraDBF=F KetDBF=T FulRan=T
         wScrn=  0.000000 ICntrl=       500 IOpCl=  0 I1Cent=   200000004 NGrid=           0
         NMat0=    1 NMatS0=      1 NMatT0=    0 NMatD0=    1 NMtDS0=    0 NMtDT0=    0
 Petite list used in FoFCou.
 Harris En= -2809.64798191991    
 JPrj=0 DoOrth=F DoCkMO=F.
 Leave Link  401 at Mon Oct 18 08:49:55 2021, MaxMem=  7864320000 cpu:            1930.0 elap:              60.8
 (Enter /apps/gaussian/g16-c01-avx/g16/l508.exe)
 Integral symmetry usage will be decided dynamically.
 Tight linear equation convergence will be used.
 RPBE1PBE wavefunction.
 Linear searches until partial convergence.
 Full line searches.
 Fock matrices will be formed incrementally for  20 cycles.
 FoFJK:  IHMeth= 1 ICntrl=       0 DoSepK=F KAlg= 0 I1Cent=           0 FoldK=F
 IRaf= 600000000 NMat=       1 IRICut=       1 DoRegI=T DoRafI=F ISym2E= 1 IDoP0=0 IntGTp=1.
 FoFCou: FMM=T IPFlag=           0 FMFlag=      100000 FMFlg1=        2001
         NFxFlg=           0 DoJE=F BraDBF=F KetDBF=F FulRan=T
         wScrn=  0.000000 ICntrl=         0 IOpCl=  0 I1Cent=           0 NGrid=           0
         NMat0=    1 NMatS0=      1 NMatT0=    0 NMatD0=    1 NMtDS0=    0 NMtDT0=    0
 Petite list used in FoFCou.
 FMM levels:  10  Number of levels for PrismC:   9
 Iteration   1 EE= -2806.81233633836                                    Grad=1.961D+00 Max rot=    1.9491 deg.
 Gradient too large for Newton-Raphson -- use scaled steepest descent instead.
 Alpha Gap=     0.156 HL deriv= 8.27D-03
     ILin= 1 X=0.000D+00 Y=-2.806812336338D+03 DE= 0.00D+00 F= -7.86D+00
 RMSU=  3.86D-04    CP:  9.88D-01
     ILin= 2 X=3.000D-01 Y=-2.808350601636D+03 DE=-1.54D+00 F= -2.37D+00 OKLS=F
 RMSU=  5.61D-05    CP:  9.82D-01  1.69D+00
     ILin= 3 X=5.000D-01 Y=-2.808455445180D+03 DE=-1.64D+00 F=  1.33D+00
     Accept linear search using points  2 and  3.
     An  expanding polynomial of degree  3 produced  0.3942
 RMSU=  4.73D-08    CP:  9.85D-01  1.32D+00  3.72D-01
 Iteration   2 EE= -2808.49223205611     Delta-E=       -1.679895717751 Grad=5.898D-01 Max rot=    1.1026 deg.
 Gradient too large for Newton-Raphson -- use scaled steepest descent instead.
 Alpha Gap=     0.185 HL deriv= 2.22D-03
     ILin= 1 X=0.000D+00 Y=-2.808492232056D+03 DE= 0.00D+00 F= -3.35D-01
 RMSU=  8.92D-05    CP:  9.81D-01  1.48D+00  5.72D-01 -3.00D+00
     ILin= 2 X=3.000D-01 Y=-2.808566807821D+03 DE=-7.46D-02 F= -1.62D-01 OKLS=F
 RMSU=  7.41D-06    CP:  9.77D-01  1.64D+00  9.01D-01 -3.00D+00  2.00D+00
     ILin= 3 X=6.000D-01 Y=-2.808589633453D+03 DE=-9.74D-02 F=  9.80D-03
 RMSU=  9.22D-05    CP:  9.70D-01  1.97D+00  1.94D+00 -3.00D+00  3.00D+00
                    CP:  3.00D+00
     ILin= 4 X=1.200D+00 Y=-2.808481491449D+03 DE= 1.07D-02 F=  3.50D-01
     An  expanding polynomial of degree  4 produced  0.5829
     Minimum is close to point  3 DX= -1.71D-02 DF= -8.34D-05 DXR=  2.93D-02 DFR=  8.56D-04 which will be used.
 Iteration   3 EE= -2808.58963345269     Delta-E=       -0.097401396582 Grad=2.439D-01 Max rot=    0.6826 deg.
 Gradient too large for Newton-Raphson -- use scaled steepest descent instead.
 Alpha Gap=     0.172 HL deriv= 3.53D-03
     ILin= 1 X=0.000D+00 Y=-2.808589633453D+03 DE= 0.00D+00 F= -8.69D-02
 RMSU=  8.94D-05    CP:  9.76D-01  1.82D+00  1.51D+00 -3.00D+00  2.40D+00
                    CP:  9.01D-01 -9.54D-05
     ILin= 2 X=5.000D-01 Y=-2.808601494166D+03 DE=-1.19D-02 F=  3.98D-02 OKLS=T
     Accept linear search using points  1 and  2.
     An  expanding polynomial of degree  2 produced  0.2751
 RMSU=  8.17D-07    CP:  9.76D-01  1.74D+00  1.22D+00 -3.00D+00  2.22D+00
                    CP:  8.94D-01 -5.07D-05  5.49D-01
 Iteration   4 EE= -2808.60399981864     Delta-E=       -0.014366365944 Grad=1.370D-01 Max rot=    0.3147 deg.
 Gradient too large for Newton-Raphson -- use scaled steepest descent instead.
 Alpha Gap=     0.180 HL deriv= 3.01D-05
     ILin= 1 X=0.000D+00 Y=-2.808603999819D+03 DE= 0.00D+00 F= -1.05D-02
 RMSU=  2.26D-05    CP:  9.74D-01  1.82D+00  1.50D+00 -3.00D+00  2.72D+00
                    CP:  1.58D+00  8.44D-05  9.01D-01  1.48D+00
     ILin= 2 X=6.000D-01 Y=-2.808608148910D+03 DE=-4.15D-03 F= -3.32D-03 OKLS=F
 RMSU=  4.83D-06    CP:  9.73D-01  1.90D+00  1.83D+00 -3.00D+00  3.00D+00
                    CP:  2.56D+00  2.01D-01  1.25D+00  8.60D-01  2.01D+00
     ILin= 3 X=1.200D+00 Y=-2.808607981186D+03 DE=-3.98D-03 F=  3.88D-03
     An  expanding polynomial of degree  3 produced  0.8767
 RMSU=  4.79D-07    CP:  9.74D-01  1.86D+00  1.65D+00 -3.00D+00  2.95D+00
                    CP:  1.99D+00  1.48D-04  1.06D+00  1.33D+00  1.46D+00
                    CP:  3.22D-02
 Iteration   5 EE= -2808.60860789497     Delta-E=       -0.004608076337 Grad=2.459D-02 Max rot=    0.0637 deg.
 Gradient too large for Newton-Raphson -- use scaled steepest descent instead.
 Alpha Gap=     0.181 HL deriv= 1.79D-04
     ILin= 1 X=0.000D+00 Y=-2.808608607895D+03 DE= 0.00D+00 F= -1.09D-03
 RMSU=  1.23D-05    CP:  9.74D-01  1.88D+00  1.75D+00 -3.00D+00  3.00D+00
                    CP:  2.32D+00  2.90D-02  1.06D+00  2.22D+00  1.86D+00
                    CP:  1.86D-01  1.13D+00
     ILin= 2 X=5.000D-01 Y=-2.808608824065D+03 DE=-2.16D-04 F=  2.23D-04 OKLS=T
     Accept linear search using points  1 and  2.
     An  expanding polynomial of degree  2 produced  0.3007
 RMSU=  1.95D-08    CP:  9.74D-01  1.87D+00  1.71D+00 -3.00D+00  3.00D+00
                    CP:  2.19D+00  1.47D-04  1.06D+00  1.87D+00  1.70D+00
                    CP:  4.59D-02  1.32D+00  6.01D-01
 Iteration   6 EE= -2808.60881640285     Delta-E=       -0.000208507878 Grad=1.214D-02 Max rot=    0.0229 deg.
 Gradient too large for Newton-Raphson -- use scaled steepest descent instead.
 Alpha Gap=     0.181 HL deriv= 8.80D-06
     ILin= 1 X=0.000D+00 Y=-2.808608816403D+03 DE= 0.00D+00 F= -1.54D-04
 RMSU=  2.07D-06    CP:  9.74D-01  1.88D+00  1.79D+00 -3.00D+00  3.00D+00
                    CP:  2.37D+00  4.43D-02  1.09D+00  1.91D+00  1.97D+00
                    CP:  2.59D-01  9.71D-01  1.16D+00 -3.00D+00
     ILin= 2 X=5.000D-01 Y=-2.808608866991D+03 DE=-5.06D-05 F= -4.83D-05 OKLS=F
 RMSU=  1.38D-07    CP:  9.74D-01  1.90D+00  1.88D+00 -3.00D+00  3.00D+00
                    CP:  2.56D+00  9.09D-02  1.13D+00  1.93D+00  2.24D+00
                    CP:  4.86D-01  6.83D-01  1.73D+00 -3.00D+00  2.00D+00
     ILin= 3 X=1.000D+00 Y=-2.808608864719D+03 DE=-4.83D-05 F=  5.74D-05
     An  expanding polynomial of degree  3 produced  0.7285
 RMSU=  1.73D-09    CP:  9.74D-01  1.89D+00  1.83D+00 -3.00D+00  3.00D+00
                    CP:  2.46D+00  6.56D-02  1.11D+00  1.92D+00  2.09D+00
                    CP:  3.62D-01  8.28D-01  1.42D+00 -3.00D+00  1.46D+00
                    CP:  4.02D-01
 Iteration   7 EE= -2808.60887251156     Delta-E=       -0.000056108711 Grad=4.635D-03 Max rot=    0.0052 deg.
 SCF Done:  E(RPBE1PBE) =  -2808.60887251     a.u. after    7 cycles
            Convg  =    0.4635D-02                    17 Fock formations.
              S**2 =  0.0000                  -V/T =  2.0047
 Leave Link  508 at Mon Oct 18 10:22:37 2021, MaxMem=  7864320000 cpu:          176282.3 elap:            5561.9
 (Enter /apps/gaussian/g16-c01-avx/g16/l502.exe)
 Integral symmetry usage will be decided dynamically.
 Closed shell SCF:
 Using DIIS extrapolation, IDIIS=  1040.
 NGot=  7864320000 LenX=  7846909138 LenY=  7838262598
 Requested convergence on RMS density matrix=1.00D-08 within 128 cycles.
 Requested convergence on MAX density matrix=1.00D-06.
 Requested convergence on             energy=1.00D-06.
 No special actions if energy rises.
 Fock matrices will be formed incrementally for  20 cycles.

 Cycle   1  Pass 1  IDiag  1:
 FoFJK:  IHMeth= 1 ICntrl=       0 DoSepK=F KAlg= 0 I1Cent=           0 FoldK=F
 IRaf= 600000000 NMat=       1 IRICut=       1 DoRegI=T DoRafI=F ISym2E= 0 IDoP0=0 IntGTp=1.
 FoFCou: FMM=T IPFlag=           0 FMFlag=      100000 FMFlg1=        2001
         NFxFlg=           0 DoJE=F BraDBF=F KetDBF=F FulRan=T
         wScrn=  0.000000 ICntrl=         0 IOpCl=  0 I1Cent=           0 NGrid=           0
         NMat0=    1 NMatS0=      1 NMatT0=    0 NMatD0=    1 NMtDS0=    0 NMtDT0=    0
 Symmetry not used in FoFCou.
 FMM levels:  10  Number of levels for PrismC:   9
 E= -2808.60887251155    
 DIIS: error= 1.80D-05 at cycle   1 NSaved=   1.
 NSaved= 1 IEnMin= 1 EnMin= -2808.60887251155     IErMin= 1 ErrMin= 1.80D-05
 ErrMax= 1.80D-05  0.00D+00 EMaxC= 1.00D-01 BMatC= 1.07D-05 BMatP= 1.07D-05
 IDIUse=1 WtCom= 1.00D+00 WtEn= 0.00D+00
 Coeff-Com:  0.100D+01
 Coeff:      0.100D+01
 Gap=     0.181 Goal=   None    Shift=    0.000
 RMSDP=9.61D-06 MaxDP=1.31D-03              OVMax= 6.99D-04

 Cycle   2  Pass 1  IDiag  1:
 RMSU=  9.59D-06    CP:  1.00D+00
 E= -2808.60887646466     Delta-E=       -0.000003953113 Rises=F Damp=F
 DIIS: error= 2.69D-05 at cycle   2 NSaved=   2.
 NSaved= 2 IEnMin= 2 EnMin= -2808.60887646466     IErMin= 1 ErrMin= 1.80D-05
 ErrMax= 2.69D-05  0.00D+00 EMaxC= 1.00D-01 BMatC= 7.68D-06 BMatP= 1.07D-05
 IDIUse=1 WtCom= 1.00D+00 WtEn= 0.00D+00
 Coeff-Com:  0.448D+00 0.552D+00
 Coeff:      0.448D+00 0.552D+00
 Gap=     0.172 Goal=   None    Shift=    0.000
 RMSDP=3.06D-06 MaxDP=8.42D-04 DE=-3.95D-06 OVMax= 5.25D-04

 Cycle   3  Pass 1  IDiag  1:
 RMSU=  2.92D-06    CP:  1.00D+00  1.06D+00
 E= -2808.60888289410     Delta-E=       -0.000006429440 Rises=F Damp=F
 DIIS: error= 1.66D-05 at cycle   3 NSaved=   3.
 NSaved= 3 IEnMin= 3 EnMin= -2808.60888289410     IErMin= 3 ErrMin= 1.66D-05
 ErrMax= 1.66D-05  0.00D+00 EMaxC= 1.00D-01 BMatC= 1.37D-06 BMatP= 7.68D-06
 IDIUse=1 WtCom= 1.00D+00 WtEn= 0.00D+00
 Coeff-Com:  0.651D-01 0.296D+00 0.639D+00
 Coeff:      0.651D-01 0.296D+00 0.639D+00
 Gap=     0.172 Goal=   None    Shift=    0.000
 RMSDP=1.04D-06 MaxDP=3.99D-04 DE=-6.43D-06 OVMax= 2.91D-04

 Cycle   4  Pass 1  IDiag  1:
 RMSU=  6.46D-07    CP:  1.00D+00  1.10D+00  7.48D-01
 E= -2808.60888379225     Delta-E=       -0.000000898150 Rises=F Damp=F
 DIIS: error= 8.68D-06 at cycle   4 NSaved=   4.
 NSaved= 4 IEnMin= 4 EnMin= -2808.60888379225     IErMin= 4 ErrMin= 8.68D-06
 ErrMax= 8.68D-06  0.00D+00 EMaxC= 1.00D-01 BMatC= 5.08D-07 BMatP= 1.37D-06
 IDIUse=1 WtCom= 1.00D+00 WtEn= 0.00D+00
 Coeff-Com: -0.112D-01 0.142D+00 0.452D+00 0.417D+00
 Coeff:     -0.112D-01 0.142D+00 0.452D+00 0.417D+00
 Gap=     0.172 Goal=   None    Shift=    0.000
 RMSDP=4.17D-07 MaxDP=1.44D-04 DE=-8.98D-07 OVMax= 1.05D-04

 Cycle   5  Pass 1  IDiag  1:
 RMSU=  1.86D-07    CP:  1.00D+00  1.10D+00  7.83D-01  4.62D-01
 E= -2808.60888425353     Delta-E=       -0.000000461283 Rises=F Damp=F
 DIIS: error= 1.26D-06 at cycle   5 NSaved=   5.
 NSaved= 5 IEnMin= 5 EnMin= -2808.60888425353     IErMin= 5 ErrMin= 1.26D-06
 ErrMax= 1.26D-06  0.00D+00 EMaxC= 1.00D-01 BMatC= 1.37D-08 BMatP= 5.08D-07
 IDIUse=1 WtCom= 1.00D+00 WtEn= 0.00D+00
 Coeff-Com: -0.109D-01 0.567D-01 0.205D+00 0.224D+00 0.525D+00
 Coeff:     -0.109D-01 0.567D-01 0.205D+00 0.224D+00 0.525D+00
 Gap=     0.172 Goal=   None    Shift=    0.000
 RMSDP=1.01D-07 MaxDP=3.26D-05 DE=-4.61D-07 OVMax= 1.21D-05

 Cycle   6  Pass 1  IDiag  1:
 RMSU=  7.49D-08    CP:  1.00D+00  1.10D+00  7.66D-01  4.99D-01  8.40D-01
 E= -2808.60888426494     Delta-E=       -0.000000011411 Rises=F Damp=F
 DIIS: error= 2.71D-07 at cycle   6 NSaved=   6.
 NSaved= 6 IEnMin= 6 EnMin= -2808.60888426494     IErMin= 6 ErrMin= 2.71D-07
 ErrMax= 2.71D-07  0.00D+00 EMaxC= 1.00D-01 BMatC= 5.95D-10 BMatP= 1.37D-08
 IDIUse=1 WtCom= 1.00D+00 WtEn= 0.00D+00
 Coeff-Com: -0.261D-02 0.783D-02 0.350D-01 0.453D-01 0.205D+00 0.709D+00
 Coeff:     -0.261D-02 0.783D-02 0.350D-01 0.453D-01 0.205D+00 0.709D+00
 Gap=     0.172 Goal=   None    Shift=    0.000
 RMSDP=2.52D-08 MaxDP=3.84D-06 DE=-1.14D-08 OVMax= 7.12D-06

 Cycle   7  Pass 1  IDiag  1:
 RMSU=  1.85D-08    CP:  1.00D+00  1.10D+00  7.69D-01  5.17D-01  8.50D-01
                    CP:  9.89D-01
 E= -2808.60888426564     Delta-E=       -0.000000000697 Rises=F Damp=F
 DIIS: error= 2.15D-07 at cycle   7 NSaved=   7.
 NSaved= 7 IEnMin= 7 EnMin= -2808.60888426564     IErMin= 7 ErrMin= 2.15D-07
 ErrMax= 2.15D-07  0.00D+00 EMaxC= 1.00D-01 BMatC= 2.61D-10 BMatP= 5.95D-10
 IDIUse=1 WtCom= 1.00D+00 WtEn= 0.00D+00
 Coeff-Com: -0.137D-03-0.281D-02-0.572D-02-0.184D-02 0.601D-01 0.456D+00
 Coeff-Com:  0.494D+00
 Coeff:     -0.137D-03-0.281D-02-0.572D-02-0.184D-02 0.601D-01 0.456D+00
 Coeff:      0.494D+00
 Gap=     0.172 Goal=   None    Shift=    0.000
 RMSDP=1.09D-08 MaxDP=2.30D-06 DE=-6.97D-10 OVMax= 4.12D-06

 Cycle   8  Pass 1  IDiag  1:
 RMSU=  6.84D-09    CP:  1.00D+00  1.10D+00  7.69D-01  5.15D-01  8.70D-01
                    CP:  1.02D+00  6.21D-01
 E= -2808.60888426583     Delta-E=       -0.000000000187 Rises=F Damp=F
 DIIS: error= 4.03D-08 at cycle   8 NSaved=   8.
 NSaved= 8 IEnMin= 8 EnMin= -2808.60888426583     IErMin= 8 ErrMin= 4.03D-08
 ErrMax= 4.03D-08  0.00D+00 EMaxC= 1.00D-01 BMatC= 2.09D-11 BMatP= 2.61D-10
 IDIUse=1 WtCom= 1.00D+00 WtEn= 0.00D+00
 Coeff-Com:  0.128D-03-0.226D-02-0.634D-02-0.528D-02 0.138D-01 0.190D+00
 Coeff-Com:  0.283D+00 0.527D+00
 Coeff:      0.128D-03-0.226D-02-0.634D-02-0.528D-02 0.138D-01 0.190D+00
 Coeff:      0.283D+00 0.527D+00
 Gap=     0.172 Goal=   None    Shift=    0.000
 RMSDP=3.76D-09 MaxDP=1.03D-06 DE=-1.87D-10 OVMax= 1.05D-06

 Cycle   9  Pass 1  IDiag  1:
 RMSU=  2.70D-09    CP:  1.00D+00  1.10D+00  7.68D-01  5.14D-01  8.77D-01
                    CP:  1.02D+00  6.82D-01  7.57D-01
 E= -2808.60888426618     Delta-E=       -0.000000000358 Rises=F Damp=F
 DIIS: error= 1.63D-08 at cycle   9 NSaved=   9.
 NSaved= 9 IEnMin= 9 EnMin= -2808.60888426618     IErMin= 9 ErrMin= 1.63D-08
 ErrMax= 1.63D-08  0.00D+00 EMaxC= 1.00D-01 BMatC= 2.80D-12 BMatP= 2.09D-11
 IDIUse=1 WtCom= 1.00D+00 WtEn= 0.00D+00
 Coeff-Com:  0.959D-04-0.592D-03-0.221D-02-0.259D-02-0.734D-02-0.775D-03
 Coeff-Com:  0.448D-01 0.286D+00 0.683D+00
 Coeff:      0.959D-04-0.592D-03-0.221D-02-0.259D-02-0.734D-02-0.775D-03
 Coeff:      0.448D-01 0.286D+00 0.683D+00
 Gap=     0.172 Goal=   None    Shift=    0.000
 RMSDP=1.82D-09 MaxDP=6.10D-07 DE=-3.58D-10 OVMax= 5.74D-07

 SCF Done:  E(RPBE1PBE) =  -2808.60888427     A.U. after    9 cycles
            NFock=  9  Conv=0.18D-08     -V/T= 2.0047
 KE= 2.795486139855D+03 PE=-2.904070923992D+04 EE= 1.217855009156D+04
 Leave Link  502 at Mon Oct 18 11:10:55 2021, MaxMem=  7864320000 cpu:           91811.1 elap:            2897.6
 (Enter /apps/gaussian/g16-c01-avx/g16/l508.exe)
 QCSCF skips out because SCF is already converged.
 Leave Link  508 at Mon Oct 18 11:10:55 2021, MaxMem=  7864320000 cpu:               0.1 elap:               0.0
 (Enter /apps/gaussian/g16-c01-avx/g16/l601.exe)
 Copying SCF densities to generalized density rwf, IOpCl= 0 IROHF=0.
 Hyperfine terms turned off by default for NAtoms > 100.

 **********************************************************************

            Population analysis using the SCF Density.

 **********************************************************************

 Orbital symmetries:
       Occupied  (A) (A) (A) (A) (A) (A) (A) (A) (A) (A) (A) (A)
                 (A) (A) (A) (A) (A) (A) (A) (A) (A) (A) (A) (A)
                 (A) (A) (A) (A) (A) (A) (A) (A) (A) (A) (A) (A)
                 (A) (A) (A) (A) (A) (A) (A) (A) (A) (A) (A) (A)
                 (A) (A) (A) (A) (A) (A) (A) (A) (A) (A) (A) (A)
                 (A) (A) (A) (A) (A) (A) (A) (A) (A) (A) (A) (A)
                 (A) (A) (A) (A) (A) (A) (A) (A) (A) (A) (A) (A)
                 (A) (A) (A) (A) (A) (A) (A) (A) (A) (A) (A) (A)
                 (A) (A) (A) (A) (A) (A) (A) (A) (A) (A) (A) (A)
                 (A) (A) (A) (A) (A) (A) (A) (A) (A) (A) (A) (A)
                 (A) (A) (A) (A) (A) (A) (A) (A) (A) (A) (A) (A)
                 (A) (A) (A) (A) (A) (A) (A) (A) (A) (A) (A) (A)
                 (A) (A) (A) (A) (A) (A) (A) (A) (A) (A) (A) (A)
                 (A) (A) (A) (A) (A) (A) (A) (A) (A) (A) (A) (A)
                 (A) (A) (A) (A) (A) (A) (A) (A) (A) (A) (A) (A)
                 (A) (A) (A) (A) (A) (A) (A) (A) (A) (A) (A) (A)
                 (A) (A) (A) (A) (A) (A) (A) (A) (A) (A) (A) (A)
                 (A) (A) (A) (A) (A) (A) (A) (A) (A) (A) (A) (A)
                 (A) (A) (A) (A) (A) (A) (A) (A) (A) (A) (A) (A)
                 (A) (A) (A) (A) (A) (A) (A) (A) (A) (A) (A) (A)
                 (A) (A) (A) (A) (A) (A) (A) (A) (A) (A)
       Virtual   (A) (A) (A) (A) (A) (A) (A) (A) (A) (A) (A) (A)
                 (A) (A) (A) (A) (A) (A) (A) (A) (A) (A) (A) (A)
                 (A) (A) (A) (A) (A) (A) (A) (A) (A) (A) (A) (A)
                 (A) (A) (A) (A) (A) (A) (A) (A) (A) (A) (A) (A)
                 (A) (A) (A) (A) (A) (A) (A) (A) (A) (A) (A) (A)
                 (A) (A) (A) (A) (A) (A) (A) (A) (A) (A) (A) (A)
                 (A) (A) (A) (A) (A) (A) (A) (A) (A) (A) (A) (A)
                 (A) (A) (A) (A) (A) (A) (A) (A) (A) (A) (A) (A)
                 (A) (A) (A) (A) (A) (A) (A) (A) (A) (A) (A) (A)
                 (A) (A) (A) (A) (A) (A) (A) (A) (A) (A) (A) (A)
                 (A) (A) (A) (A) (A) (A) (A) (A) (A) (A) (A) (A)
                 (A) (A) (A) (A) (A) (A) (A) (A) (A) (A) (A) (A)
                 (A) (A) (A) (A) (A) (A) (A) (A) (A) (A) (A) (A)
                 (A) (A) (A) (A) (A) (A) (A) (A) (A) (A) (A) (A)
                 (A) (A) (A) (A) (A) (A) (A) (A) (A) (A) (A) (A)
                 (A) (A) (A) (A) (A) (A) (A) (A) (A) (A) (A) (A)
                 (A) (A) (A) (A) (A) (A) (A) (A) (A) (A) (A) (A)
                 (A) (A) (A) (A) (A) (A) (A) (A) (A) (A) (A) (A)
                 (A) (A) (A) (A) (A) (A) (A) (A) (A) (A) (A) (A)
                 (A) (A) (A) (A) (A) (A) (A) (A) (A) (A) (A) (A)
                 (A) (A) (A) (A) (A) (A) (A) (A) (A) (A) (A) (A)
                 (A) (A) (A) (A) (A) (A) (A) (A) (A) (A) (A) (A)
                 (A) (A) (A) (A) (A) (A) (A) (A) (A) (A) (A) (A)
                 (A) (A) (A) (A) (A) (A) (A) (A) (A) (A) (A) (A)
                 (A) (A) (A) (A) (A) (A) (A) (A) (A) (A) (A) (A)
                 (A) (A) (A) (A) (A) (A) (A) (A) (A) (A) (A) (A)
                 (A) (A) (A) (A) (A) (A) (A) (A) (A) (A) (A) (A)
                 (A) (A) (A) (A) (A) (A) (A) (A) (A) (A) (A) (A)
                 (A) (A) (A) (A) (A) (A) (A) (A) (A) (A) (A) (A)
                 (A) (A) (A) (A) (A) (A) (A) (A) (A) (A) (A) (A)
                 (A) (A) (A) (A) (A) (A) (A) (A) (A) (A) (A) (A)
                 (A) (A) (A) (A) (A) (A) (A) (A) (A) (A) (A) (A)
                 (A) (A) (A) (A) (A) (A) (A) (A) (A) (A) (A) (A)
                 (A) (A) (A) (A) (A) (A) (A) (A) (A) (A) (A) (A)
                 (A) (A) (A) (A) (A) (A) (A) (A) (A) (A) (A) (A)
                 (A) (A) (A) (A) (A) (A) (A) (A) (A) (A) (A) (A)
                 (A) (A) (A) (A) (A) (A) (A) (A) (A) (A) (A) (A)
                 (A) (A) (A) (A) (A) (A) (A) (A) (A) (A) (A) (A)
                 (A) (A) (A) (A) (A) (A) (A) (A) (A) (A) (A) (A)
                 (A) (A) (A) (A) (A) (A) (A) (A) (A) (A) (A) (A)
                 (A) (A) (A) (A) (A) (A) (A) (A) (A) (A) (A) (A)
                 (A) (A) (A) (A) (A) (A) (A) (A) (A) (A) (A) (A)
                 (A) (A) (A) (A) (A) (A) (A) (A) (A) (A) (A) (A)
                 (A) (A) (A) (A) (A) (A) (A) (A) (A) (A) (A) (A)
                 (A) (A) (A) (A) (A) (A) (A) (A) (A) (A) (A) (A)
                 (A) (A) (A) (A) (A) (A) (A) (A) (A) (A) (A) (A)
                 (A) (A) (A) (A) (A) (A) (A) (A) (A) (A) (A) (A)
                 (A) (A) (A) (A) (A) (A) (A) (A) (A) (A) (A) (A)
                 (A) (A) (A) (A) (A) (A) (A) (A) (A) (A) (A) (A)
                 (A) (A) (A) (A) (A) (A) (A) (A) (A) (A) (A) (A)
                 (A) (A) (A) (A) (A) (A) (A) (A) (A) (A) (A) (A)
                 (A) (A) (A) (A) (A) (A) (A) (A) (A) (A) (A) (A)
                 (A) (A) (A) (A) (A) (A) (A) (A) (A) (A) (A) (A)
                 (A) (A) (A) (A) (A) (A) (A) (A) (A) (A) (A) (A)
                 (A) (A) (A) (A) (A) (A) (A) (A) (A) (A) (A) (A)
                 (A) (A) (A) (A) (A) (A) (A) (A) (A) (A) (A) (A)
                 (A) (A) (A) (A) (A) (A) (A) (A) (A) (A) (A) (A)
                 (A) (A) (A) (A) (A) (A) (A) (A) (A) (A) (A) (A)
                 (A) (A) (A) (A) (A) (A) (A) (A) (A) (A) (A) (A)
                 (A) (A) (A) (A) (A) (A) (A) (A) (A) (A) (A) (A)
                 (A) (A) (A) (A) (A) (A) (A) (A) (A) (A) (A) (A)
                 (A) (A) (A) (A) (A) (A) (A) (A) (A) (A) (A) (A)
                 (A) (A) (A) (A) (A) (A) (A) (A) (A) (A) (A) (A)
                 (A) (A) (A) (A) (A) (A) (A) (A) (A) (A) (A) (A)
                 (A) (A) (A) (A) (A) (A) (A) (A) (A) (A) (A) (A)
                 (A) (A) (A) (A) (A) (A) (A) (A) (A) (A) (A) (A)
                 (A) (A) (A) (A) (A) (A) (A) (A) (A) (A) (A) (A)
                 (A) (A) (A) (A) (A) (A) (A) (A) (A) (A) (A) (A)
                 (A) (A) (A) (A) (A) (A) (A) (A) (A) (A) (A) (A)
                 (A) (A) (A) (A) (A) (A) (A) (A) (A) (A) (A) (A)
                 (A) (A) (A) (A) (A) (A) (A) (A) (A) (A) (A) (A)
                 (A) (A) (A) (A) (A) (A) (A) (A) (A) (A) (A) (A)
                 (A) (A) (A) (A) (A) (A) (A) (A) (A) (A) (A) (A)
                 (A) (A) (A) (A) (A) (A) (A) (A) (A) (A) (A) (A)
                 (A) (A) (A) (A) (A) (A) (A) (A) (A) (A) (A) (A)
                 (A) (A) (A) (A) (A) (A) (A) (A) (A) (A) (A) (A)
                 (A) (A) (A) (A) (A) (A) (A) (A) (A) (A) (A) (A)
                 (A) (A) (A) (A) (A) (A) (A) (A) (A) (A) (A) (A)
                 (A) (A) (A) (A) (A) (A) (A) (A) (A) (A) (A) (A)
                 (A) (A) (A) (A) (A) (A) (A) (A) (A) (A) (A) (A)
                 (A) (A) (A) (A) (A) (A) (A) (A) (A) (A) (A) (A)
                 (A) (A) (A) (A) (A) (A) (A) (A) (A) (A) (A) (A)
                 (A) (A) (A) (A) (A) (A) (A) (A) (A) (A) (A) (A)
                 (A) (A) (A) (A) (A) (A) (A) (A) (A) (A) (A) (A)
                 (A) (A) (A) (A) (A) (A) (A) (A) (A) (A) (A) (A)
                 (A) (A) (A) (A) (A) (A) (A) (A) (A) (A) (A) (A)
                 (A) (A) (A) (A) (A) (A) (A) (A) (A) (A) (A) (A)
                 (A) (A) (A) (A) (A) (A) (A) (A) (A) (A) (A) (A)
                 (A) (A) (A) (A) (A) (A) (A) (A) (A) (A) (A) (A)
                 (A) (A) (A) (A) (A) (A) (A) (A) (A) (A) (A) (A)
                 (A) (A) (A) (A) (A) (A) (A) (A) (A) (A) (A) (A)
                 (A) (A) (A) (A) (A) (A) (A) (A) (A) (A) (A) (A)
                 (A) (A) (A) (A) (A) (A) (A) (A) (A) (A) (A) (A)
                 (A) (A) (A) (A) (A) (A) (A) (A) (A) (A) (A) (A)
                 (A) (A) (A) (A) (A) (A) (A) (A) (A) (A) (A) (A)
                 (A) (A) (A) (A) (A) (A) (A) (A) (A) (A) (A) (A)
                 (A) (A) (A) (A) (A) (A) (A) (A) (A) (A) (A) (A)
                 (A) (A) (A) (A) (A) (A) (A) (A) (A) (A) (A) (A)
                 (A) (A) (A) (A) (A) (A) (A) (A) (A) (A) (A) (A)
                 (A) (A) (A) (A) (A) (A) (A) (A) (A) (A) (A) (A)
                 (A) (A) (A) (A) (A) (A) (A) (A) (A) (A) (A) (A)
                 (A) (A) (A) (A) (A) (A) (A) (A) (A) (A) (A) (A)
                 (A) (A) (A) (A) (A) (A) (A) (A) (A) (A) (A) (A)
                 (A) (A) (A) (A) (A) (A) (A) (A) (A) (A) (A) (A)
                 (A) (A) (A) (A) (A) (A) (A) (A) (A) (A) (A) (A)
                 (A) (A) (A) (A) (A) (A) (A) (A) (A) (A) (A) (A)
                 (A) (A) (A) (A) (A) (A) (A) (A) (A) (A) (A) (A)
                 (A) (A) (A) (A) (A) (A) (A) (A) (A) (A) (A) (A)
                 (A) (A) (A) (A) (A) (A) (A) (A) (A) (A) (A) (A)
                 (A) (A) (A) (A) (A) (A) (A) (A) (A) (A) (A) (A)
                 (A) (A) (A) (A) (A) (A) (A) (A) (A) (A) (A) (A)
                 (A) (A) (A) (A) (A) (A) (A) (A) (A) (A) (A) (A)
                 (A) (A) (A) (A) (A) (A) (A) (A) (A) (A) (A) (A)
                 (A) (A) (A) (A) (A) (A) (A) (A) (A) (A) (A) (A)
                 (A) (A) (A) (A) (A) (A) (A) (A) (A) (A) (A) (A)
                 (A) (A) (A) (A) (A) (A) (A) (A) (A) (A) (A) (A)
                 (A) (A) (A) (A) (A) (A) (A) (A) (A) (A) (A) (A)
                 (A) (A) (A) (A) (A) (A) (A) (A) (A) (A) (A) (A)
                 (A) (A) (A) (A) (A) (A) (A) (A) (A) (A) (A) (A)
                 (A) (A) (A) (A) (A) (A) (A) (A) (A) (A) (A) (A)
                 (A) (A) (A) (A) (A) (A) (A) (A) (A) (A) (A) (A)
                 (A) (A) (A) (A) (A) (A) (A) (A) (A) (A) (A) (A)
                 (A) (A) (A) (A) (A) (A) (A) (A) (A) (A) (A) (A)
                 (A) (A) (A) (A) (A) (A) (A) (A) (A) (A) (A) (A)
                 (A) (A) (A) (A) (A) (A) (A) (A) (A) (A) (A) (A)
                 (A) (A) (A) (A) (A) (A) (A) (A) (A) (A) (A) (A)
                 (A) (A) (A) (A) (A) (A) (A) (A) (A) (A) (A) (A)
                 (A) (A) (A) (A) (A) (A) (A) (A) (A) (A) (A) (A)
                 (A) (A) (A) (A) (A) (A) (A) (A) (A) (A) (A) (A)
                 (A) (A) (A) (A) (A) (A) (A) (A) (A) (A) (A) (A)
                 (A) (A) (A) (A) (A) (A) (A) (A) (A) (A) (A) (A)
                 (A) (A) (A) (A) (A) (A) (A) (A) (A) (A) (A) (A)
                 (A) (A) (A) (A) (A) (A) (A) (A) (A) (A) (A) (A)
                 (A) (A) (A) (A) (A) (A) (A) (A) (A) (A) (A) (A)
                 (A) (A) (A) (A) (A) (A) (A) (A) (A) (A) (A) (A)
                 (A) (A) (A) (A) (A) (A) (A) (A) (A) (A) (A) (A)
                 (A) (A) (A) (A) (A) (A) (A) (A) (A) (A) (A) (A)
                 (A) (A) (A) (A) (A) (A) (A) (A) (A) (A) (A) (A)
                 (A) (A) (A) (A) (A) (A) (A) (A) (A) (A) (A) (A)
                 (A) (A) (A) (A) (A) (A) (A) (A) (A) (A) (A) (A)
                 (A) (A) (A) (A) (A) (A) (A) (A) (A) (A) (A) (A)
                 (A) (A) (A) (A) (A) (A) (A) (A) (A) (A) (A) (A)
                 (A) (A) (A) (A) (A) (A) (A) (A) (A) (A) (A) (A)
                 (A) (A) (A) (A) (A) (A) (A) (A) (A) (A) (A) (A)
                 (A) (A) (A) (A) (A) (A) (A) (A) (A) (A) (A) (A)
                 (A) (A) (A) (A) (A) (A) (A) (A) (A) (A) (A) (A)
                 (A) (A) (A) (A) (A) (A) (A) (A) (A) (A) (A) (A)
                 (A) (A) (A) (A) (A) (A) (A) (A) (A) (A) (A) (A)
                 (A) (A) (A) (A) (A) (A) (A) (A) (A) (A) (A) (A)
                 (A) (A) (A) (A) (A) (A) (A) (A) (A) (A) (A) (A)
                 (A) (A) (A) (A) (A) (A) (A) (A) (A) (A) (A) (A)
                 (A) (A) (A) (A) (A) (A) (A) (A) (A) (A) (A) (A)
                 (A) (A) (A) (A) (A) (A) (A) (A) (A) (A) (A) (A)
                 (A) (A) (A) (A) (A) (A) (A) (A) (A) (A) (A) (A)
                 (A) (A) (A) (A) (A) (A) (A) (A) (A) (A) (A) (A)
                 (A) (A) (A) (A) (A) (A) (A) (A) (A) (A) (A) (A)
                 (A) (A) (A) (A) (A) (A) (A) (A) (A) (A) (A) (A)
                 (A) (A) (A) (A) (A) (A) (A) (A) (A) (A) (A) (A)
                 (A) (A) (A) (A) (A) (A) (A) (A) (A) (A) (A) (A)
                 (A) (A) (A) (A) (A) (A) (A) (A) (A) (A) (A) (A)
                 (A) (A) (A) (A) (A) (A) (A) (A) (A) (A) (A) (A)
                 (A) (A) (A) (A) (A) (A) (A) (A) (A) (A) (A) (A)
                 (A) (A) (A) (A) (A) (A) (A) (A) (A) (A) (A) (A)
                 (A) (A) (A) (A) (A) (A) (A) (A) (A) (A) (A) (A)
                 (A) (A) (A) (A) (A) (A) (A) (A) (A) (A) (A) (A)
                 (A) (A) (A) (A) (A) (A) (A) (A) (A) (A) (A) (A)
                 (A) (A) (A) (A) (A) (A) (A) (A) (A) (A) (A) (A)
                 (A) (A) (A) (A) (A) (A) (A) (A) (A) (A) (A) (A)
                 (A) (A) (A) (A) (A) (A) (A) (A) (A) (A) (A) (A)
                 (A) (A) (A) (A) (A) (A) (A) (A) (A) (A) (A) (A)
                 (A) (A) (A) (A) (A) (A) (A) (A) (A) (A) (A) (A)
                 (A) (A) (A) (A) (A) (A) (A) (A) (A) (A) (A) (A)
                 (A) (A) (A) (A) (A) (A) (A) (A) (A) (A) (A) (A)
                 (A) (A) (A) (A) (A) (A) (A) (A) (A) (A) (A) (A)
                 (A) (A) (A) (A) (A) (A) (A) (A) (A) (A) (A) (A)
                 (A) (A) (A) (A) (A) (A) (A) (A) (A) (A) (A) (A)
                 (A) (A) (A) (A) (A) (A) (A) (A) (A) (A) (A) (A)
                 (A) (A) (A) (A) (A) (A) (A) (A) (A) (A) (A) (A)
                 (A) (A) (A) (A) (A) (A) (A) (A) (A) (A) (A) (A)
                 (A) (A) (A) (A) (A) (A) (A) (A) (A) (A) (A) (A)
                 (A) (A) (A) (A) (A) (A) (A) (A) (A) (A) (A) (A)
                 (A) (A) (A) (A) (A) (A) (A) (A) (A) (A) (A) (A)
                 (A) (A) (A) (A) (A) (A) (A) (A) (A) (A) (A) (A)
                 (A) (A) (A) (A) (A) (A) (A) (A) (A) (A) (A) (A)
                 (A) (A) (A) (A) (A) (A) (A) (A) (A) (A) (A) (A)
                 (A) (A) (A) (A) (A) (A) (A) (A) (A) (A) (A) (A)
                 (A) (A) (A) (A) (A) (A) (A) (A) (A) (A) (A) (A)
                 (A) (A) (A) (A) (A) (A) (A) (A) (A) (A) (A) (A)
                 (A) (A) (A) (A) (A) (A) (A) (A) (A) (A) (A) (A)
                 (A) (A) (A) (A) (A) (A) (A) (A) (A) (A) (A) (A)
                 (A) (A) (A) (A) (A) (A) (A) (A) (A) (A) (A) (A)
                 (A) (A) (A) (A) (A) (A) (A) (A) (A) (A) (A) (A)
                 (A) (A) (A) (A) (A) (A) (A) (A) (A) (A) (A) (A)
                 (A) (A) (A) (A) (A) (A) (A) (A) (A) (A) (A) (A)
                 (A) (A) (A) (A) (A) (A) (A) (A) (A) (A) (A) (A)
                 (A) (A) (A) (A) (A) (A) (A) (A) (A) (A)
 The electronic state is 1-A.
 Alpha  occ. eigenvalues --  -19.21159 -14.38274 -14.37870 -14.37753 -14.37608
 Alpha  occ. eigenvalues --  -14.37478 -14.37172 -14.37069 -14.36903 -10.31611
 Alpha  occ. eigenvalues --  -10.27318 -10.26918 -10.26874 -10.26690 -10.26533
 Alpha  occ. eigenvalues --  -10.26225 -10.26048 -10.25967 -10.25593 -10.25533
 Alpha  occ. eigenvalues --  -10.25386 -10.25324 -10.25284 -10.25267 -10.25205
 Alpha  occ. eigenvalues --  -10.25189 -10.25159 -10.25127 -10.25030 -10.24861
 Alpha  occ. eigenvalues --  -10.24270 -10.24210 -10.24200 -10.24191 -10.24164
 Alpha  occ. eigenvalues --  -10.24048 -10.24045 -10.24001 -10.23737 -10.23727
 Alpha  occ. eigenvalues --  -10.23696 -10.23668 -10.23665 -10.23569 -10.23133
 Alpha  occ. eigenvalues --  -10.23098 -10.22846 -10.22694 -10.22620 -10.22398
 Alpha  occ. eigenvalues --  -10.22149 -10.21777 -10.20805 -10.20746 -10.20515
 Alpha  occ. eigenvalues --  -10.20504 -10.20347 -10.20292 -10.20268 -10.20125
 Alpha  occ. eigenvalues --  -10.20097 -10.20097 -10.20073 -10.19899 -10.19728
 Alpha  occ. eigenvalues --  -10.19726 -10.19582 -10.19013  -1.08790  -0.98359
 Alpha  occ. eigenvalues --   -0.98260  -0.97865  -0.97329  -0.95444  -0.95300
 Alpha  occ. eigenvalues --   -0.94846  -0.94350  -0.91235  -0.90172  -0.89565
 Alpha  occ. eigenvalues --   -0.85101  -0.84880  -0.84615  -0.83574  -0.82680
 Alpha  occ. eigenvalues --   -0.82371  -0.82200  -0.81446  -0.81154  -0.80648
 Alpha  occ. eigenvalues --   -0.79953  -0.79774  -0.79529  -0.79268  -0.75073
 Alpha  occ. eigenvalues --   -0.74620  -0.74348  -0.73709  -0.70777  -0.70737
 Alpha  occ. eigenvalues --   -0.70517  -0.70370  -0.70318  -0.70122  -0.69890
 Alpha  occ. eigenvalues --   -0.69757  -0.69606  -0.69474  -0.69090  -0.68750
 Alpha  occ. eigenvalues --   -0.68734  -0.66866  -0.66603  -0.66313  -0.64659
 Alpha  occ. eigenvalues --   -0.64102  -0.63705  -0.63126  -0.62188  -0.60130
 Alpha  occ. eigenvalues --   -0.60035  -0.59886  -0.58926  -0.58123  -0.57903
 Alpha  occ. eigenvalues --   -0.57628  -0.56662  -0.56594  -0.56128  -0.55955
 Alpha  occ. eigenvalues --   -0.55655  -0.54781  -0.54581  -0.54383  -0.53575
 Alpha  occ. eigenvalues --   -0.53375  -0.52526  -0.52021  -0.51924  -0.51124
 Alpha  occ. eigenvalues --   -0.50893  -0.50567  -0.50472  -0.50148  -0.49958
 Alpha  occ. eigenvalues --   -0.49637  -0.49351  -0.49196  -0.48684  -0.48561
 Alpha  occ. eigenvalues --   -0.48240  -0.47872  -0.47582  -0.47020  -0.46846
 Alpha  occ. eigenvalues --   -0.46582  -0.46296  -0.46039  -0.45602  -0.45269
 Alpha  occ. eigenvalues --   -0.45189  -0.45079  -0.44820  -0.44647  -0.44324
 Alpha  occ. eigenvalues --   -0.44209  -0.44135  -0.43971  -0.43672  -0.43422
 Alpha  occ. eigenvalues --   -0.43298  -0.43162  -0.43058  -0.42699  -0.42484
 Alpha  occ. eigenvalues --   -0.42472  -0.42353  -0.42180  -0.41737  -0.41709
 Alpha  occ. eigenvalues --   -0.41209  -0.40626  -0.40340  -0.40295  -0.40219
 Alpha  occ. eigenvalues --   -0.39968  -0.39872  -0.39641  -0.39476  -0.39422
 Alpha  occ. eigenvalues --   -0.39252  -0.39102  -0.39036  -0.38968  -0.38823
 Alpha  occ. eigenvalues --   -0.38734  -0.38664  -0.38425  -0.38184  -0.38005
 Alpha  occ. eigenvalues --   -0.37786  -0.37617  -0.37589  -0.37035  -0.36923
 Alpha  occ. eigenvalues --   -0.36712  -0.36352  -0.35869  -0.35415  -0.35355
 Alpha  occ. eigenvalues --   -0.35281  -0.35111  -0.35043  -0.35008  -0.34885
 Alpha  occ. eigenvalues --   -0.34775  -0.34522  -0.34501  -0.34280  -0.34204
 Alpha  occ. eigenvalues --   -0.34038  -0.33913  -0.33529  -0.33494  -0.33417
 Alpha  occ. eigenvalues --   -0.33334  -0.33057  -0.32904  -0.32688  -0.32598
 Alpha  occ. eigenvalues --   -0.32274  -0.31825  -0.31495  -0.30009  -0.29383
 Alpha  occ. eigenvalues --   -0.28500  -0.27887  -0.27546  -0.27277  -0.27147
 Alpha  occ. eigenvalues --   -0.27011  -0.26714  -0.26666  -0.26540  -0.26371
 Alpha  occ. eigenvalues --   -0.25905  -0.25826  -0.25446  -0.25169  -0.25066
 Alpha virt. eigenvalues --   -0.07904  -0.06767  -0.06270  -0.05738  -0.05476
 Alpha virt. eigenvalues --   -0.05113  -0.03157  -0.02250  -0.01172   0.03528
 Alpha virt. eigenvalues --    0.03816   0.03839   0.04034   0.04382   0.04527
 Alpha virt. eigenvalues --    0.04575   0.04811   0.04910   0.05321   0.05440
 Alpha virt. eigenvalues --    0.05488   0.05694   0.05846   0.05994   0.06179
 Alpha virt. eigenvalues --    0.06314   0.06611   0.06652   0.07177   0.07502
 Alpha virt. eigenvalues --    0.07649   0.07808   0.08008   0.08124   0.08288
 Alpha virt. eigenvalues --    0.08429   0.08909   0.09006   0.09109   0.09139
 Alpha virt. eigenvalues --    0.09262   0.09747   0.09752   0.10030   0.10118
 Alpha virt. eigenvalues --    0.10194   0.10347   0.10437   0.10569   0.10858
 Alpha virt. eigenvalues --    0.11094   0.11285   0.11364   0.11490   0.11609
 Alpha virt. eigenvalues --    0.11683   0.11926   0.12099   0.12251   0.12433
 Alpha virt. eigenvalues --    0.12538   0.12551   0.13091   0.13135   0.13355
 Alpha virt. eigenvalues --    0.13602   0.13677   0.13741   0.14035   0.14193
 Alpha virt. eigenvalues --    0.14253   0.14462   0.14637   0.14682   0.14856
 Alpha virt. eigenvalues --    0.14924   0.15106   0.15228   0.15252   0.15476
 Alpha virt. eigenvalues --    0.15715   0.15865   0.15964   0.16105   0.16221
 Alpha virt. eigenvalues --    0.16284   0.16481   0.16593   0.16604   0.16652
 Alpha virt. eigenvalues --    0.16702   0.16821   0.16954   0.17037   0.17120
 Alpha virt. eigenvalues --    0.17283   0.17449   0.17527   0.17581   0.17656
 Alpha virt. eigenvalues --    0.17807   0.17944   0.18220   0.18324   0.18561
 Alpha virt. eigenvalues --    0.18631   0.18705   0.18950   0.19162   0.19245
 Alpha virt. eigenvalues --    0.19341   0.19613   0.19684   0.19909   0.20141
 Alpha virt. eigenvalues --    0.20276   0.20298   0.20532   0.20832   0.20838
 Alpha virt. eigenvalues --    0.20966   0.21018   0.21062   0.21203   0.21390
 Alpha virt. eigenvalues --    0.21446   0.21506   0.21557   0.21893   0.21927
 Alpha virt. eigenvalues --    0.21968   0.22141   0.22192   0.22299   0.22378
 Alpha virt. eigenvalues --    0.22567   0.22700   0.22757   0.22935   0.23006
 Alpha virt. eigenvalues --    0.23184   0.23362   0.23449   0.23512   0.23723
 Alpha virt. eigenvalues --    0.23995   0.24085   0.24346   0.24466   0.24538
 Alpha virt. eigenvalues --    0.24555   0.24772   0.24903   0.25140   0.25260
 Alpha virt. eigenvalues --    0.25330   0.25420   0.25624   0.25943   0.25993
 Alpha virt. eigenvalues --    0.26032   0.26296   0.26396   0.26593   0.26783
 Alpha virt. eigenvalues --    0.27053   0.27247   0.27350   0.27513   0.27704
 Alpha virt. eigenvalues --    0.27883   0.28027   0.28182   0.28402   0.28540
 Alpha virt. eigenvalues --    0.28852   0.28975   0.29057   0.29258   0.29442
 Alpha virt. eigenvalues --    0.29698   0.29928   0.30030   0.30256   0.30510
 Alpha virt. eigenvalues --    0.30609   0.30734   0.30943   0.30993   0.31034
 Alpha virt. eigenvalues --    0.31174   0.31594   0.31645   0.31720   0.31902
 Alpha virt. eigenvalues --    0.32035   0.32151   0.32337   0.32423   0.32663
 Alpha virt. eigenvalues --    0.32858   0.32892   0.33086   0.33161   0.33347
 Alpha virt. eigenvalues --    0.33491   0.33747   0.33879   0.33963   0.34073
 Alpha virt. eigenvalues --    0.34273   0.34591   0.34703   0.35065   0.35233
[...]
 Alpha virt. eigenvalues --    3.78052   3.78134   3.78441   3.78812   3.78989
 Alpha virt. eigenvalues --    3.79115   3.79302   3.79455   3.79917   3.80274
 Alpha virt. eigenvalues --    3.80566   3.80926   3.81115   3.81775   3.81917
 Alpha virt. eigenvalues --    3.82445   3.82528   3.82674   3.83158   3.83355
 Alpha virt. eigenvalues --    3.83770   3.83972   3.84072   3.84555   3.84841
 Alpha virt. eigenvalues --    3.84973   3.85250   3.85895   3.86659   3.86895
 Alpha virt. eigenvalues --    3.86988   3.87070   3.87353   3.87807   3.88378
 Alpha virt. eigenvalues --    3.88601   3.88792   3.89155   3.89630   3.89817
 Alpha virt. eigenvalues --    3.89926   3.90517   3.90833   3.91495   3.92394
 Alpha virt. eigenvalues --    3.92568   3.92958   3.93057   3.93624   3.93860
 Alpha virt. eigenvalues --    3.94252   3.95099   3.95967   3.96185   3.96715
 Alpha virt. eigenvalues --    3.97172   3.97643   3.98042   3.98565   3.98697
 Alpha virt. eigenvalues --    3.99277   3.99402   3.99942   4.00644   4.00930
 Alpha virt. eigenvalues --    4.01441   4.01646   4.02014   4.02086   4.02494
 Alpha virt. eigenvalues --    4.02758   4.02982   4.03260   4.03571   4.03765
 Alpha virt. eigenvalues --    4.04209   4.04948   4.05401   4.05462   4.05963
 Alpha virt. eigenvalues --    4.06194   4.06352   4.06681   4.07011   4.07541
 Alpha virt. eigenvalues --    4.07793   4.07993   4.08407   4.08554   4.09014
 Alpha virt. eigenvalues --    4.09305   4.09700   4.09973   4.10327   4.10403
 Alpha virt. eigenvalues --    4.10878   4.11547   4.11646   4.11962   4.12099
 Alpha virt. eigenvalues --    4.12505   4.12729   4.12940   4.13464   4.13754
 Alpha virt. eigenvalues --    4.13928   4.14168   4.14355   4.14603   4.14757
 Alpha virt. eigenvalues --    4.15275   4.15625   4.15829   4.15902   4.16064
 Alpha virt. eigenvalues --    4.16183   4.16312   4.16514   4.16854   4.16886
 Alpha virt. eigenvalues --    4.17186   4.17509   4.17623   4.18089   4.18295
 Alpha virt. eigenvalues --    4.18392   4.18658   4.18802   4.19078   4.19476
 Alpha virt. eigenvalues --    4.19603   4.20029   4.20122   4.20475   4.20579
 Alpha virt. eigenvalues --    4.20834   4.20936   4.21321   4.21756   4.22296
 Alpha virt. eigenvalues --    4.22524   4.22838   4.23123   4.23822   4.23898
 Alpha virt. eigenvalues --    4.24280   4.24437   4.24849   4.25067   4.25390
 Alpha virt. eigenvalues --    4.25776   4.25906   4.26193   4.26663   4.26794
 Alpha virt. eigenvalues --    4.27012   4.27488   4.27824   4.28247   4.28907
 Alpha virt. eigenvalues --    4.29136   4.29461   4.30184   4.30613   4.31403
 Alpha virt. eigenvalues --    4.31653   4.31900   4.32436   4.32685   4.33181
 Alpha virt. eigenvalues --    4.33270   4.33484   4.33835   4.33924   4.34418
 Alpha virt. eigenvalues --    4.34611   4.35143   4.35483   4.35986   4.36718
 Alpha virt. eigenvalues --    4.37260   4.37370   4.37690   4.38033   4.38192
 Alpha virt. eigenvalues --    4.38767   4.39175   4.39555   4.39860   4.40138
 Alpha virt. eigenvalues --    4.41019   4.41317   4.41602   4.41996   4.42167
 Alpha virt. eigenvalues --    4.42434   4.42875   4.43222   4.43529   4.43751
 Alpha virt. eigenvalues --    4.44208   4.44545   4.44737   4.45088   4.45187
 Alpha virt. eigenvalues --    4.45505   4.45701   4.45878   4.45943   4.46231
 Alpha virt. eigenvalues --    4.46389   4.46553   4.46679   4.46947   4.47303
 Alpha virt. eigenvalues --    4.47449   4.47900   4.47934   4.48183   4.48429
 Alpha virt. eigenvalues --    4.48769   4.49315   4.49685   4.49877   4.50364
 Alpha virt. eigenvalues --    4.50681   4.51199   4.51688   4.51876   4.52709
 Alpha virt. eigenvalues --    4.53245   4.53662   4.54054   4.54650   4.55388
 Alpha virt. eigenvalues --    4.56787   4.57294   4.57481   4.58520   4.58783
 Alpha virt. eigenvalues --    4.59110   4.59951   4.60481   4.60919   4.61350
 Alpha virt. eigenvalues --    4.61596   4.61762   4.62103   4.62297   4.62439
 Alpha virt. eigenvalues --    4.62888   4.63025   4.63324   4.64528   4.65317
 Alpha virt. eigenvalues --    4.65853   4.66193   4.66585   4.66753   4.67210
 Alpha virt. eigenvalues --    4.67252   4.67723   4.68336   4.68790   4.68964
 Alpha virt. eigenvalues --    4.69307   4.69414   4.69792   4.70213   4.70690
 Alpha virt. eigenvalues --    4.71002   4.71246   4.71643   4.72933   4.73317
 Alpha virt. eigenvalues --    4.73359   4.75998   4.76200   4.76639   4.77081
 Alpha virt. eigenvalues --    4.77540   4.77956   4.78347   4.78642   4.79637
 Alpha virt. eigenvalues --    4.79852   4.80128   4.80354   4.80860   4.81516
 Alpha virt. eigenvalues --    4.82848   4.83226   4.84291   4.85461   4.85754
 Alpha virt. eigenvalues --    4.86170   4.87116   4.87642   4.88195   4.88657
 Alpha virt. eigenvalues --    4.90009   4.90700   4.91116   4.91356   4.91957
 Alpha virt. eigenvalues --    4.92401   4.92488   4.92590   4.92877   4.93478
 Alpha virt. eigenvalues --    4.93909   4.94183   4.94493   4.94739   4.95225
 Alpha virt. eigenvalues --    4.95566   4.95925   4.96476   4.96962   4.97279
 Alpha virt. eigenvalues --    4.97853   4.98275   4.98557   4.99083   4.99409
 Alpha virt. eigenvalues --    4.99568   5.00103   5.00699   5.01065   5.01481
 Alpha virt. eigenvalues --    5.02557   5.02754   5.03196   5.03609   5.03838
 Alpha virt. eigenvalues --    5.04193   5.04638   5.04792   5.06030   5.08135
 Alpha virt. eigenvalues --    5.10879   5.11265   5.11792   5.12563   5.13314
 Alpha virt. eigenvalues --    5.13575   5.14512   5.15187   5.15300   5.15933
 Alpha virt. eigenvalues --    5.16580   5.17012   5.17791   5.17929   5.18822
 Alpha virt. eigenvalues --    5.19596   5.20254   5.21335   5.22711   5.24687
 Alpha virt. eigenvalues --    5.25158   5.25611   5.26565   5.26838   5.27661
 Alpha virt. eigenvalues --    5.28280   5.28569   5.28894   5.29226   5.29866
 Alpha virt. eigenvalues --    5.30650   5.30755   5.31463   5.33278   5.35201
 Alpha virt. eigenvalues --    5.36047   5.37633   5.38523   5.39440   5.39726
 Alpha virt. eigenvalues --    5.40069   5.40394   5.41201   5.41641   5.42062
 Alpha virt. eigenvalues --    5.42604   5.43064   5.43879   5.44776   5.45430
 Alpha virt. eigenvalues --    5.46348   5.47458   5.48253   5.48832   5.49002
 Alpha virt. eigenvalues --    5.49659   5.50194   5.50515   5.51003   5.51756
 Alpha virt. eigenvalues --    5.51920   5.52373   5.53657   5.54039   5.54561
 Alpha virt. eigenvalues --    5.54955   5.55359   5.56398   5.57941   5.58364
 Alpha virt. eigenvalues --    5.58939   5.59939   5.62289   5.65275   5.66908
 Alpha virt. eigenvalues --    5.68192   5.69922   5.71326   5.72516   5.72820
 Alpha virt. eigenvalues --    5.75004   5.76215   5.77011   5.79122   5.79822
 Alpha virt. eigenvalues --    5.80616   5.81874   5.82130   5.83151   5.83520
 Alpha virt. eigenvalues --    5.83956   5.85296   5.85981   5.97416   5.98112
 Alpha virt. eigenvalues --    5.99575   6.00843   6.02709   6.05390   6.05968
 Alpha virt. eigenvalues --    6.06457   6.06662   6.07779   6.09526   6.09778
 Alpha virt. eigenvalues --    6.10342   6.11560   6.12515   6.13624   6.14402
 Alpha virt. eigenvalues --    6.41198   6.41852   6.54696   6.55644   6.87084
 Alpha virt. eigenvalues --    7.04949   7.13736  22.44987  22.47996  22.48701
 Alpha virt. eigenvalues --   22.49668  22.50277  22.50314  22.50652  22.51168
 Alpha virt. eigenvalues --   22.51279  22.51357  22.51435  22.51494  22.51708
 Alpha virt. eigenvalues --   22.52545  22.52633  22.52744  22.53300  22.54218
 Alpha virt. eigenvalues --   22.56148  22.72404  22.73180  22.74553  22.75278
 Alpha virt. eigenvalues --   22.76437  22.78156  22.78551  22.79603  22.87296
 Alpha virt. eigenvalues --   22.88687  22.89286  22.89881  22.91521  22.91960
 Alpha virt. eigenvalues --   22.93185  22.93293  22.94011  22.95098  22.95756
 Alpha virt. eigenvalues --   22.96389  22.96667  23.00188  23.06698  23.10216
 Alpha virt. eigenvalues --   23.12136  23.13351  23.14992  23.16002  23.16306
 Alpha virt. eigenvalues --   23.17256  23.17651  23.18267  23.19250  23.20159
 Alpha virt. eigenvalues --   23.21279  23.21661  23.24571  23.51900  23.54008
 Alpha virt. eigenvalues --   23.55810  32.77207  32.80144  32.82044  32.84959
 Alpha virt. eigenvalues --   32.91770  32.93860  32.95699  32.97763  44.07427
          Condensed to atoms (all electrons):
 Mulliken charges:
               1
     1  C    0.374238
     2  C   -0.187573
     3  C   -0.351254
     4  C    0.404948
     5  H    0.128472
     6  C   -0.372367
     7  C    0.352848
     8  H    0.135506
     9  C   -0.291221
    10  C   -0.176601
    11  H    0.129973
    12  C   -0.204694
    13  H    0.072037
    14  H    0.084946
    15  H    0.078513
    16  C    0.325811
    17  C    0.048139
    18  C   -0.385590
    19  C    0.391755
    20  H    0.150533
    21  C   -0.366295
    22  C    0.368048
    23  H    0.142081
    24  C   -0.300355
    25  C   -0.161941
    26  H    0.123139
    27  C   -0.146248
    28  H    0.075803
    29  H    0.084230
    30  H    0.082224
    31  C    0.354072
    32  C   -0.198595
    33  C   -0.294745
    34  C    0.385818
    35  H    0.130145
    36  C   -0.372513
    37  C    0.371628
    38  H    0.135053
    39  C   -0.319411
    40  C   -0.161246
    41  H    0.114151
    42  C   -0.187360
    43  H    0.083037
    44  H    0.084741
    45  C    0.115483
    46  C    0.130863
    47  N   -0.259688
    48  H    0.075840
    49  C   -0.038241
    50  N   -0.262832
    51  H    0.068242
    52  C    0.007099
    53  H    0.073869
    54  C   -0.399090
    55  C   -0.391917
    56  H    0.069420
    57  C   -0.423934
    58  C   -0.385656
    59  H    0.120209
    60  H    0.121742
    61  H    0.133963
    62  H    0.117060
    63  H    0.115399
    64  H    0.134802
    65  H    0.125509
    66  H    0.112453
    67  H    0.119818
    68  H    0.116363
    69  H    0.150755
    70  H    0.113228
    71  O   -0.314429
    72  C    0.089831
    73  C    0.104410
    74  N   -0.245482
    75  H    0.082682
    76  C   -0.006044
    77  N   -0.253495
    78  H    0.082930
    79  C   -0.029850
    80  H    0.081934
    81  C   -0.410370
    82  C   -0.388160
    83  H    0.085543
    84  C   -0.407591
    85  C   -0.381589
    86  H    0.112725
    87  H    0.122107
    88  H    0.133477
    89  H    0.138071
    90  H    0.118534
    91  H    0.118614
    92  H    0.125436
    93  H    0.127993
    94  H    0.113134
    95  H    0.137139
    96  H    0.119879
    97  H    0.121926
    98  C    0.098671
    99  C    0.100524
   100  N   -0.254534
   101  H    0.080015
   102  C   -0.026346
   103  N   -0.255811
   104  H    0.076096
   105  C    0.001878
   106  H    0.079242
   107  C   -0.403903
   108  C   -0.383146
   109  H    0.076925
   110  C   -0.409910
   111  C   -0.388464
   112  H    0.128553
   113  H    0.113192
   114  H    0.124206
   115  H    0.118391
   116  H    0.138621
   117  H    0.118138
   118  H    0.130855
   119  H    0.112629
   120  H    0.121192
   121  H    0.117241
   122  H    0.136923
   123  H    0.117241
   124  C    0.127029
   125  C    0.101959
   126  N   -0.243305
   127  H    0.051324
   128  C    0.002501
   129  N   -0.254278
   130  H    0.046687
   131  C   -0.025545
   132  H    0.064353
   133  C   -0.386108
   134  C   -0.383559
   135  H    0.068849
   136  C   -0.384224
   137  C   -0.385047
   138  H    0.126754
   139  H    0.115635
   140  H    0.121383
   141  H    0.110536
   142  H    0.131220
   143  H    0.117007
   144  H    0.123784
   145  H    0.128087
   146  H    0.117811
   147  H    0.118988
   148  H    0.110330
   149  H    0.137629
   150  H    0.097789
 Sum of Mulliken charges =  -0.00000
 Mulliken charges with hydrogens summed into heavy atoms:
               1
     1  C    0.374238
     2  C   -0.102627
     3  C   -0.222782
     4  C    0.404948
     6  C   -0.236861
     7  C    0.352848
     9  C   -0.161248
    10  C   -0.104564
    12  C   -0.126181
    16  C    0.325811
    17  C    0.132369
    18  C   -0.235057
    19  C    0.391755
    21  C   -0.224214
    22  C    0.368048
    24  C   -0.177216
    25  C   -0.086138
    27  C   -0.064024
    31  C    0.354072
    32  C   -0.100806
    33  C   -0.164599
    34  C    0.385818
    36  C   -0.237460
    37  C    0.371628
    39  C   -0.205261
    40  C   -0.078209
    42  C   -0.102619
    45  C    0.191324
    46  C    0.199106
    47  N   -0.259688
    49  C    0.035628
    50  N   -0.262832
    52  C    0.076518
    54  C   -0.031829
    55  C   -0.016004
    57  C   -0.043587
    58  C   -0.027876
    71  O   -0.314429
    72  C    0.172513
    73  C    0.187340
    74  N   -0.245482
    76  C    0.075889
    77  N   -0.253495
    79  C    0.055693
    81  C   -0.035152
    82  C   -0.019850
    84  C   -0.028647
    85  C   -0.015025
    98  C    0.178686
    99  C    0.176620
   100  N   -0.254534
   102  C    0.052896
   103  N   -0.255811
   105  C    0.078802
   107  C   -0.028754
   108  C   -0.017196
   110  C   -0.038506
   111  C   -0.023789
   124  C    0.178352
   125  C    0.148646
   126  N   -0.243305
   128  C    0.066854
   129  N   -0.254278
   131  C    0.043304
   133  C   -0.027346
   134  C   -0.019787
   136  C   -0.017277
   137  C   -0.015364
 Electronic spatial extent (au):  <R**2>=          59378.4968
 Charge=             -0.0000 electrons
 Dipole moment (field-independent basis, Debye):
    X=             -0.8852    Y=              0.0201    Z=             -2.8052  Tot=              2.9416
 Quadrupole moment (field-independent basis, Debye-Ang):
   XX=           -408.5210   YY=           -407.4725   ZZ=           -415.1383
   XY=              0.6249   XZ=              3.3787   YZ=              0.0440
 Traceless Quadrupole moment (field-independent basis, Debye-Ang):
   XX=              1.8562   YY=              2.9048   ZZ=             -4.7610
   XY=              0.6249   XZ=              3.3787   YZ=              0.0440
 Octapole moment (field-independent basis, Debye-Ang**2):
  XXX=              9.7054  YYY=             60.9215  ZZZ=            -27.4489  XYY=            -71.4558
  XXY=            -77.7820  XXZ=            -51.8868  XZZ=             33.3909  YZZ=             -4.7323
  YYZ=            -45.1223  XYZ=              6.2014
 Hexadecapole moment (field-independent basis, Debye-Ang**3):
 XXXX=         -29939.9505 YYYY=         -29101.4180 ZZZZ=         -22917.0770 XXXY=             62.1838
 XXXZ=           -177.4779 YYYX=             49.1165 YYYZ=            -74.0333 ZZZX=            117.2254
 ZZZY=            -56.2493 XXYY=          -9766.4800 XXZZ=          -8747.9180 YYZZ=          -8664.6791
 XXYZ=             82.4280 YYXZ=            111.7138 ZZXY=            -32.7901
 N-N= 1.125806412424D+04 E-N=-2.904070924716D+04  KE= 2.795486139855D+03
 Leave Link  601 at Mon Oct 18 11:10:57 2021, MaxMem=  7864320000 cpu:              55.3 elap:               2.3
 (Enter /apps/gaussian/g16-c01-avx/g16/l9999.exe)
 Unable to Open any file for archive entry.
 1\1\GINC-CX3-6-1\SP\RPBE1PBE\def2TZVP\C59H82N8O1\ATARZIA\18-Oct-2021\0
 \\#P PBE1PBE/Def2TZVP SP SCF=(YQC,MaxCycle=900) int=(Grid=Superfinegri
 d) EmpiricalDispersion=GD3\\_3_alde1_4_ami1_1_opt_gas\\0,1\C,0,-3.5566
 ,-1.7611,-0.8335\C,0,-3.724,-1.4111,0.5693\C,0,-2.8403,-2.8934,-1.2165
 \C,0,-2.6275,-3.1775,-2.5613\H,0,-2.4555,-3.5419,-0.4443\C,0,-3.0905,-
 2.2876,-3.5309\C,0,-3.8089,-1.1559,-3.1645\H,0,-2.8845,-2.5056,-4.5678
 \C,0,-4.0652,-0.9185,-1.8148\C,0,-4.2275,-0.1836,-4.1656\H,0,-4.6407,-
 0.0451,-1.5522\C,0,-1.9077,-4.384,-2.9373\H,0,-3.7342,-0.2704,-5.1467\
 H,0,-4.4117,-0.576,0.7687\H,0,-1.5974,-5.0277,-2.0997\C,0,1.3972,-2.39
 5,0.1117\C,0,0.8464,-2.802,1.4087\C,0,2.1787,-1.2426,0.0221\C,0,2.6743
 ,-0.8172,-1.205\H,0,2.3962,-0.6923,0.9271\C,0,2.3597,-1.5469,-2.351\C,
 0,1.6028,-2.711,-2.2731\H,0,2.7343,-1.1911,-3.2988\C,0,1.1303,-3.1371,
 -1.0337\C,0,1.2857,-3.4627,-3.482\H,0,0.5435,-4.0409,-0.9844\C,0,3.486
 2,0.3886,-1.2879\H,0,1.3598,-2.9003,-4.4257\H,0,0.3009,-3.7635,1.3855\
 H,0,3.6555,0.9154,-0.3377\C,0,-1.0512,1.4309,-0.0341\C,0,-1.0007,0.618
 5,1.1753\C,0,-2.2796,1.7843,-0.5905\C,0,-2.3481,2.422,-1.8237\H,0,-3.1
 76,1.5187,-0.0527\C,0,-1.1671,2.7424,-2.4917\C,0,0.0668,2.4571,-1.9185
 \H,0,-1.2348,3.2238,-3.4555\C,0,0.1174,1.7917,-0.6938\C,0,1.2979,2.807
 7,-2.6145\H,0,1.084,1.5544,-0.2784\C,0,-3.6489,2.6749,-2.4247\H,0,1.19
 32,3.0323,-3.6879\H,0,-4.5131,2.4959,-1.7678\C,0,-1.9726,-0.4938,2.990
 3\C,0,-3.1774,-1.463,2.8223\N,0,-2.0278,0.4015,1.8721\H,0,-1.0426,-1.0
 82,2.9784\C,0,-2.0084,0.3144,4.3052\N,0,-3.0845,-1.9881,1.4906\H,0,-4.
 0919,-0.856,2.9347\C,0,-3.2134,-2.6196,3.8344\H,0,-2.1013,-0.3973,5.13
 11\C,0,-3.1763,1.296,4.3557\C,0,-0.6852,1.0603,4.4731\H,0,-3.1588,-2.1
 985,4.8432\C,0,-2.0572,-3.5942,3.6351\C,0,-4.5465,-3.3558,3.6948\H,0,-
 0.6595,1.5695,5.4341\H,0,-0.5658,1.8034,3.687\H,0,0.1522,0.3675,4.4264
 \H,0,-3.1018,1.9149,5.2474\H,0,-4.1292,0.7744,4.3857\H,0,-3.1576,1.938
 8,3.4793\H,0,-4.6418,-3.7628,2.6904\H,0,-5.3823,-2.6822,3.8744\H,0,-4.
 6056,-4.1739,4.4091\H,0,-2.1457,-4.4245,4.3328\H,0,-1.0997,-3.1093,3.7
 994\H,0,-2.083,-3.9812,2.6205\O,0,0.9419,-2.1677,2.4308\C,0,-0.8763,-5
 .8538,-4.4111\C,0,0.5779,-5.3609,-4.6398\N,0,-1.6568,-4.6821,-4.1365\H
 ,0,-0.8547,-6.521,-3.5327\C,0,-1.4909,-6.6083,-5.6023\N,0,0.9478,-4.67
 44,-3.4391\H,0,0.5759,-4.6715,-5.5018\C,0,1.5855,-6.4943,-4.9193\H,0,-
 0.8816,-7.4963,-5.7988\C,0,-1.5475,-5.7447,-6.859\C,0,-2.8972,-7.0696,
 -5.2189\H,0,1.2472,-7.03,-5.8116\C,0,1.6919,-7.4726,-3.7532\C,0,2.9558
 ,-5.8879,-5.2226\H,0,-2.8698,-7.6899,-4.3252\H,0,-3.3399,-7.6488,-6.02
 59\H,0,-3.529,-6.2069,-5.0201\H,0,-2.0206,-4.7952,-6.6255\H,0,-2.1268,
 -6.2467,-7.6308\H,0,-0.5522,-5.555,-7.2525\H,0,3.6607,-6.67,-5.495\H,0
 ,3.3401,-5.3655,-4.3491\H,0,2.8926,-5.1815,-6.0481\H,0,1.8926,-6.9286,
 -2.8342\H,0,2.5039,-8.1744,-3.9308\H,0,0.7742,-8.0416,-3.6315\C,0,-5.3
 601,1.7317,-4.8795\C,0,-5.1119,3.0946,-4.1732\N,0,-5.0644,0.7219,-3.90
 79\H,0,-4.6744,1.6587,-5.7408\C,0,-6.8053,1.5578,-5.3915\N,0,-3.7863,3
 .0281,-3.6277\H,0,-5.8581,3.177,-3.3652\C,0,-5.2292,4.3208,-5.0935\H,0
 ,-7.0308,2.4017,-6.0511\C,0,-7.822,1.5225,-4.2538\C,0,-6.8986,0.2736,-
 6.2158\H,0,-6.239,4.3406,-5.5162\C,0,-4.2078,4.2875,-6.2269\C,0,-5.037
 9,5.5834,-4.2528\H,0,-6.6916,-0.5928,-5.591\H,0,-6.1842,0.2872,-7.0367
 \H,0,-7.8971,0.1666,-6.6333\H,0,-7.8922,2.4865,-3.7572\H,0,-7.5307,0.7
 723,-3.5235\H,0,-8.8061,1.2713,-4.6435\H,0,-4.0414,5.59,-3.817\H,0,-5.
 767,5.6242,-3.4459\H,0,-5.1565,6.4722,-4.8682\H,0,-4.4446,3.5102,-6.94
 89\H,0,-3.2192,4.0986,-5.8184\H,0,-4.1983,5.2417,-6.749\C,0,4.6522,2.0
 524,-2.4092\C,0,3.6054,3.1576,-2.7344\N,0,3.9598,0.7992,-2.3823\H,0,5.
 069,2.2869,-1.4158\C,0,5.7988,1.9894,-3.4335\N,0,2.407,2.8448,-2.0197\
 H,0,3.4282,3.1579,-3.8236\C,0,4.0966,4.5636,-2.3217\H,0,6.1608,3.0083,
 -3.6082\C,0,5.3468,1.3888,-4.7619\C,0,6.9429,1.1594,-2.8525\H,0,5.1335
 ,4.6681,-2.6581\C,0,4.0427,4.7712,-0.8102\C,0,3.2519,5.6266,-3.0221\H,
 0,6.5963,0.1506,-2.6388\H,0,7.3125,1.6012,-1.9292\H,0,7.7679,1.1008,-3
 .5586\H,0,4.571,1.992,-5.2255\H,0,4.9538,0.3902,-4.5963\H,0,6.1882,1.3
 3,-5.4486\H,0,3.596,6.6214,-2.7488\H,0,2.2081,5.5322,-2.7286\H,0,3.319
 4,5.5263,-4.1036\H,0,4.3856,5.7732,-0.5618\H,0,4.6759,4.0574,-0.2904\H
 ,0,3.0234,4.648,-0.4539\H,0,-0.0238,0.1715,1.4071\\Version=ES64L-G16Re
 vC.01\State=1-A\HF=-2808.6088843\RMSD=1.820e-09\Dipole=0.4128187,0.104
 1542,-1.076171\Quadrupole=1.7701481,1.8794804,-3.6496285,0.8104921,-2.
 0844463,1.0397929\PG=C01 [X(C59H82N8O1)]\\@
 The archive entry for this job was punched.


 Luck is a matter of preparation meeting opportunity.
                                    -- Oprah Winfrey
 Job cpu time:       3 days  3 hours 16 minutes 44.8 seconds.
 Elapsed time:       0 days  2 hours 22 minutes 32.1 seconds.
 File lengths (MBytes):  RWF=   3904 Int=      0 D2E=      0 Chk=    400 Scr=     16
 Normal termination of Gaussian 16 at Mon Oct 18 11:10:57 2021.
