 Entering Gaussian System, Link 0=g16
 Initial command:
 /apps/gaussian/g16-c01-avx/g16/l1.exe "/rds/general/ephemeral/user/atarzia/ephemeral/xtb_spe_DFT/Gau-2231234.inp" -scrdir="/rds/general/ephemeral/user/atarzia/ephemeral/xtb_spe_DFT/"
 Entering Link 1 = /apps/gaussian/g16-c01-avx/g16/l1.exe PID=   2231235.
  
 Copyright (c) 1988-2019, Gaussian, Inc.  All Rights Reserved.
  
 This is part of the Gaussian(R) 16 program.  It is based on
 the Gaussian(R) 09 system (copyright 2009, Gaussian, Inc.),
 the Gaussian(R) 03 system (copyright 2003, Gaussian, Inc.),
 the Gaussian(R) 98 system (copyright 1998, Gaussian, Inc.),
 the Gaussian(R) 94 system (copyright 1995, Gaussian, Inc.),
 the Gaussian 92(TM) system (copyright 1992, Gaussian, Inc.),
 the Gaussian 90(TM) system (copyright 1990, Gaussian, Inc.),
 the Gaussian 88(TM) system (copyright 1988, Gaussian, Inc.),
 the Gaussian 86(TM) system (copyright 1986, Carnegie Mellon
 University), and the Gaussian 82(TM) system (copyright 1983,
 Carnegie Mellon University). Gaussian is a federally registered
 trademark of Gaussian, Inc.
  
 This software contains proprietary and confidential information,
 including trade secrets, belonging to Gaussian, Inc.
  
 This software is provided under written license and may be
 used, copied, transmitted, or stored only in accord with that
 written license.
  
 The following legend is applicable only to US Government
 contracts under FAR:
  
                    RESTRICTED RIGHTS LEGEND
  
 Use, reproduction and disclosure by the US Government is
 subject to restrictions as set forth in subparagraphs (a)
 and (c) of the Commercial Computer Software - Restricted
 Rights clause in FAR 52.227-19.
  
 Gaussian, Inc.
 340 Quinnipiac St., Bldg. 40, Wallingford CT 06492
  
  
 ---------------------------------------------------------------
 Warning -- This program may not be used in any manner that
 competes with the business of Gaussian, Inc. or will provide
 assistance to any competitor of Gaussian, Inc.  The licensee
 of this program is prohibited from giving any competitor of
 Gaussian, Inc. access to this program.  By using this program,
 the user acknowledges that Gaussian, Inc. is engaged in the
 business of creating and licensing software in the field of
 computational chemistry and represents and warrants to the
 licensee that it is not a competitor of Gaussian, Inc. and that
 it will not use this program in any manner prohibited above.
 ---------------------------------------------------------------
  

 Cite this work as:
 Gaussian 16, Revision C.01,
 M. J. Frisch, G. W. Trucks, H. B. Schlegel, G. E. Scuseria, 
 M. A. Robb, J. R. Cheeseman, G. Scalmani, V. Barone, 
 G. A. Petersson, H. Nakatsuji, X. Li, M. Caricato, A. V. Marenich, 
 J. Bloino, B. G. Janesko, R. Gomperts, B. Mennucci, H. P. Hratchian, 
 J. V. Ortiz, A. F. Izmaylov, J. L. Sonnenberg, D. Williams-Young, 
 F. Ding, F. Lipparini, F. Egidi, J. Goings, B. Peng, A. Petrone, 
 T. Henderson, D. Ranasinghe, V. G. Zakrzewski, J. Gao, N. Rega, 
 G. Zheng, W. Liang, M. Hada, M. Ehara, K. Toyota, R. Fukuda, 
 J. Hasegawa, M. Ishida, T. Nakajima, Y. Honda, O. Kitao, H. Nakai, 
 T. Vreven, K. Throssell, J. A. Montgomery, Jr., J. E. Peralta, 
 F. Ogliaro, M. J. Bearpark, J. J. Heyd, E. N. Brothers, K. N. Kudin, 
 V. N. Staroverov, T. A. Keith, R. Kobayashi, J. Normand, 
 K. Raghavachari, A. P. Rendell, J. C. Burant, S. S. Iyengar, 
 J. Tomasi, M. Cossi, J. M. Millam, M. Klene, C. Adamo, R. Cammi, 
 J. W. Ochterski, R. L. Martin, K. Morokuma, O. Farkas, 
 J. B. Foresman, and D. J. Fox, Gaussian, Inc., Wallingford CT, 2019.
 
 ******************************************
 Gaussian 16:  ES64L-G16RevC.01  3-Jul-2019
                 8-Nov-2021 
 ******************************************
 %chk=_3_alde1_5_ami4_1_opt_dcm_mp2.chk
 %mem=60000mb
 %nprocshared=32
 Will use up to   32 processors via shared memory.
 ----------------------------------------------------------------------
 #P MP2/aug-cc-pVDZ SP SCF=(YQC,MaxCycle=900) int=(Grid=Superfinegrid) 
 SCRF=(PCM,Solvent=Dichloromethane)
 ----------------------------------------------------------------------
 1/38=1,172=1/1;
 2/12=2,17=6,18=5,40=1/2;
 3/5=16,7=10,11=9,25=1,30=1,70=2201,72=9,75=-7/1,2,3;
 4//1;
 5/5=2,7=900,8=4,13=1,38=1,53=9/8,2,8;
 8/10=1/1;
 9/16=-3/6;
 6/7=2,8=2,9=2,10=2/1;
 99/5=1,9=1/99;
 Leave Link    1 at Mon Nov  8 19:04:34 2021, MaxMem=  7864320000 cpu:               8.3 elap:               0.3
 (Enter /apps/gaussian/g16-c01-avx/g16/l101.exe)
 -----------------------------
 _3_alde1_5_ami4_1_opt_dcm_mp2
 -----------------------------
 Symbolic Z-matrix:
 Charge =  0 Multiplicity = 1
 C                    -3.9795   -1.5977   -0.6956 
 C                    -4.8736   -0.6574   -0.038 
 C                    -3.6026   -2.792    -0.082 
 C                    -2.6968   -3.6456   -0.7006 
 H                    -4.0347   -3.0364    0.8763 
 C                    -2.1184   -3.2713   -1.9126 
 C                    -2.4575   -2.0671   -2.5179 
 H                    -1.3877   -3.9288   -2.3567 
 C                    -3.4172   -1.2526   -1.9195 
 C                    -1.7412   -1.6126   -3.7003 
 H                    -3.6828   -0.3299   -2.4113 
 C                    -2.2796   -4.8872   -0.059 
 H                    -0.8206   -2.1692   -3.9341 
 H                    -5.1762    0.2067   -0.648 
 H                    -2.3944   -4.9246    1.0354 
 C                     2.3153   -1.9652   -2.6253 
 C                     2.4366   -1.1445   -3.8828 
 C                     2.8      -1.4618   -1.4294 
 C                     2.6901   -2.1962   -0.2489 
 H                     3.2453   -0.4809   -1.3994 
 C                     2.0998   -3.4536   -0.2803 
 C                     1.6435   -3.9874   -1.4824 
 H                     1.994    -4.0453    0.616 
 C                     1.7499   -3.2311   -2.6493 
 C                     1.0213   -5.3007   -1.5269 
 H                     1.3917   -3.6395   -3.5848 
 C                     3.1464   -1.6305    1.0128 
 H                     0.6589   -5.6203   -2.5169 
 H                     2.732    -2.0958    1.9213 
 C                    -1.6187    1.5007    0.873 
 C                    -2.6864    1.3074    1.8453 
 C                    -1.9221    1.6302   -0.4812 
 C                    -0.9129    1.6826   -1.4378 
 H                    -2.9614    1.6562   -0.7687 
 C                     0.419     1.6668   -1.0247 
 C                     0.7353    1.5934    0.3284 
 H                     1.2007    1.7052   -1.767 
 C                    -0.2868    1.4844    1.2711 
 C                     2.1313    1.6046    0.7384 
 H                    -0.0162    1.397     2.3124 
 C                    -1.2881    1.7059   -2.8423 
 H                     2.8589    1.706    -0.0787 
 H                    -2.3539    1.8925   -3.0347 
 C                    -4.9232    1.1966    2.4996 
 C                    -5.9477    0.3019    1.7658 
 N                    -3.8945    1.542     1.5718 
 H                    -4.5327    0.6705    3.3849 
 N                    -5.2367   -0.7842    1.1645 
 H                    -6.4733    0.9171    1.02 
 C                     3.885    -0.1011   -5.3106 
 C                     3.164     1.0106   -4.5183 
 N                     3.7487   -1.2974   -4.494 
 H                     4.9308    0.1198   -5.5154 
 N                     2.2886    0.2869   -3.6016 
 H                     2.6197    1.694    -5.1756 
 C                    -1.2735   -6.995    -0.0687 
 C                     0.1445   -7.2433   -0.6243 
 N                    -1.7999   -5.8418   -0.7253 
 H                    -1.237    -6.8771    1.0256 
 N                     0.8894   -6.0288   -0.5042 
 H                     0.0566   -7.5748   -1.6709 
 C                    -1.291    -0.1031   -5.4203 
 C                    -1.0132    1.3858   -5.1161 
 N                    -2.1163   -0.6162   -4.3757 
 H                    -0.3401   -0.6523   -5.5164 
 N                    -0.479     1.4915   -3.7901 
 H                    -1.956     1.9409   -5.2236 
 C                     4.2818   -0.0644    2.3125 
 C                     3.8836    1.425     2.2383 
 N                     3.9559   -0.6655    1.0606 
 H                     3.7693   -0.5449    3.1616 
 N                     2.4854    1.5083    1.947 
 H                     4.499     1.9055    1.4634 
 H                    -2.3704    0.9111    2.8227 
 H                     1.3201    0.5938   -3.6588 
 H                     1.6963   -1.5001   -4.6264 
 H                     4.4491   -1.29     -3.7567 
 H                    -5.4307    2.112     2.8174 
 H                    -6.6598   -0.0976    2.4905 
 H                     3.37     -0.2845   -6.2592 
 H                     3.8835    1.5973   -3.9332 
 H                    -1.8993   -7.8573   -0.3175 
 H                     0.6334   -8.0172   -0.0285 
 H                    -1.8387   -0.1646   -6.3649 
 H                    -0.2752    1.7668   -5.8256 
 H                     5.364    -0.125     2.458 
 H                     4.0663    1.8944    3.2072 
 
 ITRead=  0  0  0  0  0  0  0  0  0  0  0  0  0  0  0  0  0  0  0  0
 ITRead=  0  0  0  0  0  0  0  0  0  0  0  0  0  0  0  0  0  0  0  0
 ITRead=  0  0  0  0  0  0  0  0  0  0  0  0  0  0  0  0  0  0  0  0
 ITRead=  0  0  0  0  0  0  0  0  0  0  0  0  0  0  0  0  0  0  0  0
 ITRead=  0  0  0  0  0  0  0
 MicOpt= -1 -1 -1 -1 -1 -1 -1 -1 -1 -1 -1 -1 -1 -1 -1 -1 -1 -1 -1 -1
 MicOpt= -1 -1 -1 -1 -1 -1 -1 -1 -1 -1 -1 -1 -1 -1 -1 -1 -1 -1 -1 -1
 MicOpt= -1 -1 -1 -1 -1 -1 -1 -1 -1 -1 -1 -1 -1 -1 -1 -1 -1 -1 -1 -1
 MicOpt= -1 -1 -1 -1 -1 -1 -1 -1 -1 -1 -1 -1 -1 -1 -1 -1 -1 -1 -1 -1
 MicOpt= -1 -1 -1 -1 -1 -1 -1
 NAtoms=     87 NQM=       87 NQMF=       0 NMMI=      0 NMMIF=      0
                NMic=       0 NMicF=      0.
                    Isotopes and Nuclear Properties:
 (Nuclear quadrupole moments (NQMom) in fm**2, nuclear magnetic moments (NMagM)
  in nuclear magnetons)

  Atom         1           2           3           4           5           6           7           8           9          10
 IAtWgt=          12          12          12          12           1          12          12           1          12          12
 AtmWgt=  12.0000000  12.0000000  12.0000000  12.0000000   1.0078250  12.0000000  12.0000000   1.0078250  12.0000000  12.0000000
 NucSpn=           0           0           0           0           1           0           0           1           0           0
 AtZEff=  -0.0000000  -0.0000000  -0.0000000  -0.0000000  -0.0000000  -0.0000000  -0.0000000  -0.0000000  -0.0000000  -0.0000000
 NQMom=    0.0000000   0.0000000   0.0000000   0.0000000   0.0000000   0.0000000   0.0000000   0.0000000   0.0000000   0.0000000
 NMagM=    0.0000000   0.0000000   0.0000000   0.0000000   2.7928460   0.0000000   0.0000000   2.7928460   0.0000000   0.0000000
 AtZNuc=   6.0000000   6.0000000   6.0000000   6.0000000   1.0000000   6.0000000   6.0000000   1.0000000   6.0000000   6.0000000

  Atom        11          12          13          14          15          16          17          18          19          20
 IAtWgt=           1          12           1           1           1          12          12          12          12           1
 AtmWgt=   1.0078250  12.0000000   1.0078250   1.0078250   1.0078250  12.0000000  12.0000000  12.0000000  12.0000000   1.0078250
 NucSpn=           1           0           1           1           1           0           0           0           0           1
 AtZEff=  -0.0000000  -0.0000000  -0.0000000  -0.0000000  -0.0000000  -0.0000000  -0.0000000  -0.0000000  -0.0000000  -0.0000000
 NQMom=    0.0000000   0.0000000   0.0000000   0.0000000   0.0000000   0.0000000   0.0000000   0.0000000   0.0000000   0.0000000
 NMagM=    2.7928460   0.0000000   2.7928460   2.7928460   2.7928460   0.0000000   0.0000000   0.0000000   0.0000000   2.7928460
 AtZNuc=   1.0000000   6.0000000   1.0000000   1.0000000   1.0000000   6.0000000   6.0000000   6.0000000   6.0000000   1.0000000

  Atom        21          22          23          24          25          26          27          28          29          30
 IAtWgt=          12          12           1          12          12           1          12           1           1          12
 AtmWgt=  12.0000000  12.0000000   1.0078250  12.0000000  12.0000000   1.0078250  12.0000000   1.0078250   1.0078250  12.0000000
 NucSpn=           0           0           1           0           0           1           0           1           1           0
 AtZEff=  -0.0000000  -0.0000000  -0.0000000  -0.0000000  -0.0000000  -0.0000000  -0.0000000  -0.0000000  -0.0000000  -0.0000000
 NQMom=    0.0000000   0.0000000   0.0000000   0.0000000   0.0000000   0.0000000   0.0000000   0.0000000   0.0000000   0.0000000
 NMagM=    0.0000000   0.0000000   2.7928460   0.0000000   0.0000000   2.7928460   0.0000000   2.7928460   2.7928460   0.0000000
 AtZNuc=   6.0000000   6.0000000   1.0000000   6.0000000   6.0000000   1.0000000   6.0000000   1.0000000   1.0000000   6.0000000

  Atom        31          32          33          34          35          36          37          38          39          40
 IAtWgt=          12          12          12           1          12          12           1          12          12           1
 AtmWgt=  12.0000000  12.0000000  12.0000000   1.0078250  12.0000000  12.0000000   1.0078250  12.0000000  12.0000000   1.0078250
 NucSpn=           0           0           0           1           0           0           1           0           0           1
 AtZEff=  -0.0000000  -0.0000000  -0.0000000  -0.0000000  -0.0000000  -0.0000000  -0.0000000  -0.0000000  -0.0000000  -0.0000000
 NQMom=    0.0000000   0.0000000   0.0000000   0.0000000   0.0000000   0.0000000   0.0000000   0.0000000   0.0000000   0.0000000
 NMagM=    0.0000000   0.0000000   0.0000000   2.7928460   0.0000000   0.0000000   2.7928460   0.0000000   0.0000000   2.7928460
 AtZNuc=   6.0000000   6.0000000   6.0000000   1.0000000   6.0000000   6.0000000   1.0000000   6.0000000   6.0000000   1.0000000

  Atom        41          42          43          44          45          46          47          48          49          50
 IAtWgt=          12           1           1          12          12          14           1          14           1          12
 AtmWgt=  12.0000000   1.0078250   1.0078250  12.0000000  12.0000000  14.0030740   1.0078250  14.0030740   1.0078250  12.0000000
 NucSpn=           0           1           1           0           0           2           1           2           1           0
 AtZEff=  -0.0000000  -0.0000000  -0.0000000  -0.0000000  -0.0000000  -0.0000000  -0.0000000  -0.0000000  -0.0000000  -0.0000000
 NQMom=    0.0000000   0.0000000   0.0000000   0.0000000   0.0000000   2.0440000   0.0000000   2.0440000   0.0000000   0.0000000
 NMagM=    0.0000000   2.7928460   2.7928460   0.0000000   0.0000000   0.4037610   2.7928460   0.4037610   2.7928460   0.0000000
 AtZNuc=   6.0000000   1.0000000   1.0000000   6.0000000   6.0000000   7.0000000   1.0000000   7.0000000   1.0000000   6.0000000

  Atom        51          52          53          54          55          56          57          58          59          60
 IAtWgt=          12          14           1          14           1          12          12          14           1          14
 AtmWgt=  12.0000000  14.0030740   1.0078250  14.0030740   1.0078250  12.0000000  12.0000000  14.0030740   1.0078250  14.0030740
 NucSpn=           0           2           1           2           1           0           0           2           1           2
 AtZEff=  -0.0000000  -0.0000000  -0.0000000  -0.0000000  -0.0000000  -0.0000000  -0.0000000  -0.0000000  -0.0000000  -0.0000000
 NQMom=    0.0000000   2.0440000   0.0000000   2.0440000   0.0000000   0.0000000   0.0000000   2.0440000   0.0000000   2.0440000
 NMagM=    0.0000000   0.4037610   2.7928460   0.4037610   2.7928460   0.0000000   0.0000000   0.4037610   2.7928460   0.4037610
 AtZNuc=   6.0000000   7.0000000   1.0000000   7.0000000   1.0000000   6.0000000   6.0000000   7.0000000   1.0000000   7.0000000

  Atom        61          62          63          64          65          66          67          68          69          70
 IAtWgt=           1          12          12          14           1          14           1          12          12          14
 AtmWgt=   1.0078250  12.0000000  12.0000000  14.0030740   1.0078250  14.0030740   1.0078250  12.0000000  12.0000000  14.0030740
 NucSpn=           1           0           0           2           1           2           1           0           0           2
 AtZEff=  -0.0000000  -0.0000000  -0.0000000  -0.0000000  -0.0000000  -0.0000000  -0.0000000  -0.0000000  -0.0000000  -0.0000000
 NQMom=    0.0000000   0.0000000   0.0000000   2.0440000   0.0000000   2.0440000   0.0000000   0.0000000   0.0000000   2.0440000
 NMagM=    2.7928460   0.0000000   0.0000000   0.4037610   2.7928460   0.4037610   2.7928460   0.0000000   0.0000000   0.4037610
 AtZNuc=   1.0000000   6.0000000   6.0000000   7.0000000   1.0000000   7.0000000   1.0000000   6.0000000   6.0000000   7.0000000

  Atom        71          72          73          74          75          76          77          78          79          80
 IAtWgt=           1          14           1           1           1           1           1           1           1           1
 AtmWgt=   1.0078250  14.0030740   1.0078250   1.0078250   1.0078250   1.0078250   1.0078250   1.0078250   1.0078250   1.0078250
 NucSpn=           1           2           1           1           1           1           1           1           1           1
 AtZEff=  -0.0000000  -0.0000000  -0.0000000  -0.0000000  -0.0000000  -0.0000000  -0.0000000  -0.0000000  -0.0000000  -0.0000000
 NQMom=    0.0000000   2.0440000   0.0000000   0.0000000   0.0000000   0.0000000   0.0000000   0.0000000   0.0000000   0.0000000
 NMagM=    2.7928460   0.4037610   2.7928460   2.7928460   2.7928460   2.7928460   2.7928460   2.7928460   2.7928460   2.7928460
 AtZNuc=   1.0000000   7.0000000   1.0000000   1.0000000   1.0000000   1.0000000   1.0000000   1.0000000   1.0000000   1.0000000

  Atom        81          82          83          84          85          86          87
 IAtWgt=           1           1           1           1           1           1           1
 AtmWgt=   1.0078250   1.0078250   1.0078250   1.0078250   1.0078250   1.0078250   1.0078250
 NucSpn=           1           1           1           1           1           1           1
 AtZEff=  -0.0000000  -0.0000000  -0.0000000  -0.0000000  -0.0000000  -0.0000000  -0.0000000
 NQMom=    0.0000000   0.0000000   0.0000000   0.0000000   0.0000000   0.0000000   0.0000000
 NMagM=    2.7928460   2.7928460   2.7928460   2.7928460   2.7928460   2.7928460   2.7928460
 AtZNuc=   1.0000000   1.0000000   1.0000000   1.0000000   1.0000000   1.0000000   1.0000000
 Leave Link  101 at Mon Nov  8 19:04:35 2021, MaxMem=  7864320000 cpu:               2.4 elap:               0.1
 (Enter /apps/gaussian/g16-c01-avx/g16/l202.exe)
 Stoichiometry    C37H40N10
 Framework group  C1[X(C37H40N10)]
 Deg. of freedom   255
 Full point group                 C1      NOp   1
 Largest Abelian subgroup         C1      NOp   1
 Largest concise Abelian subgroup C1      NOp   1
                         Standard orientation:                         
 ---------------------------------------------------------------------
 Center     Atomic      Atomic             Coordinates (Angstroms)
 Number     Number       Type             X           Y           Z
 ---------------------------------------------------------------------
      1          6           0       -3.628169    0.731694    0.920461
      2          6           0       -4.725921   -0.205862    0.741725
      3          6           0       -3.464524    1.828222    0.074437
      4          6           0       -2.372433    2.674959    0.223261
      5          1           0       -4.206531    2.003528   -0.689418
      6          6           0       -1.406112    2.386315    1.185809
      7          6           0       -1.537809    1.276481    2.011883
      8          1           0       -0.545865    3.032935    1.258690
      9          6           0       -2.671719    0.474360    1.896263
     10          6           0       -0.455950    0.895617    2.907566
     11          1           0       -2.767891   -0.372786    2.557233
     12          6           0       -2.179996    3.812769   -0.668722
     13          1           0        0.502416    1.407481    2.730081
     14          1           0       -4.812195   -0.980260    1.518384
     15          1           0       -2.681365    3.746678   -1.646756
     16          6           0        2.946338    0.853174    0.426078
     17          6           0        3.490341    0.158061    1.646917
     18          6           0        2.951591    0.198253   -0.794403
     19          6           0        2.443572    0.814754   -1.937577
     20          1           0        3.327773   -0.809291   -0.862952
     21          6           0        1.940648    2.106951   -1.849319
     22          6           0        1.964971    2.790687   -0.636838
     23          1           0        1.535068    2.610435   -2.713416
     24          6           0        2.464189    2.151316    0.497601
     25          6           0        1.438646    4.141915   -0.531796
     26          1           0        2.480031    2.676669    1.443123
     27          6           0        2.396802    0.093304   -3.201474
     28          1           0        1.467732    4.584977    0.476384
     29          1           0        1.695591    0.491651   -3.951958
     30          6           0       -2.083128   -2.667242   -1.001532
     31          6           0       -3.424032   -2.499710   -1.546166
     32          6           0       -1.880275   -2.636960    0.377096
     33          6           0       -0.595545   -2.662179    0.911087
     34          1           0       -2.745761   -2.561011    1.016347
     35          6           0        0.496969   -2.781436    0.052571
     36          6           0        0.304935   -2.868178   -1.322896
     37          1           0        1.492635   -2.798663    0.467169
     38          6           0       -0.985180   -2.784477   -1.846204
     39          6           0        1.457540   -3.018387   -2.198099
     40          1           0       -1.106742   -2.822451   -2.918094
     41          6           0       -0.438404   -2.516385    2.349137
     42          1           0        2.428015   -3.086756   -1.687373
     43          1           0       -1.367535   -2.607625    2.928929
     44          6           0       -5.741986   -2.300139   -1.370336
     45          6           0       -6.406136   -1.266191   -0.433102
     46          7           0       -4.457852   -2.620411   -0.834835
     47          1           0       -5.682913   -1.895273   -2.392893
     48          7           0       -5.495215   -0.176891   -0.258912
     49          1           0       -6.644072   -1.764225    0.518892
     50          6           0        5.326380   -0.833366    2.580294
     51          6           0        4.336393   -1.966783    2.235696
     52          7           0        4.938429    0.280334    1.728406
     53          1           0        6.368761   -1.104756    2.424646
     54          7           0        3.209942   -1.280668    1.610588
     55          1           0        4.047104   -2.540185    3.120491
     56          6           0       -1.178644    5.835259   -1.270369
     57          6           0        0.350776    6.039163   -1.289522
     58          7           0       -1.464912    4.794320   -0.336245
     59          1           0       -1.543398    5.604503   -2.283499
     60          7           0        0.966961    4.769735   -1.520127
     61          1           0        0.656487    6.480629   -0.327940
     62          6           0        0.542045   -0.458994    4.522715
     63          6           0        0.648540   -1.986839    4.320516
     64          7           0       -0.589938    0.001633    3.786496
     65          1           0        1.478683    0.029418    4.207709
     66          7           0        0.664269   -2.263769    2.914145
     67          1           0       -0.207150   -2.460981    4.822062
     68          6           0        2.940669   -1.672171   -4.622153
     69          6           0        2.553846   -3.114878   -4.233122
     70          7           0        3.106440   -0.925688   -3.417965
     71          1           0        2.169925   -1.245858   -5.284512
     72          7           0        1.353603   -3.070358   -3.455824
     73          1           0        3.393681   -3.555914   -3.676137
     74          1           0       -3.471376   -2.227814   -2.612024
     75          1           0        2.319209   -1.511821    2.044885
     76          1           0        3.079219    0.638182    2.556806
     77          1           0        5.324579    0.149182    0.796788
     78          1           0       -6.355936   -3.205433   -1.374608
     79          1           0       -7.320269   -0.893687   -0.899449
     80          1           0        5.194396   -0.519022    3.620712
     81          1           0        4.778804   -2.658683    1.507832
     82          1           0       -1.647377    6.759940   -0.920596
     83          1           0        0.613237    6.712491   -2.108464
     84          1           0        0.374660   -0.263745    5.585676
     85          1           0        1.581847   -2.344336    4.761344
     86          1           0        3.898434   -1.702348   -5.149195
     87          1           0        2.360628   -3.691912   -5.139864
 ---------------------------------------------------------------------
 Rotational constants (GHZ):           0.0709132           0.0606593           0.0532027
 Leave Link  202 at Mon Nov  8 19:04:35 2021, MaxMem=  7864320000 cpu:               0.7 elap:               0.0
 (Enter /apps/gaussian/g16-c01-avx/g16/l301.exe)
 Standard basis: Aug-CC-pVDZ (5D, 7F)
 Ernie: Thresh=  0.10000D-02 Tol=  0.10000D-05 Strict=F.
 Ernie:  94 primitive shells out of 1455 were deleted.
 There are  1535 symmetry adapted cartesian basis functions of A   symmetry.
 There are  1441 symmetry adapted basis functions of A   symmetry.
  1441 basis functions,  2461 primitive gaussians,  1535 cartesian basis functions
   166 alpha electrons      166 beta electrons
       nuclear repulsion energy      6004.1257277682 Hartrees.
 IExCor=    0 DFT=F Ex=HF Corr=None ExCW=0 ScaHFX=  1.000000
 ScaDFX=  1.000000  1.000000  1.000000  1.000000 ScalE2=  1.000000  1.000000
 IRadAn=      7 IRanWt=     -1 IRanGd=            0 ICorTp=0 IEmpDi=  4
 NAtoms=   87 NActive=   87 NUniq=   87 SFac= 1.00D+00 NAtFMM=   60 NAOKFM=T Big=T
 Integral buffers will be    131072 words long.
 Raffenetti 1 integral format.
 Two-electron integral symmetry is turned on.
 ------------------------------------------------------------------------------
 Polarizable Continuum Model (PCM)
 =================================
 Model                : PCM.
 Atomic radii         : UFF (Universal Force Field).
 Polarization charges : Total charges.
 Charge compensation  : None.
 Solution method      : On-the-fly selection.
 Cavity type          : Scaled VdW (van der Waals Surface) (Alpha=1.100).
 Cavity algorithm     : GePol (No added spheres)
                        Default sphere list used, NSphG=   87.
                        Lebedev-Laikov grids with approx.  5.0 points / Ang**2.
                        Smoothing algorithm: York/Karplus (Gamma=1.0000).
                        Polarization charges: spherical gaussians, with
                                              point-specific exponents (IZeta= 3).
                        Self-potential: point-specific (ISelfS= 7).
                        Self-field    : sphere-specific E.n sum rule (ISelfD= 2).
 Solvent              : Dichloromethane, Eps=   8.930000 Eps(inf)=   2.028346
 ------------------------------------------------------------------------------
 GePol: Number of generator spheres                  =      87
 GePol: Total number of spheres                      =      87
 GePol: Number of exposed spheres                    =      87 (100.00%)
 GePol: Number of points                             =    5354
 GePol: Average weight of points                     =       0.12
 GePol: Minimum weight of points                     =   0.11D-10
 GePol: Maximum weight of points                     =    0.20577
 GePol: Number of points with low weight             =     485
 GePol: Fraction of low-weight points (<1% of avg)   =       9.06%
 GePol: Cavity surface area                          =    668.401 Ang**2
 GePol: Cavity volume                                =    853.515 Ang**3
 Leave Link  301 at Mon Nov  8 19:04:36 2021, MaxMem=  7864320000 cpu:               3.1 elap:               0.1
 (Enter /apps/gaussian/g16-c01-avx/g16/l302.exe)
 NPDir=0 NMtPBC=     1 NCelOv=     1 NCel=       1 NClECP=     1 NCelD=      1
         NCelK=      1 NCelE2=     1 NClLst=     1 CellRange=     0.0.
 One-electron integrals computed using PRISM.
 One-electron integral symmetry used in STVInt
 NBasis=  1441 RedAO= T EigKep=  1.00D-06  NBF=  1441
 NBsUse=  1429 1.00D-06 EigRej=  9.81D-07 NBFU=  1429
 Leave Link  302 at Mon Nov  8 19:04:40 2021, MaxMem=  7864320000 cpu:             125.9 elap:               4.0
 (Enter /apps/gaussian/g16-c01-avx/g16/l303.exe)
 DipDrv:  MaxL=1.
 Leave Link  303 at Mon Nov  8 19:04:41 2021, MaxMem=  7864320000 cpu:              15.5 elap:               0.6
 (Enter /apps/gaussian/g16-c01-avx/g16/l401.exe)
 ExpMin= 2.97D-02 ExpMax= 9.05D+03 ExpMxC= 3.09D+02 IAcc=3 IRadAn=         7 AccDes= 0.00D+00
 Harris functional with IExCor=  205 and IRadAn=       7 diagonalized for initial guess.
 HarFok:  IExCor=  205 AccDes= 0.00D+00 IRadAn=         7 IDoV= 1 UseB2=F ITyADJ=14
 ICtDFT=  3500011 ScaDFX=  1.000000  1.000000  1.000000  1.000000
 FoFCou: FMM=F IPFlag=           0 FMFlag=      100000 FMFlg1=        2001
         NFxFlg=           0 DoJE=T BraDBF=F KetDBF=T FulRan=T
         wScrn=  0.000000 ICntrl=       500 IOpCl=  0 I1Cent=   200000004 NGrid=           0
         NMat0=    1 NMatS0=      1 NMatT0=    0 NMatD0=    1 NMtDS0=    0 NMtDT0=    0
 Petite list used in FoFCou.
 Harris En= -1971.44865507244    
 JPrj=0 DoOrth=F DoCkMO=F.
 Leave Link  401 at Mon Nov  8 19:05:00 2021, MaxMem=  7864320000 cpu:             584.6 elap:              18.4
 (Enter /apps/gaussian/g16-c01-avx/g16/l508.exe)
 Integral symmetry usage will be decided dynamically.
 Tight linear equation convergence will be used.
 RHF wavefunction.
 Linear searches until partial convergence.
 Full line searches.
 Fock matrices will be formed incrementally for  20 cycles.
 Inv3:  Mode=1 IEnd=    85995948.
 Iteration    1 A*A^-1 deviation from unit magnitude is 7.66D-15 for   5315.
 Iteration    1 A*A^-1 deviation from orthogonality  is 3.05D-15 for   5339   5321.
 Iteration    1 A^-1*A deviation from unit magnitude is 7.66D-15 for   5315.
 Iteration    1 A^-1*A deviation from orthogonality  is 4.72D-15 for   3261   3237.
 FoFJK:  IHMeth= 1 ICntrl=       0 DoSepK=F KAlg= 0 I1Cent=           0 FoldK=F
 IRaf= 990000000 NMat=       1 IRICut=       1 DoRegI=T DoRafI=F ISym2E= 1 IDoP0=0 IntGTp=1.
 Iteration   1 EE= -1967.57950915414                                    Grad=1.953D+00 Max rot=    1.7050 deg.
 Gradient too large for Newton-Raphson -- use scaled steepest descent instead.
 Alpha Gap=     0.418 HL deriv= 8.38D-04
     ILin= 1 X=0.000D+00 Y=-1.967579509154D+03 DE= 0.00D+00 F= -3.98D+00
 RMSU=  1.08D-02    CP:  7.99D-01
     ILin= 2 X=3.000D-01 Y=-1.968510243489D+03 DE=-9.31D-01 F= -2.22D+00 OKLS=F
 RMSU=  4.16D-03    CP:  6.58D-01  1.81D+00
     ILin= 3 X=6.000D-01 Y=-1.968909418008D+03 DE=-1.33D+00 F= -4.38D-01
 RMSU=  7.79D-03    CP:  5.53D-01  2.75D+00  3.00D+00
     ILin= 4 X=1.100D+00 Y=-1.968381669564D+03 DE=-8.02D-01 F=  2.55D+00
     An  expanding polynomial of degree  4 produced  0.6738
 RMSU=  3.25D-06    CP:  6.32D-01  1.99D+00  1.40D+00  4.00D-06
 Iteration   2 EE= -1968.92544954768     Delta-E=       -1.345940393546 Grad=6.118D-01 Max rot=    0.7493 deg.
 Gradient too large for Newton-Raphson -- use scaled steepest descent instead.
 Alpha Gap=     0.447 HL deriv= 1.97D-04
     ILin= 1 X=0.000D+00 Y=-1.968925449548D+03 DE= 0.00D+00 F= -2.25D-01
 RMSU=  1.96D-03    CP:  5.95D-01  2.10D+00  1.92D+00  6.87D-05  3.00D+00
     ILin= 2 X=4.000D-01 Y=-1.968992791719D+03 DE=-6.73D-02 F= -1.12D-01 OKLS=F
 RMSU=  3.66D-04    CP:  5.58D-01  2.22D+00  2.67D+00  1.82D-04  3.00D+00
                    CP:  2.22D+00
     ILin= 3 X=9.000D-01 Y=-1.969013804251D+03 DE=-8.84D-02 F=  2.78D-02
     Accept linear search using points  2 and  3.
     An  expanding polynomial of degree  3 produced  0.6940
 RMSU=  1.08D-06    CP:  5.72D-01  2.17D+00  2.35D+00  1.31D-04  3.00D+00
                    CP:  1.72D+00  4.54D-01
 Iteration   3 EE= -1969.01361948537     Delta-E=       -0.088169937686 Grad=2.147D-01 Max rot=    0.2835 deg.
 Gradient too large for Newton-Raphson -- use scaled steepest descent instead.
 Alpha Gap=     0.430 HL deriv= 4.07D-04
     ILin= 1 X=0.000D+00 Y=-1.969013619485D+03 DE= 0.00D+00 F= -3.12D-02
 RMSU=  1.03D-03    CP:  5.48D-01  2.19D+00  2.69D+00  5.68D-04  3.00D+00
                    CP:  2.14D+00  1.39D+00  3.00D+00
     ILin= 2 X=7.000D-01 Y=-1.969026929991D+03 DE=-1.33D-02 F= -6.80D-03 OKLS=T
     Reject lnstep IMin12=  1  2 Big=T Turn=F Min= 1.234D+00 FVal=-1.969030931845D+03 Lims=  0.00D+00  7.00D-01
 RMSU=  9.42D-05    CP:  5.28D-01  2.20D+00  3.00D+00  3.45D-02  3.00D+00
                    CP:  2.55D+00  2.55D+00  3.00D+00  1.99D+00
     ILin= 3 X=1.400D+00 Y=-1.969023140806D+03 DE=-9.52D-03 F=  1.76D-02
     An  expanding polynomial of degree  3 produced  0.8949
 RMSU=  6.32D-07    CP:  5.42D-01  2.19D+00  2.79D+00  6.92D-04  3.00D+00
                    CP:  2.26D+00  1.69D+00  3.00D+00  1.28D+00  1.78D-01
 Iteration   4 EE= -1969.02759280646     Delta-E=       -0.013973321094 Grad=6.934D-02 Max rot=    0.2694 deg.
 Gradient too large for Newton-Raphson -- use scaled steepest descent instead.
 Alpha Gap=     0.445 HL deriv= 4.81D-05
     ILin= 1 X=0.000D+00 Y=-1.969027592806D+03 DE= 0.00D+00 F= -7.44D-03
 RMSU=  4.52D-04    CP:  5.33D-01  2.15D+00  2.77D+00  9.94D-04  3.00D+00
                    CP:  2.41D+00  2.05D+00  3.00D+00  1.64D+00  1.35D+00
                    CP:  3.00D+00
     ILin= 2 X=8.000D-01 Y=-1.969029727455D+03 DE=-2.13D-03 F=  2.10D-03 OKLS=T
     Accept linear search using points  1 and  2.
     An  expanding polynomial of degree  2 produced  0.5701
 RMSU=  1.92D-06    CP:  5.36D-01  2.16D+00  2.78D+00  9.08D-04  3.00D+00
                    CP:  2.37D+00  1.94D+00  3.00D+00  1.54D+00  1.01D+00
                    CP:  3.00D+00  7.14D-01
 Iteration   5 EE= -1969.02989500405     Delta-E=       -0.002302197585 Grad=2.672D-02 Max rot=    0.0874 deg.
 Gradient too large for Newton-Raphson -- use scaled steepest descent instead.
 Alpha Gap=     0.440 HL deriv= 5.36D-05
     ILin= 1 X=0.000D+00 Y=-1.969029895004D+03 DE= 0.00D+00 F= -1.01D-03
 RMSU=  8.16D-05    CP:  5.32D-01  2.14D+00  2.77D+00  1.04D-03  3.00D+00
                    CP:  2.43D+00  2.16D+00  3.00D+00  1.81D+00  1.25D+00
                    CP:  3.00D+00  9.30D-01  3.00D+00
     ILin= 2 X=7.000D-01 Y=-1.969030399866D+03 DE=-5.05D-04 F= -4.28D-04 OKLS=F
 RMSU=  2.55D-06    CP:  5.28D-01  2.12D+00  2.77D+00  1.17D-03  3.00D+00
                    CP:  2.50D+00  2.38D+00  3.00D+00  2.08D+00  1.52D+00
                    CP:  3.00D+00  1.14D+00  3.00D+00  1.99D+00
     ILin= 3 X=1.400D+00 Y=-1.969030493872D+03 DE=-5.99D-04 F=  1.59D-04
     Accept linear search using points  2 and  3.
     An  expanding polynomial of degree  3 produced  1.1446
 RMSU=  4.33D-07    CP:  5.29D-01  2.13D+00  2.77D+00  1.13D-03  3.00D+00
                    CP:  2.47D+00  2.30D+00  3.00D+00  1.98D+00  1.41D+00
                    CP:  3.00D+00  1.06D+00  3.00D+00  1.63D+00  5.53D-01
 Iteration   6 EE= -1969.03050720022     Delta-E=       -0.000612196174 Grad=1.305D-02 Max rot=    0.0702 deg.
 Gradient too large for Newton-Raphson -- use scaled steepest descent instead.
 Alpha Gap=     0.442 HL deriv= 5.34D-05
     ILin= 1 X=0.000D+00 Y=-1.969030507200D+03 DE= 0.00D+00 F= -3.45D-04
 RMSU=  4.24D-05    CP:  5.28D-01  2.12D+00  2.75D+00  1.16D-03  3.00D+00
                    CP:  2.48D+00  2.30D+00  3.00D+00  2.03D+00  1.56D+00
                    CP:  3.00D+00  1.25D+00  3.00D+00  1.96D+00  1.04D+00
                    CP:  3.00D+00
     ILin= 2 X=8.000D-01 Y=-1.969030599437D+03 DE=-9.22D-05 F=  1.15D-04 OKLS=T
     Accept linear search using points  1 and  2.
     An  expanding polynomial of degree  2 produced  0.5497
 RMSU=  2.23D-07    CP:  5.28D-01  2.12D+00  2.76D+00  1.15D-03  3.00D+00
                    CP:  2.48D+00  2.30D+00  3.00D+00  2.02D+00  1.51D+00
                    CP:  3.00D+00  1.19D+00  3.00D+00  1.86D+00  8.87D-01
                    CP:  3.00D+00  6.87D-01
 Iteration   7 EE= -1969.03061014752     Delta-E=       -0.000102947299 Grad=4.748D-03 Max rot=    0.0250 deg.
 SCF Done:  E(RHF) =  -1969.03061015     a.u. after    7 cycles
            Convg  =    0.4748D-02                    18 Fock formations.
              S**2 =  0.0000                  -V/T =  2.0002
 Leave Link  508 at Mon Nov  8 20:03:25 2021, MaxMem=  7864320000 cpu:          111028.8 elap:            3504.9
 (Enter /apps/gaussian/g16-c01-avx/g16/l502.exe)
 Integral symmetry usage will be decided dynamically.
 Closed shell SCF:
 Using DIIS extrapolation, IDIIS=  1040.
 NGot=  7864320000 LenX=  7859542292 LenY=  7857184532
 Requested convergence on RMS density matrix=1.00D-08 within 128 cycles.
 Requested convergence on MAX density matrix=1.00D-06.
 Requested convergence on             energy=1.00D-06.
 No special actions if energy rises.
 Fock matrices will be formed incrementally for  20 cycles.

 Cycle   1  Pass 1  IDiag  1:
 FoFJK:  IHMeth= 1 ICntrl=       0 DoSepK=F KAlg= 0 I1Cent=           0 FoldK=F
 IRaf= 990000000 NMat=       1 IRICut=       1 DoRegI=T DoRafI=F ISym2E= 0 IDoP0=0 IntGTp=1.
 FoFCou: FMM=T IPFlag=           0 FMFlag=      100000 FMFlg1=        2001
         NFxFlg=           0 DoJE=F BraDBF=F KetDBF=F FulRan=T
         wScrn=  0.000000 ICntrl=         0 IOpCl=  0 I1Cent=           0 NGrid=           0
         NMat0=    1 NMatS0=      1 NMatT0=    0 NMatD0=    1 NMtDS0=    0 NMtDT0=    0
 Symmetry not used in FoFCou.
 FMM levels:  10  Number of levels for PrismC:   9
 E= -1969.03061013874    
 DIIS: error= 6.06D-05 at cycle   1 NSaved=   1.
 NSaved= 1 IEnMin= 1 EnMin= -1969.03061013874     IErMin= 1 ErrMin= 6.06D-05
 ErrMax= 6.06D-05  0.00D+00 EMaxC= 1.00D-01 BMatC= 1.13D-05 BMatP= 1.13D-05
 IDIUse=1 WtCom= 1.00D+00 WtEn= 0.00D+00
 Coeff-Com:  0.100D+01
 Coeff:      0.100D+01
 Gap=     0.441 Goal=   None    Shift=    0.000
 RMSDP=1.30D-04 MaxDP=2.73D-02              OVMax= 1.92D-03

 Cycle   2  Pass 1  IDiag  1:
 RMSU=  1.09D-04    CP:  9.99D-01
 E= -1969.03065052282     Delta-E=       -0.000040384085 Rises=F Damp=F
 DIIS: error= 2.80D-05 at cycle   2 NSaved=   2.
 NSaved= 2 IEnMin= 2 EnMin= -1969.03065052282     IErMin= 2 ErrMin= 2.80D-05
 ErrMax= 2.80D-05  0.00D+00 EMaxC= 1.00D-01 BMatC= 3.03D-06 BMatP= 1.13D-05
 IDIUse=1 WtCom= 1.00D+00 WtEn= 0.00D+00
 Coeff-Com: -0.147D-01 0.101D+01
 Coeff:     -0.147D-01 0.101D+01
 Gap=     0.352 Goal=   None    Shift=    0.000
 RMSDP=3.68D-05 MaxDP=4.78D-03 DE=-4.04D-05 OVMax= 1.10D-03

 Cycle   3  Pass 1  IDiag  1:
 RMSU=  1.88D-05    CP:  9.98D-01  1.24D+00
 E= -1969.03066191356     Delta-E=       -0.000011390739 Rises=F Damp=F
 DIIS: error= 1.51D-05 at cycle   3 NSaved=   3.
 NSaved= 3 IEnMin= 3 EnMin= -1969.03066191356     IErMin= 3 ErrMin= 1.51D-05
 ErrMax= 1.51D-05  0.00D+00 EMaxC= 1.00D-01 BMatC= 1.56D-06 BMatP= 3.03D-06
 IDIUse=1 WtCom= 1.00D+00 WtEn= 0.00D+00
 Coeff-Com: -0.342D+00 0.325D+00 0.102D+01
 Coeff:     -0.342D+00 0.325D+00 0.102D+01
 Gap=     0.352 Goal=   None    Shift=    0.000
 RMSDP=2.51D-05 MaxDP=3.30D-03 DE=-1.14D-05 OVMax= 9.99D-04

 Cycle   4  Pass 1  IDiag  1:
 RMSU=  1.45D-05    CP:  9.98D-01  1.38D+00  1.67D+00
 E= -1969.03066789878     Delta-E=       -0.000005985221 Rises=F Damp=F
 DIIS: error= 5.44D-06 at cycle   4 NSaved=   4.
 NSaved= 4 IEnMin= 4 EnMin= -1969.03066789878     IErMin= 4 ErrMin= 5.44D-06
 ErrMax= 5.44D-06  0.00D+00 EMaxC= 1.00D-01 BMatC= 2.11D-07 BMatP= 1.56D-06
 IDIUse=1 WtCom= 1.00D+00 WtEn= 0.00D+00
 Coeff-Com:  0.224D+00-0.346D+00-0.695D+00 0.182D+01
 Coeff:      0.224D+00-0.346D+00-0.695D+00 0.182D+01
 Gap=     0.352 Goal=   None    Shift=    0.000
 RMSDP=1.83D-05 MaxDP=2.28D-03 DE=-5.99D-06 OVMax= 6.71D-04

 Cycle   5  Pass 1  IDiag  1:
 RMSU=  7.99D-06    CP:  9.98D-01  1.37D+00  2.18D+00  1.74D+00
 E= -1969.03066960221     Delta-E=       -0.000001703429 Rises=F Damp=F
 DIIS: error= 1.93D-06 at cycle   5 NSaved=   5.
 NSaved= 5 IEnMin= 5 EnMin= -1969.03066960221     IErMin= 5 ErrMin= 1.93D-06
 ErrMax= 1.93D-06  0.00D+00 EMaxC= 1.00D-01 BMatC= 3.26D-08 BMatP= 2.11D-07
 IDIUse=1 WtCom= 1.00D+00 WtEn= 0.00D+00
 Coeff-Com:  0.603D-01-0.573D-01-0.211D+00 0.741D-01 0.113D+01
 Coeff:      0.603D-01-0.573D-01-0.211D+00 0.741D-01 0.113D+01
 Gap=     0.352 Goal=   None    Shift=    0.000
 RMSDP=6.51D-06 MaxDP=5.60D-04 DE=-1.70D-06 OVMax= 2.15D-04

 Cycle   6  Pass 1  IDiag  1:
 RMSU=  2.10D-06    CP:  9.98D-01  1.37D+00  2.30D+00  2.03D+00  1.36D+00
 E= -1969.03066978151     Delta-E=       -0.000000179297 Rises=F Damp=F
 DIIS: error= 6.45D-07 at cycle   6 NSaved=   6.
 NSaved= 6 IEnMin= 6 EnMin= -1969.03066978151     IErMin= 6 ErrMin= 6.45D-07
 ErrMax= 6.45D-07  0.00D+00 EMaxC= 1.00D-01 BMatC= 3.16D-09 BMatP= 3.26D-08
 IDIUse=1 WtCom= 1.00D+00 WtEn= 0.00D+00
 Coeff-Com: -0.336D-01 0.600D-01 0.987D-01-0.327D+00 0.146D+00 0.106D+01
 Coeff:     -0.336D-01 0.600D-01 0.987D-01-0.327D+00 0.146D+00 0.106D+01
 Gap=     0.352 Goal=   None    Shift=    0.000
 RMSDP=1.71D-06 MaxDP=2.20D-04 DE=-1.79D-07 OVMax= 6.45D-05

 Cycle   7  Pass 1  IDiag  1:
 RMSU=  7.71D-07    CP:  9.98D-01  1.38D+00  2.32D+00  2.08D+00  1.46D+00
                    CP:  1.25D+00
 E= -1969.03066979656     Delta-E=       -0.000000015045 Rises=F Damp=F
 DIIS: error= 2.23D-07 at cycle   7 NSaved=   7.
 NSaved= 7 IEnMin= 7 EnMin= -1969.03066979656     IErMin= 7 ErrMin= 2.23D-07
 ErrMax= 2.23D-07  0.00D+00 EMaxC= 1.00D-01 BMatC= 2.52D-10 BMatP= 3.16D-09
 IDIUse=1 WtCom= 1.00D+00 WtEn= 0.00D+00
 Coeff-Com: -0.466D-02 0.643D-02 0.157D-01-0.189D-01-0.584D-01 0.897D-01
 Coeff-Com:  0.970D+00
 Coeff:     -0.466D-02 0.643D-02 0.157D-01-0.189D-01-0.584D-01 0.897D-01
 Coeff:      0.970D+00
 Gap=     0.352 Goal=   None    Shift=    0.000
 RMSDP=3.28D-07 MaxDP=2.95D-05 DE=-1.50D-08 OVMax= 9.41D-06

 Cycle   8  Pass 1  IDiag  1:
 RMSU=  2.11D-07    CP:  9.98D-01  1.38D+00  2.33D+00  2.09D+00  1.45D+00
                    CP:  1.30D+00  1.16D+00
 E= -1969.03066979707     Delta-E=       -0.000000000511 Rises=F Damp=F
 DIIS: error= 9.47D-08 at cycle   8 NSaved=   8.
 NSaved= 8 IEnMin= 8 EnMin= -1969.03066979707     IErMin= 8 ErrMin= 9.47D-08
 ErrMax= 9.47D-08  0.00D+00 EMaxC= 1.00D-01 BMatC= 7.79D-11 BMatP= 2.52D-10
 IDIUse=1 WtCom= 1.00D+00 WtEn= 0.00D+00
 Coeff-Com:  0.556D-02-0.104D-01-0.167D-01 0.593D-01-0.476D-01-0.179D+00
 Coeff-Com:  0.207D+00 0.982D+00
 Coeff:      0.556D-02-0.104D-01-0.167D-01 0.593D-01-0.476D-01-0.179D+00
 Coeff:      0.207D+00 0.982D+00
 Gap=     0.352 Goal=   None    Shift=    0.000
 RMSDP=2.10D-07 MaxDP=1.76D-05 DE=-5.11D-10 OVMax= 8.06D-06

 Cycle   9  Pass 1  IDiag  1:
 RMSU=  8.91D-08    CP:  9.98D-01  1.38D+00  2.33D+00  2.10D+00  1.45D+00
                    CP:  1.32D+00  1.27D+00  1.15D+00
 E= -1969.03066979744     Delta-E=       -0.000000000374 Rises=F Damp=F
 DIIS: error= 6.61D-08 at cycle   9 NSaved=   9.
 NSaved= 9 IEnMin= 9 EnMin= -1969.03066979744     IErMin= 9 ErrMin= 6.61D-08
 ErrMax= 6.61D-08  0.00D+00 EMaxC= 1.00D-01 BMatC= 1.36D-11 BMatP= 7.79D-11
 IDIUse=1 WtCom= 1.00D+00 WtEn= 0.00D+00
 Coeff-Com:  0.751D-04 0.495D-03-0.799D-03-0.454D-02 0.150D-01 0.186D-01
 Coeff-Com: -0.201D+00-0.219D+00 0.139D+01
 Coeff:      0.751D-04 0.495D-03-0.799D-03-0.454D-02 0.150D-01 0.186D-01
 Coeff:     -0.201D+00-0.219D+00 0.139D+01
 Gap=     0.352 Goal=   None    Shift=    0.000
 RMSDP=9.28D-08 MaxDP=1.07D-05 DE=-3.74D-10 OVMax= 4.54D-06

 Cycle  10  Pass 1  IDiag  1:
 RMSU=  5.07D-08    CP:  9.98D-01  1.38D+00  2.33D+00  2.10D+00  1.45D+00
                    CP:  1.33D+00  1.27D+00  1.33D+00  1.49D+00
 E= -1969.03066979782     Delta-E=       -0.000000000379 Rises=F Damp=F
 DIIS: error= 2.29D-08 at cycle  10 NSaved=  10.
 NSaved=10 IEnMin=10 EnMin= -1969.03066979782     IErMin=10 ErrMin= 2.29D-08
 ErrMax= 2.29D-08  0.00D+00 EMaxC= 1.00D-01 BMatC= 2.66D-12 BMatP= 1.36D-11
 IDIUse=1 WtCom= 1.00D+00 WtEn= 0.00D+00
 Coeff-Com: -0.128D-02 0.261D-02 0.381D-02-0.143D-01 0.130D-01 0.467D-01
 Coeff-Com: -0.756D-01-0.266D+00 0.236D+00 0.106D+01
 Coeff:     -0.128D-02 0.261D-02 0.381D-02-0.143D-01 0.130D-01 0.467D-01
 Coeff:     -0.756D-01-0.266D+00 0.236D+00 0.106D+01
 Gap=     0.352 Goal=   None    Shift=    0.000
 RMSDP=3.39D-08 MaxDP=2.07D-06 DE=-3.79D-10 OVMax= 1.99D-06

 Cycle  11  Pass 1  IDiag  1:
 RMSU=  2.23D-08    CP:  9.98D-01  1.38D+00  2.33D+00  2.10D+00  1.45D+00
                    CP:  1.33D+00  1.28D+00  1.37D+00  1.68D+00  1.27D+00
 E= -1969.03066979800     Delta-E=       -0.000000000182 Rises=F Damp=F
 DIIS: error= 7.16D-09 at cycle  11 NSaved=  11.
 NSaved=11 IEnMin=11 EnMin= -1969.03066979800     IErMin=11 ErrMin= 7.16D-09
 ErrMax= 7.16D-09  0.00D+00 EMaxC= 1.00D-01 BMatC= 3.16D-13 BMatP= 2.66D-12
 IDIUse=1 WtCom= 1.00D+00 WtEn= 0.00D+00
 Coeff-Com: -0.764D-04 0.512D-04 0.338D-03-0.726D-04-0.167D-02-0.406D-03
 Coeff-Com:  0.265D-01 0.211D-01-0.208D+00 0.625D-01 0.110D+01
 Coeff:     -0.764D-04 0.512D-04 0.338D-03-0.726D-04-0.167D-02-0.406D-03
 Coeff:      0.265D-01 0.211D-01-0.208D+00 0.625D-01 0.110D+01
 Gap=     0.352 Goal=   None    Shift=    0.000
 RMSDP=1.67D-08 MaxDP=2.28D-06 DE=-1.82D-10 OVMax= 6.29D-07

 Cycle  12  Pass 1  IDiag  1:
 RMSU=  9.25D-09    CP:  9.98D-01  1.38D+00  2.33D+00  2.10D+00  1.45D+00
                    CP:  1.33D+00  1.28D+00  1.38D+00  1.70D+00  1.38D+00
                    CP:  1.38D+00
 E= -1969.03066979736     Delta-E=        0.000000000644 Rises=F Damp=F
 DIIS: error= 2.17D-09 at cycle  12 NSaved=  12.
 NSaved=12 IEnMin=11 EnMin= -1969.03066979800     IErMin=12 ErrMin= 2.17D-09
 ErrMax= 2.17D-09  0.00D+00 EMaxC= 1.00D-01 BMatC= 4.46D-14 BMatP= 3.16D-13
 IDIUse=1 WtCom= 1.00D+00 WtEn= 0.00D+00
 Coeff-Com:  0.150D-03-0.336D-03-0.429D-03 0.179D-02-0.195D-02-0.598D-02
 Coeff-Com:  0.139D-01 0.380D-01-0.659D-01-0.120D+00 0.181D+00 0.960D+00
 Coeff:      0.150D-03-0.336D-03-0.429D-03 0.179D-02-0.195D-02-0.598D-02
 Coeff:      0.139D-01 0.380D-01-0.659D-01-0.120D+00 0.181D+00 0.960D+00
 Gap=     0.352 Goal=   None    Shift=    0.000
 RMSDP=1.97D-08 MaxDP=1.34D-06 DE= 6.44D-10 OVMax= 1.76D-07

 Cycle  13  Pass 1  IDiag  1:
 RMSU=  1.82D-08    CP:  9.98D-01  1.38D+00  2.33D+00  2.10D+00  1.45D+00
                    CP:  1.33D+00  1.28D+00  1.38D+00  1.71D+00  1.38D+00
                    CP:  1.59D+00  1.46D+00
 E= -1969.03066979762     Delta-E=       -0.000000000262 Rises=F Damp=F
 DIIS: error= 3.10D-09 at cycle  13 NSaved=  13.
 NSaved=13 IEnMin=11 EnMin= -1969.03066979800     IErMin=12 ErrMin= 2.17D-09
 ErrMax= 3.10D-09  0.00D+00 EMaxC= 1.00D-01 BMatC= 7.73D-15 BMatP= 4.46D-14
 IDIUse=1 WtCom= 1.00D+00 WtEn= 0.00D+00
 Coeff-Com:  0.241D-04-0.362D-04-0.806D-04 0.184D-03 0.482D-04-0.434D-03
 Coeff-Com: -0.241D-02 0.494D-03 0.231D-01-0.185D-01-0.130D+00 0.601D-01
 Coeff-Com:  0.107D+01
 Coeff:      0.241D-04-0.362D-04-0.806D-04 0.184D-03 0.482D-04-0.434D-03
 Coeff:     -0.241D-02 0.494D-03 0.231D-01-0.185D-01-0.130D+00 0.601D-01
 Coeff:      0.107D+01
 Gap=     0.352 Goal=   None    Shift=    0.000
 RMSDP=1.72D-08 MaxDP=1.16D-06 DE=-2.62D-10 OVMax= 6.35D-08

 Cycle  14  Pass 1  IDiag  1:
 RMSU=  6.87D-09    CP:  9.98D-01  1.38D+00  2.33D+00  2.10D+00  1.45D+00
                    CP:  1.33D+00  1.28D+00  1.37D+00  1.72D+00  1.37D+00
                    CP:  1.74D+00  1.98D+00  1.79D+00
 E= -1969.03066979748     Delta-E=        0.000000000144 Rises=F Damp=F
 DIIS: error= 3.15D-09 at cycle  14 NSaved=  14.
 NSaved=14 IEnMin=11 EnMin= -1969.03066979800     IErMin=12 ErrMin= 2.17D-09
 ErrMax= 3.15D-09  0.00D+00 EMaxC= 1.00D-01 BMatC= 3.70D-15 BMatP= 7.73D-15
 IDIUse=1 WtCom= 1.00D+00 WtEn= 0.00D+00
 Coeff-Com: -0.135D-04 0.319D-04 0.379D-04-0.176D-03 0.213D-03 0.614D-03
 Coeff-Com: -0.195D-02-0.422D-02 0.109D-01 0.964D-02-0.388D-01-0.109D+00
 Coeff-Com:  0.196D+00 0.937D+00
 Coeff:     -0.135D-04 0.319D-04 0.379D-04-0.176D-03 0.213D-03 0.614D-03
 Coeff:     -0.195D-02-0.422D-02 0.109D-01 0.964D-02-0.388D-01-0.109D+00
 Coeff:      0.196D+00 0.937D+00
 Gap=     0.352 Goal=   None    Shift=    0.000
 RMSDP=3.34D-08 MaxDP=2.17D-06 DE= 1.44D-10 OVMax= 3.06D-08

 Cycle  15  Pass 1  IDiag  1:
 RMSU=  1.58D-08    CP:  9.98D-01  1.38D+00  2.33D+00  2.10D+00  1.45D+00
                    CP:  1.33D+00  1.28D+00  1.37D+00  1.75D+00  1.38D+00
                    CP:  1.92D+00  2.46D+00  3.00D+00  2.26D+00
 E= -1969.03066979767     Delta-E=       -0.000000000195 Rises=F Damp=F
 DIIS: error= 6.49D-09 at cycle  15 NSaved=  15.
 NSaved=15 IEnMin=11 EnMin= -1969.03066979800     IErMin=12 ErrMin= 2.17D-09
 ErrMax= 6.49D-09  0.00D+00 EMaxC= 1.00D-01 BMatC= 6.59D-15 BMatP= 3.70D-15
 IDIUse=1 WtCom= 1.00D+00 WtEn= 0.00D+00
 Coeff-Com: -0.222D-04 0.521D-04 0.620D-04-0.284D-03 0.340D-03 0.986D-03
 Coeff-Com: -0.300D-02-0.671D-02 0.165D-01 0.163D-01-0.578D-01-0.172D+00
 Coeff-Com:  0.266D+00 0.139D+01-0.453D+00
 Coeff:     -0.222D-04 0.521D-04 0.620D-04-0.284D-03 0.340D-03 0.986D-03
 Coeff:     -0.300D-02-0.671D-02 0.165D-01 0.163D-01-0.578D-01-0.172D+00
 Coeff:      0.266D+00 0.139D+01-0.453D+00
 Gap=     0.352 Goal=   None    Shift=    0.000
 RMSDP=1.70D-08 MaxDP=1.06D-06 DE=-1.95D-10 OVMax= 4.80D-09

 Cycle  16  Pass 1  IDiag  1:
 RMSU=  4.09D-09    CP:  9.98D-01  1.38D+00  2.33D+00  2.10D+00  1.45D+00
                    CP:  1.33D+00  1.28D+00  1.37D+00  1.74D+00  1.37D+00
                    CP:  1.85D+00  2.24D+00  2.59D+00  1.45D+00  3.96D-01
 E= -1969.03066979787     Delta-E=       -0.000000000201 Rises=F Damp=F
 DIIS: error= 5.51D-09 at cycle  16 NSaved=  16.
 NSaved=16 IEnMin=11 EnMin= -1969.03066979800     IErMin=12 ErrMin= 2.17D-09
 ErrMax= 5.51D-09  0.00D+00 EMaxC= 1.00D-01 BMatC= 4.54D-15 BMatP= 3.70D-15
 IDIUse=1 WtCom= 1.00D+00 WtEn= 0.00D+00
 Large coefficients: NSaved= 16 BigCof=    0.00 CofMax=   10.00 Det=-5.71D-16
 Inversion failed.  Reducing to 15 matrices.
 Coeff-Com:  0.854D-05 0.337D-06-0.581D-04 0.125D-03 0.278D-03-0.120D-02
 Coeff-Com: -0.285D-02 0.557D-02 0.106D-01-0.103D-01-0.147D+00-0.608D-01
 Coeff-Com:  0.126D+01-0.153D+01 0.148D+01
 Coeff:      0.854D-05 0.337D-06-0.581D-04 0.125D-03 0.278D-03-0.120D-02
 Coeff:     -0.285D-02 0.557D-02 0.106D-01-0.103D-01-0.147D+00-0.608D-01
 Coeff:      0.126D+01-0.153D+01 0.148D+01
 Gap=     0.352 Goal=   None    Shift=    0.000
 RMSDP=3.58D-08 MaxDP=2.45D-06 DE=-2.01D-10 OVMax= 9.28D-09

 Cycle  17  Pass 1  IDiag  1:
 RMSU=  1.83D-08    CP:  9.98D-01  1.38D+00  2.33D+00  2.10D+00  1.45D+00
                    CP:  1.33D+00  1.28D+00  1.38D+00  1.71D+00  1.38D+00
                    CP:  1.78D+00  1.86D+00  1.23D+00  3.94D-01 -5.79D-01
                    CP:  9.95D-01
 E= -1969.03066979801     Delta-E=       -0.000000000144 Rises=F Damp=F
 DIIS: error= 2.66D-09 at cycle  17 NSaved=  16.
 NSaved=16 IEnMin=16 EnMin= -1969.03066979801     IErMin=11 ErrMin= 2.17D-09
 ErrMax= 2.66D-09  0.00D+00 EMaxC= 1.00D-01 BMatC= 1.53D-15 BMatP= 3.70D-15
 IDIUse=1 WtCom= 1.00D+00 WtEn= 0.00D+00
 Large coefficients: NSaved= 16 BigCof=    0.00 CofMax=   10.00 Det=-4.34D-16
 Inversion failed.  Reducing to 15 matrices.
 Coeff-Com:  0.339D-05-0.452D-05-0.243D-04 0.178D-04 0.497D-03-0.489D-04
 Coeff-Com: -0.484D-02 0.405D-02 0.336D-01-0.409D-01-0.273D+00 0.230D+00
 Coeff-Com: -0.106D+01 0.870D+00 0.124D+01
 Coeff:      0.339D-05-0.452D-05-0.243D-04 0.178D-04 0.497D-03-0.489D-04
 Coeff:     -0.484D-02 0.405D-02 0.336D-01-0.409D-01-0.273D+00 0.230D+00
 Coeff:     -0.106D+01 0.870D+00 0.124D+01
 Gap=     0.352 Goal=   None    Shift=    0.000
 RMSDP=2.15D-08 MaxDP=1.28D-06 DE=-1.44D-10 OVMax= 1.84D-08

 Cycle  18  Pass 1  IDiag  1:
 RMSU=  8.97D-09    CP:  9.98D-01  1.38D+00  2.33D+00  2.10D+00  1.45D+00
                    CP:  1.33D+00  1.28D+00  1.39D+00  1.69D+00  1.40D+00
                    CP:  1.75D+00  1.76D+00  5.31D-01 -5.60D-01 -1.07D+00
                    CP:  1.95D+00  1.52D+00
 E= -1969.03066979797     Delta-E=        0.000000000043 Rises=F Damp=F
 DIIS: error= 2.13D-09 at cycle  18 NSaved=  16.
 NSaved=16 IEnMin=15 EnMin= -1969.03066979801     IErMin=16 ErrMin= 2.13D-09
 ErrMax= 2.13D-09  0.00D+00 EMaxC= 1.00D-01 BMatC= 7.27D-16 BMatP= 1.53D-15
 IDIUse=1 WtCom= 1.00D+00 WtEn= 0.00D+00
 Large coefficients: NSaved= 16 BigCof=    0.00 CofMax=   10.00 Det=-2.75D-16
 Inversion failed.  Reducing to 15 matrices.
 Coeff-Com: -0.657D-06-0.554D-05 0.513D-05 0.224D-03 0.397D-05-0.237D-02
 Coeff-Com:  0.159D-02 0.184D-01-0.148D-01-0.151D+00 0.500D-01-0.505D+00
 Coeff-Com:  0.316D+00 0.704D+00 0.584D+00
 Coeff:     -0.657D-06-0.554D-05 0.513D-05 0.224D-03 0.397D-05-0.237D-02
 Coeff:      0.159D-02 0.184D-01-0.148D-01-0.151D+00 0.500D-01-0.505D+00
 Coeff:      0.316D+00 0.704D+00 0.584D+00
 Gap=     0.352 Goal=   None    Shift=    0.000
 RMSDP=7.40D-09 MaxDP=5.05D-07 DE= 4.27D-11 OVMax= 5.79D-09

 Error on total polarization charges =  0.02404
 SCF Done:  E(RHF) =  -1969.03066980     A.U. after   18 cycles
            NFock= 18  Conv=0.74D-08     -V/T= 2.0002
 KE= 1.968636160473D+03 PE=-1.660437078768D+04 EE= 6.662578229637D+03
 Leave Link  502 at Mon Nov  8 20:53:21 2021, MaxMem=  7864320000 cpu:           94963.9 elap:            2995.4
 (Enter /apps/gaussian/g16-c01-avx/g16/l508.exe)
 QCSCF skips out because SCF is already converged.
 Leave Link  508 at Mon Nov  8 20:53:21 2021, MaxMem=  7864320000 cpu:               0.1 elap:               0.0
 (Enter /apps/gaussian/g16-c01-avx/g16/l801.exe)
 ExpMin= 2.97D-02 ExpMax= 9.05D+03 ExpMxC= 3.09D+02 IAcc=3 IRadAn=         7 AccDes= 0.00D+00
 HarFok:  IExCor=  205 AccDes= 0.00D+00 IRadAn=         7 IDoV=-2 UseB2=F ITyADJ=14
 ICtDFT= 12500011 ScaDFX=  1.000000  1.000000  1.000000  1.000000
 GSVD:  LWork=       -2585 too small for GESVD, short by       11750 words or       11750 for optimal perf.
 Largest valence mixing into a core orbital is  1.13D-04
 Largest core mixing into a valence orbital is  4.39D-05
 Range of M.O.s used for correlation:    48  1429
 NBasis=  1441 NAE=   166 NBE=   166 NFC=    47 NFV=     0
 NROrb=   1382 NOA=   119 NOB=   119 NVA=  1263 NVB=  1263

 **** Warning!!: The largest alpha MO coefficient is  0.18544288D+03

 Leave Link  801 at Mon Nov  8 20:53:22 2021, MaxMem=  7864320000 cpu:              18.2 elap:               0.6
 (Enter /apps/gaussian/g16-c01-avx/g16/l906.exe)
 FulOut=F Deriv=F AODrv=F NAtomX=    87
   MMem=           1  MDisk=         119 MDiskD=         119
  W3Min=   230705895 MinDsk=   209903791 NBas6D=        1535
 NBas2D=     1180953    NTT=     1178880    LW2=     2000000
    MDV=  7852297209 MDiskM=       71030 NBas2p=      928315
 Disk-based method using OVN memory for119 occupieds at a time.
 Estimated scratch disk usage=426425758771 words.
 IMap=   1   2   3   4   5   6   7   8   9  10  11  12  13  14  15  16  17  18  19  20
 IMap=  21  22  23  24  25  26  27  28  29  30  31  32  33  34  35  36  37  38  39  40
 IMap=  41  42  43  44  45  46  47  48  49  50  51  52  53  54  55  56  57  58  59  60
 IMap=  61  62  63  64  65  66  67  68  69  70  71  72  73  74  75  76  77  78  79  80
 IMap=  81  82  83  84  85  86  87  88  89  90  91  92  93  94  95  96  97  98  99 100
 IMap= 101 102 103 104 105 106 107 108 109 110 111 112 113 114 115 116 117 118 119
 Actual    scratch disk usage=418587798507 words.
 JobTyp=1 Pass  1:  I=   1 to 119 NPSUse= 32 ParTrn=T ParDer=T DoDerP=F.
 Spin components of T(2) and E(2):
     alpha-alpha T2 =       0.3428982267D+00 E2=     -0.9115633703D+00
     alpha-beta  T2 =       0.1768248829D+01 E2=     -0.4996663509D+01
     beta-beta   T2 =       0.3428982267D+00 E2=     -0.9115633703D+00
 The integrals were generated   1 times.
 ANorm=    0.1858506196D+01
 E2 =    -0.6819790249D+01 EUMP2 =    -0.19758504600474D+04
 Leave Link  906 at Tue Nov  9 08:36:03 2021, MaxMem=  7864320000 cpu:         1319808.5 elap:           42160.3
 (Enter /apps/gaussian/g16-c01-avx/g16/l601.exe)
 Copying SCF densities to generalized density rwf, IOpCl= 0 IROHF=0.

 **********************************************************************

            Population analysis using the SCF Density.

 **********************************************************************

 Orbital symmetries:
       Occupied  (A) (A) (A) (A) (A) (A) (A) (A) (A) (A) (A) (A)
                 (A) (A) (A) (A) (A) (A) (A) (A) (A) (A) (A) (A)
                 (A) (A) (A) (A) (A) (A) (A) (A) (A) (A) (A) (A)
                 (A) (A) (A) (A) (A) (A) (A) (A) (A) (A) (A) (A)
                 (A) (A) (A) (A) (A) (A) (A) (A) (A) (A) (A) (A)
                 (A) (A) (A) (A) (A) (A) (A) (A) (A) (A) (A) (A)
                 (A) (A) (A) (A) (A) (A) (A) (A) (A) (A) (A) (A)
                 (A) (A) (A) (A) (A) (A) (A) (A) (A) (A) (A) (A)
                 (A) (A) (A) (A) (A) (A) (A) (A) (A) (A) (A) (A)
                 (A) (A) (A) (A) (A) (A) (A) (A) (A) (A) (A) (A)
                 (A) (A) (A) (A) (A) (A) (A) (A) (A) (A) (A) (A)
                 (A) (A) (A) (A) (A) (A) (A) (A) (A) (A) (A) (A)
                 (A) (A) (A) (A) (A) (A) (A) (A) (A) (A) (A) (A)
                 (A) (A) (A) (A) (A) (A) (A) (A) (A) (A)
       Virtual   (A) (A) (A) (A) (A) (A) (A) (A) (A) (A) (A) (A)
                 (A) (A) (A) (A) (A) (A) (A) (A) (A) (A) (A) (A)
                 (A) (A) (A) (A) (A) (A) (A) (A) (A) (A) (A) (A)
                 (A) (A) (A) (A) (A) (A) (A) (A) (A) (A) (A) (A)
                 (A) (A) (A) (A) (A) (A) (A) (A) (A) (A) (A) (A)
                 (A) (A) (A) (A) (A) (A) (A) (A) (A) (A) (A) (A)
                 (A) (A) (A) (A) (A) (A) (A) (A) (A) (A) (A) (A)
                 (A) (A) (A) (A) (A) (A) (A) (A) (A) (A) (A) (A)
                 (A) (A) (A) (A) (A) (A) (A) (A) (A) (A) (A) (A)
                 (A) (A) (A) (A) (A) (A) (A) (A) (A) (A) (A) (A)
                 (A) (A) (A) (A) (A) (A) (A) (A) (A) (A) (A) (A)
                 (A) (A) (A) (A) (A) (A) (A) (A) (A) (A) (A) (A)
                 (A) (A) (A) (A) (A) (A) (A) (A) (A) (A) (A) (A)
                 (A) (A) (A) (A) (A) (A) (A) (A) (A) (A) (A) (A)
                 (A) (A) (A) (A) (A) (A) (A) (A) (A) (A) (A) (A)
                 (A) (A) (A) (A) (A) (A) (A) (A) (A) (A) (A) (A)
                 (A) (A) (A) (A) (A) (A) (A) (A) (A) (A) (A) (A)
                 (A) (A) (A) (A) (A) (A) (A) (A) (A) (A) (A) (A)
                 (A) (A) (A) (A) (A) (A) (A) (A) (A) (A) (A) (A)
                 (A) (A) (A) (A) (A) (A) (A) (A) (A) (A) (A) (A)
                 (A) (A) (A) (A) (A) (A) (A) (A) (A) (A) (A) (A)
                 (A) (A) (A) (A) (A) (A) (A) (A) (A) (A) (A) (A)
                 (A) (A) (A) (A) (A) (A) (A) (A) (A) (A) (A) (A)
                 (A) (A) (A) (A) (A) (A) (A) (A) (A) (A) (A) (A)
                 (A) (A) (A) (A) (A) (A) (A) (A) (A) (A) (A) (A)
                 (A) (A) (A) (A) (A) (A) (A) (A) (A) (A) (A) (A)
                 (A) (A) (A) (A) (A) (A) (A) (A) (A) (A) (A) (A)
                 (A) (A) (A) (A) (A) (A) (A) (A) (A) (A) (A) (A)
                 (A) (A) (A) (A) (A) (A) (A) (A) (A) (A) (A) (A)
                 (A) (A) (A) (A) (A) (A) (A) (A) (A) (A) (A) (A)
                 (A) (A) (A) (A) (A) (A) (A) (A) (A) (A) (A) (A)
                 (A) (A) (A) (A) (A) (A) (A) (A) (A) (A) (A) (A)
                 (A) (A) (A) (A) (A) (A) (A) (A) (A) (A) (A) (A)
                 (A) (A) (A) (A) (A) (A) (A) (A) (A) (A) (A) (A)
                 (A) (A) (A) (A) (A) (A) (A) (A) (A) (A) (A) (A)
                 (A) (A) (A) (A) (A) (A) (A) (A) (A) (A) (A) (A)
                 (A) (A) (A) (A) (A) (A) (A) (A) (A) (A) (A) (A)
                 (A) (A) (A) (A) (A) (A) (A) (A) (A) (A) (A) (A)
                 (A) (A) (A) (A) (A) (A) (A) (A) (A) (A) (A) (A)
                 (A) (A) (A) (A) (A) (A) (A) (A) (A) (A) (A) (A)
                 (A) (A) (A) (A) (A) (A) (A) (A) (A) (A) (A) (A)
                 (A) (A) (A) (A) (A) (A) (A) (A) (A) (A) (A) (A)
                 (A) (A) (A) (A) (A) (A) (A) (A) (A) (A) (A) (A)
                 (A) (A) (A) (A) (A) (A) (A) (A) (A) (A) (A) (A)
                 (A) (A) (A) (A) (A) (A) (A) (A) (A) (A) (A) (A)
                 (A) (A) (A) (A) (A) (A) (A) (A) (A) (A) (A) (A)
                 (A) (A) (A) (A) (A) (A) (A) (A) (A) (A) (A) (A)
                 (A) (A) (A) (A) (A) (A) (A) (A) (A) (A) (A) (A)
                 (A) (A) (A) (A) (A) (A) (A) (A) (A) (A) (A) (A)
                 (A) (A) (A) (A) (A) (A) (A) (A) (A) (A) (A) (A)
                 (A) (A) (A) (A) (A) (A) (A) (A) (A) (A) (A) (A)
                 (A) (A) (A) (A) (A) (A) (A) (A) (A) (A) (A) (A)
                 (A) (A) (A) (A) (A) (A) (A) (A) (A) (A) (A) (A)
                 (A) (A) (A) (A) (A) (A) (A) (A) (A) (A) (A) (A)
                 (A) (A) (A) (A) (A) (A) (A) (A) (A) (A) (A) (A)
                 (A) (A) (A) (A) (A) (A) (A) (A) (A) (A) (A) (A)
                 (A) (A) (A) (A) (A) (A) (A) (A) (A) (A) (A) (A)
                 (A) (A) (A) (A) (A) (A) (A) (A) (A) (A) (A) (A)
                 (A) (A) (A) (A) (A) (A) (A) (A) (A) (A) (A) (A)
                 (A) (A) (A) (A) (A) (A) (A) (A) (A) (A) (A) (A)
                 (A) (A) (A) (A) (A) (A) (A) (A) (A) (A) (A) (A)
                 (A) (A) (A) (A) (A) (A) (A) (A) (A) (A) (A) (A)
                 (A) (A) (A) (A) (A) (A) (A) (A) (A) (A) (A) (A)
                 (A) (A) (A) (A) (A) (A) (A) (A) (A) (A) (A) (A)
                 (A) (A) (A) (A) (A) (A) (A) (A) (A) (A) (A) (A)
                 (A) (A) (A) (A) (A) (A) (A) (A) (A) (A) (A) (A)
                 (A) (A) (A) (A) (A) (A) (A) (A) (A) (A) (A) (A)
                 (A) (A) (A) (A) (A) (A) (A) (A) (A) (A) (A) (A)
                 (A) (A) (A) (A) (A) (A) (A) (A) (A) (A) (A) (A)
                 (A) (A) (A) (A) (A) (A) (A) (A) (A) (A) (A) (A)
                 (A) (A) (A) (A) (A) (A) (A) (A) (A) (A) (A) (A)
                 (A) (A) (A) (A) (A) (A) (A) (A) (A) (A) (A) (A)
                 (A) (A) (A) (A) (A) (A) (A) (A) (A) (A) (A) (A)
                 (A) (A) (A) (A) (A) (A) (A) (A) (A) (A) (A) (A)
                 (A) (A) (A) (A) (A) (A) (A) (A) (A) (A) (A) (A)
                 (A) (A) (A) (A) (A) (A) (A) (A) (A) (A) (A) (A)
                 (A) (A) (A) (A) (A) (A) (A) (A) (A) (A) (A) (A)
                 (A) (A) (A) (A) (A) (A) (A) (A) (A) (A) (A) (A)
                 (A) (A) (A) (A) (A) (A) (A) (A) (A) (A) (A) (A)
                 (A) (A) (A) (A) (A) (A) (A) (A) (A) (A) (A) (A)
                 (A) (A) (A) (A) (A) (A) (A) (A) (A) (A) (A) (A)
                 (A) (A) (A) (A) (A) (A) (A) (A) (A) (A) (A) (A)
                 (A) (A) (A) (A) (A) (A) (A) (A) (A) (A) (A) (A)
                 (A) (A) (A) (A) (A) (A) (A) (A) (A) (A) (A) (A)
                 (A) (A) (A) (A) (A) (A) (A) (A) (A) (A) (A) (A)
                 (A) (A) (A) (A) (A) (A) (A) (A) (A) (A) (A) (A)
                 (A) (A) (A) (A) (A) (A) (A) (A) (A) (A) (A) (A)
                 (A) (A) (A) (A) (A) (A) (A) (A) (A) (A) (A) (A)
                 (A) (A) (A) (A) (A) (A) (A) (A) (A) (A) (A) (A)
                 (A) (A) (A) (A) (A) (A) (A) (A) (A) (A) (A) (A)
                 (A) (A) (A) (A) (A) (A) (A) (A) (A) (A) (A) (A)
                 (A) (A) (A) (A) (A) (A) (A) (A) (A) (A) (A) (A)
                 (A) (A) (A) (A) (A) (A) (A) (A) (A) (A) (A) (A)
                 (A) (A) (A) (A) (A) (A) (A) (A) (A) (A) (A) (A)
                 (A) (A) (A) (A) (A) (A) (A) (A) (A) (A) (A) (A)
                 (A) (A) (A) (A) (A) (A) (A) (A) (A) (A) (A) (A)
                 (A) (A) (A) (A) (A) (A) (A) (A) (A) (A) (A) (A)
                 (A) (A) (A) (A) (A) (A) (A) (A) (A) (A) (A) (A)
                 (A) (A) (A) (A) (A) (A) (A) (A) (A) (A) (A) (A)
                 (A) (A) (A) (A) (A) (A) (A) (A) (A) (A) (A) (A)
                 (A) (A) (A) (A) (A) (A) (A) (A) (A) (A) (A) (A)
                 (A) (A) (A) (A) (A) (A) (A) (A) (A) (A) (A) (A)
                 (A) (A) (A) (A) (A) (A) (A) (A) (A) (A) (A) (A)
                 (A) (A) (A) (A) (A) (A) (A) (A) (A) (A) (A) (A)
                 (A) (A) (A) (A) (A) (A) (A) (A) (A) (A) (A) (A)
                 (A) (A) (A)
 The electronic state is 1-A.
 Alpha  occ. eigenvalues --  -15.56579 -15.56451 -15.56426 -15.56386 -15.56162
 Alpha  occ. eigenvalues --  -15.56096 -15.55963 -15.55944 -15.55436 -15.52889
 Alpha  occ. eigenvalues --  -11.29197 -11.29068 -11.28877 -11.28778 -11.28746
 Alpha  occ. eigenvalues --  -11.28689 -11.28577 -11.28525 -11.28523 -11.26176
 Alpha  occ. eigenvalues --  -11.25974 -11.25901 -11.25827 -11.25716 -11.25650
 Alpha  occ. eigenvalues --  -11.25607 -11.25563 -11.25541 -11.25523 -11.25505
 Alpha  occ. eigenvalues --  -11.25499 -11.25495 -11.25415 -11.25266 -11.25256
 Alpha  occ. eigenvalues --  -11.25245 -11.25206 -11.25205 -11.25066 -11.25009
 Alpha  occ. eigenvalues --  -11.24933 -11.24766 -11.24722 -11.24545 -11.24457
 Alpha  occ. eigenvalues --  -11.24328 -11.24016  -1.27405  -1.26776  -1.26451
 Alpha  occ. eigenvalues --   -1.26330  -1.26236  -1.23948  -1.23500  -1.23364
 Alpha  occ. eigenvalues --   -1.23148  -1.17756  -1.16994  -1.16766  -1.13564
 Alpha  occ. eigenvalues --   -1.07822  -1.07413  -1.07245  -1.05994  -1.05698
 Alpha  occ. eigenvalues --   -1.05323  -1.01754  -1.00204  -0.99730  -0.99680
 Alpha  occ. eigenvalues --   -0.97745  -0.91843  -0.91511  -0.91476  -0.91341
 Alpha  occ. eigenvalues --   -0.88043  -0.87613  -0.86928  -0.85768  -0.83785
 Alpha  occ. eigenvalues --   -0.83200  -0.82762  -0.82021  -0.80694  -0.80078
 Alpha  occ. eigenvalues --   -0.77555  -0.75572  -0.75459  -0.74760  -0.74557
 Alpha  occ. eigenvalues --   -0.74321  -0.71475  -0.71129  -0.70759  -0.69511
 Alpha  occ. eigenvalues --   -0.69263  -0.68282  -0.67749  -0.67326  -0.67260
 Alpha  occ. eigenvalues --   -0.66767  -0.66580  -0.65803  -0.65360  -0.65137
 Alpha  occ. eigenvalues --   -0.64808  -0.63847  -0.62560  -0.62245  -0.62112
 Alpha  occ. eigenvalues --   -0.61746  -0.61628  -0.61539  -0.60766  -0.60309
 Alpha  occ. eigenvalues --   -0.59914  -0.59515  -0.58828  -0.58785  -0.58453
 Alpha  occ. eigenvalues --   -0.57994  -0.55515  -0.55273  -0.55042  -0.54869
 Alpha  occ. eigenvalues --   -0.54798  -0.54189  -0.54028  -0.53748  -0.53571
 Alpha  occ. eigenvalues --   -0.53124  -0.52998  -0.52769  -0.52438  -0.51613
 Alpha  occ. eigenvalues --   -0.50768  -0.50476  -0.50152  -0.49845  -0.49708
 Alpha  occ. eigenvalues --   -0.48926  -0.48324  -0.46125  -0.45764  -0.45548
 Alpha  occ. eigenvalues --   -0.45347  -0.45172  -0.41930  -0.41637  -0.41434
 Alpha  occ. eigenvalues --   -0.41006  -0.40895  -0.40817  -0.40736  -0.40554
 Alpha  occ. eigenvalues --   -0.40203  -0.40034  -0.39910  -0.38971  -0.36041
 Alpha  occ. eigenvalues --   -0.33223  -0.33065  -0.32777  -0.32668  -0.32297
 Alpha  occ. eigenvalues --   -0.31809
 Alpha virt. eigenvalues --    0.03352   0.03598   0.03877   0.03975   0.04420
 Alpha virt. eigenvalues --    0.04470   0.04547   0.04805   0.04904   0.05363
 Alpha virt. eigenvalues --    0.05526   0.05747   0.05787   0.05844   0.05959
 Alpha virt. eigenvalues --    0.06018   0.06519   0.06879   0.06986   0.07052
 Alpha virt. eigenvalues --    0.07149   0.07327   0.07358   0.07595   0.07794
 Alpha virt. eigenvalues --    0.07912   0.08387   0.08426   0.08497   0.08764
 Alpha virt. eigenvalues --    0.09129   0.09231   0.09491   0.09813   0.09873
 Alpha virt. eigenvalues --    0.10208   0.10284   0.10594   0.10883   0.11162
 Alpha virt. eigenvalues --    0.11383   0.11711   0.11928   0.11978   0.12207
 Alpha virt. eigenvalues --    0.12389   0.12685   0.12796   0.12929   0.13025
 Alpha virt. eigenvalues --    0.13238   0.13432   0.13682   0.14105   0.14308
 Alpha virt. eigenvalues --    0.14381   0.14556   0.14673   0.14955   0.15173
 Alpha virt. eigenvalues --    0.15305   0.15374   0.15427   0.15499   0.15909
 Alpha virt. eigenvalues --    0.15927   0.16046   0.16244   0.16386   0.16476
 Alpha virt. eigenvalues --    0.16543   0.16813   0.16922   0.16990   0.17051
 Alpha virt. eigenvalues --    0.17215   0.17461   0.17535   0.17691   0.17844
 Alpha virt. eigenvalues --    0.18053   0.18081   0.18153   0.18320   0.18389
 Alpha virt. eigenvalues --    0.18662   0.18874   0.18947   0.19180   0.19348
 Alpha virt. eigenvalues --    0.19528   0.19593   0.19663   0.19822   0.19934
 Alpha virt. eigenvalues --    0.20161   0.20375   0.20540   0.20649   0.20753
 Alpha virt. eigenvalues --    0.20902   0.21117   0.21441   0.21663   0.21720
 Alpha virt. eigenvalues --    0.21806   0.21949   0.22228   0.22317   0.22380
 Alpha virt. eigenvalues --    0.22534   0.22681   0.22935   0.23071   0.23130
 Alpha virt. eigenvalues --    0.23500   0.23576   0.23831   0.24021   0.24145
 Alpha virt. eigenvalues --    0.24322   0.24362   0.24566   0.24776   0.25024
 Alpha virt. eigenvalues --    0.25065   0.25339   0.25593   0.25646   0.25784
 Alpha virt. eigenvalues --    0.26048   0.26117   0.26437   0.26512   0.26805
 Alpha virt. eigenvalues --    0.26935   0.26999   0.27381   0.27414   0.27663
 Alpha virt. eigenvalues --    0.28090   0.28282   0.28524   0.28814   0.28854
 Alpha virt. eigenvalues --    0.29071   0.29235   0.29292   0.29650   0.29779
 Alpha virt. eigenvalues --    0.29965   0.30254   0.30353   0.30389   0.30580
 Alpha virt. eigenvalues --    0.30824   0.31016   0.31279   0.31380   0.31597
 Alpha virt. eigenvalues --    0.31906   0.32131   0.32187   0.32253   0.32476
 Alpha virt. eigenvalues --    0.32618   0.32778   0.32868   0.33171   0.33268
 Alpha virt. eigenvalues --    0.33390   0.33513   0.33710   0.33753   0.34094
 Alpha virt. eigenvalues --    0.34197   0.34300   0.34494   0.34692   0.34783
 Alpha virt. eigenvalues --    0.35067   0.35136   0.35310   0.35525   0.35647
 Alpha virt. eigenvalues --    0.35896   0.35964   0.36101   0.36149   0.36257
 Alpha virt. eigenvalues --    0.36371   0.36605   0.36746   0.36992   0.37146
 Alpha virt. eigenvalues --    0.37297   0.37319   0.37496   0.37613   0.37798
 Alpha virt. eigenvalues --    0.37876   0.38131   0.38214   0.38313   0.38350
 Alpha virt. eigenvalues --    0.38518   0.38811   0.38855   0.39039   0.39168
 Alpha virt. eigenvalues --    0.39291   0.39352   0.39535   0.39648   0.39744
 Alpha virt. eigenvalues --    0.39760   0.40007   0.40223   0.40400   0.40621
 Alpha virt. eigenvalues --    0.40787   0.40856   0.40982   0.41233   0.41349
 Alpha virt. eigenvalues --    0.41619   0.41662   0.41729   0.41979   0.42172
 Alpha virt. eigenvalues --    0.42256   0.42438   0.42563   0.42627   0.42775
 Alpha virt. eigenvalues --    0.42999   0.43306   0.43389   0.43629   0.43709
 Alpha virt. eigenvalues --    0.43944   0.44070   0.44254   0.44395   0.44533
 Alpha virt. eigenvalues --    0.44840   0.44864   0.44982   0.45168   0.45425
 Alpha virt. eigenvalues --    0.45606   0.45695   0.45772   0.45842   0.46021
 Alpha virt. eigenvalues --    0.46069   0.46234   0.46575   0.46674   0.46782
 Alpha virt. eigenvalues --    0.46886   0.47195   0.47670   0.47717   0.47909
 Alpha virt. eigenvalues --    0.48250   0.48340   0.48551   0.48805   0.49048
 Alpha virt. eigenvalues --    0.49335   0.49407   0.49552   0.49776   0.49841
 Alpha virt. eigenvalues --    0.50041   0.50088   0.50150   0.50413   0.50581
 Alpha virt. eigenvalues --    0.50662   0.50741   0.51048   0.51151   0.51476
 Alpha virt. eigenvalues --    0.51572   0.51809   0.52053   0.52118   0.52349
 Alpha virt. eigenvalues --    0.52396   0.52633   0.52801   0.53027   0.53186
 Alpha virt. eigenvalues --    0.53221   0.53588   0.53757   0.53879   0.53927
 Alpha virt. eigenvalues --    0.54099   0.54481   0.54718   0.54796   0.54917
 Alpha virt. eigenvalues --    0.55126   0.55227   0.55307   0.55592   0.55770
 Alpha virt. eigenvalues --    0.56061   0.56180   0.56310   0.56469   0.56653
 Alpha virt. eigenvalues --    0.56856   0.56959   0.57261   0.57434   0.57687
 Alpha virt. eigenvalues --    0.57790   0.57959   0.58115   0.58401   0.58431
 Alpha virt. eigenvalues --    0.58521   0.58830   0.59181   0.59317   0.59476
 Alpha virt. eigenvalues --    0.59869   0.59897   0.59988   0.60116   0.60296
 Alpha virt. eigenvalues --    0.60614   0.60740   0.60945   0.61010   0.61245
 Alpha virt. eigenvalues --    0.61421   0.61622   0.61886   0.62275   0.62293
 Alpha virt. eigenvalues --    0.62414   0.62762   0.62999   0.63207   0.63282
 Alpha virt. eigenvalues --    0.63424   0.63553   0.63696   0.63938   0.63973
 Alpha virt. eigenvalues --    0.64287   0.64673   0.64727   0.64863   0.65131
 Alpha virt. eigenvalues --    0.65302   0.65732   0.65930   0.65996   0.66277
 Alpha virt. eigenvalues --    0.66398   0.66731   0.66776   0.67108   0.67225
 Alpha virt. eigenvalues --    0.67315   0.67535   0.67777   0.68041   0.68186
 Alpha virt. eigenvalues --    0.68364   0.68517   0.68800   0.69045   0.69144
 Alpha virt. eigenvalues --    0.69275   0.69480   0.69622   0.69705   0.69914
 Alpha virt. eigenvalues --    0.70099   0.70344   0.70622   0.70694   0.70932
 Alpha virt. eigenvalues --    0.71062   0.71364   0.71622   0.71858   0.71957
 Alpha virt. eigenvalues --    0.72123   0.72241   0.72423   0.72660   0.72692
 Alpha virt. eigenvalues --    0.72918   0.73005   0.73114   0.73296   0.73384
 Alpha virt. eigenvalues --    0.73418   0.73971   0.74108   0.74251   0.74467
 Alpha virt. eigenvalues --    0.74641   0.74785   0.74947   0.75120   0.75300
 Alpha virt. eigenvalues --    0.75391   0.75555   0.75663   0.75908   0.76000
 Alpha virt. eigenvalues --    0.76220   0.76470   0.76612   0.76825   0.76840
 Alpha virt. eigenvalues --    0.77000   0.77284   0.77328   0.77410   0.77584
 Alpha virt. eigenvalues --    0.77715   0.77958   0.78075   0.78203   0.78459
 Alpha virt. eigenvalues --    0.78485   0.78674   0.78778   0.78928   0.79075
 Alpha virt. eigenvalues --    0.79413   0.79494   0.79777   0.79953   0.80117
 Alpha virt. eigenvalues --    0.80180   0.80520   0.80638   0.80689   0.80870
 Alpha virt. eigenvalues --    0.80934   0.81207   0.81237   0.81527   0.81731
 Alpha virt. eigenvalues --    0.81909   0.82174   0.82329   0.82541   0.82557
 Alpha virt. eigenvalues --    0.82650   0.82825   0.83061   0.83327   0.83376
 Alpha virt. eigenvalues --    0.83713   0.83743   0.83873   0.84186   0.84273
 Alpha virt. eigenvalues --    0.84361   0.84604   0.84889   0.85081   0.85237
 Alpha virt. eigenvalues --    0.85330   0.85429   0.85615   0.85997   0.86061
 Alpha virt. eigenvalues --    0.86268   0.86401   0.86496   0.86678   0.86920
 Alpha virt. eigenvalues --    0.87072   0.87277   0.87351   0.87695   0.87838
 Alpha virt. eigenvalues --    0.88088   0.88140   0.88416   0.88456   0.88929
 Alpha virt. eigenvalues --    0.89099   0.89316   0.89353   0.89496   0.89694
 Alpha virt. eigenvalues --    0.89872   0.90218   0.90340   0.90588   0.90796
 Alpha virt. eigenvalues --    0.90960   0.91092   0.91144   0.91192   0.91609
 Alpha virt. eigenvalues --    0.91863   0.92028   0.92272   0.92461   0.92681
 Alpha virt. eigenvalues --    0.92962   0.93214   0.93474   0.93736   0.93748
 Alpha virt. eigenvalues --    0.93987   0.94217   0.94416   0.94746   0.94854
 Alpha virt. eigenvalues --    0.95095   0.95133   0.95499   0.95656   0.95705
 Alpha virt. eigenvalues --    0.96181   0.96470   0.96574   0.96813   0.97194
 Alpha virt. eigenvalues --    0.97360   0.97598   0.97784   0.97968   0.98202
 Alpha virt. eigenvalues --    0.98372   0.98679   0.98941   0.99160   0.99228
 Alpha virt. eigenvalues --    0.99535   0.99766   0.99927   1.00089   1.00408
 Alpha virt. eigenvalues --    1.00613   1.00716   1.00807   1.00980   1.01156
 Alpha virt. eigenvalues --    1.01402   1.01470   1.01800   1.02002   1.02188
 Alpha virt. eigenvalues --    1.02447   1.02694   1.03266   1.03337   1.03599
 Alpha virt. eigenvalues --    1.03667   1.04069   1.04079   1.04477   1.04664
 Alpha virt. eigenvalues --    1.04958   1.05050   1.05437   1.05674   1.05987
 Alpha virt. eigenvalues --    1.05994   1.06415   1.06627   1.06872   1.07047
 Alpha virt. eigenvalues --    1.07330   1.07493   1.07578   1.07750   1.08041
 Alpha virt. eigenvalues --    1.08197   1.08478   1.08576   1.09029   1.09177
 Alpha virt. eigenvalues --    1.09558   1.09685   1.09859   1.10303   1.10402
 Alpha virt. eigenvalues --    1.10552   1.10786   1.10942   1.11157   1.11467
 Alpha virt. eigenvalues --    1.11640   1.11927   1.12246   1.12356   1.12581
 Alpha virt. eigenvalues --    1.12875   1.13131   1.13288   1.13569   1.13805
 Alpha virt. eigenvalues --    1.14329   1.14489   1.14644   1.14891   1.15134
 Alpha virt. eigenvalues --    1.15401   1.15601   1.15838   1.16043   1.16613
 Alpha virt. eigenvalues --    1.16663   1.17029   1.17229   1.17771   1.17928
 Alpha virt. eigenvalues --    1.18086   1.18565   1.18587   1.18809   1.19272
 Alpha virt. eigenvalues --    1.19512   1.19546   1.20154   1.20303   1.20644
 Alpha virt. eigenvalues --    1.20917   1.21209   1.21767   1.21794   1.22163
 Alpha virt. eigenvalues --    1.22258   1.22516   1.23044   1.23199   1.23408
 Alpha virt. eigenvalues --    1.23648   1.24134   1.24246   1.24706   1.25042
 Alpha virt. eigenvalues --    1.25309   1.25632   1.25795   1.26415   1.26513
 Alpha virt. eigenvalues --    1.26757   1.26867   1.27229   1.27500   1.27975
 Alpha virt. eigenvalues --    1.28297   1.28548   1.28812   1.28848   1.29380
 Alpha virt. eigenvalues --    1.29851   1.30104   1.30360   1.30741   1.31016
 Alpha virt. eigenvalues --    1.31259   1.31491   1.31535   1.31741   1.32158
 Alpha virt. eigenvalues --    1.33083   1.33351   1.33646   1.33904   1.34114
 Alpha virt. eigenvalues --    1.34566   1.35140   1.35363   1.35957   1.36398
 Alpha virt. eigenvalues --    1.37064   1.37301   1.37529   1.37812   1.38200
 Alpha virt. eigenvalues --    1.38557   1.38649   1.39184   1.39454   1.40181
 Alpha virt. eigenvalues --    1.40424   1.40749   1.41179   1.41620   1.41753
 Alpha virt. eigenvalues --    1.42014   1.42371   1.42631   1.43125   1.43479
 Alpha virt. eigenvalues --    1.44067   1.44691   1.45175   1.45299   1.45769
 Alpha virt. eigenvalues --    1.46245   1.46788   1.47209   1.47705   1.47942
 Alpha virt. eigenvalues --    1.48109   1.48381   1.48862   1.49118   1.49496
 Alpha virt. eigenvalues --    1.49868   1.50382   1.50887   1.51614   1.52022
 Alpha virt. eigenvalues --    1.52154   1.52576   1.52847   1.53210   1.54020
 Alpha virt. eigenvalues --    1.54190   1.54759   1.55033   1.55412   1.55563
 Alpha virt. eigenvalues --    1.55950   1.56507   1.57306   1.57574   1.57909
 Alpha virt. eigenvalues --    1.58327   1.58466   1.58961   1.59412   1.59627
 Alpha virt. eigenvalues --    1.60024   1.60474   1.60841   1.61307   1.61729
 Alpha virt. eigenvalues --    1.62345   1.62638   1.62794   1.62931   1.63258
 Alpha virt. eigenvalues --    1.63842   1.64266   1.64949   1.65119   1.65904
 Alpha virt. eigenvalues --    1.66281   1.66593   1.66926   1.66952   1.67602
 Alpha virt. eigenvalues --    1.68030   1.68111   1.68406   1.69067   1.69733
 Alpha virt. eigenvalues --    1.69946   1.70606   1.70963   1.71102   1.71556
 Alpha virt. eigenvalues --    1.71769   1.71892   1.72434   1.72639   1.72967
 Alpha virt. eigenvalues --    1.73141   1.73598   1.73689   1.74119   1.74272
 Alpha virt. eigenvalues --    1.74678   1.74878   1.75383   1.76001   1.76384
 Alpha virt. eigenvalues --    1.76765   1.76890   1.77279   1.77736   1.77891
 Alpha virt. eigenvalues --    1.78156   1.78347   1.78705   1.79114   1.79117
 Alpha virt. eigenvalues --    1.79611   1.80047   1.80292   1.80538   1.80703
 Alpha virt. eigenvalues --    1.80938   1.81178   1.81208   1.81667   1.81907
 Alpha virt. eigenvalues --    1.82185   1.82358   1.82443   1.82927   1.83195
 Alpha virt. eigenvalues --    1.83464   1.83871   1.84270   1.84596   1.84655
 Alpha virt. eigenvalues --    1.84871   1.85227   1.85279   1.85552   1.86137
 Alpha virt. eigenvalues --    1.86324   1.86664   1.86894   1.87175   1.87431
 Alpha virt. eigenvalues --    1.87583   1.88010   1.88149   1.88288   1.88702
 Alpha virt. eigenvalues --    1.89131   1.89278   1.89536   1.90045   1.90400
 Alpha virt. eigenvalues --    1.90673   1.91046   1.91238   1.91579   1.91791
 Alpha virt. eigenvalues --    1.92200   1.92594   1.92779   1.92986   1.93513
 Alpha virt. eigenvalues --    1.93766   1.94089   1.94666   1.94747   1.95005
 Alpha virt. eigenvalues --    1.95362   1.95585   1.95977   1.96331   1.96738
 Alpha virt. eigenvalues --    1.96874   1.97237   1.97505   1.97626   1.97850
 Alpha virt. eigenvalues --    1.98394   1.98528   1.98777   1.99192   1.99296
 Alpha virt. eigenvalues --    2.00121   2.00630   2.00839   2.00946   2.01298
 Alpha virt. eigenvalues --    2.01549   2.01937   2.02416   2.02471   2.02765
 Alpha virt. eigenvalues --    2.02818   2.03219   2.03576   2.03934   2.04223
 Alpha virt. eigenvalues --    2.04474   2.04892   2.05535   2.05824   2.06015
 Alpha virt. eigenvalues --    2.06404   2.06601   2.07291   2.07544   2.08052
 Alpha virt. eigenvalues --    2.08568   2.08900   2.09146   2.09563   2.09669
 Alpha virt. eigenvalues --    2.10262   2.10595   2.10939   2.10964   2.11374
 Alpha virt. eigenvalues --    2.11877   2.12334   2.12748   2.13123   2.13189
 Alpha virt. eigenvalues --    2.13584   2.13930   2.14255   2.14489   2.14808
 Alpha virt. eigenvalues --    2.14896   2.15146   2.15655   2.16028   2.16411
 Alpha virt. eigenvalues --    2.16748   2.17163   2.17268   2.17595   2.17877
 Alpha virt. eigenvalues --    2.18098   2.18225   2.18663   2.18710   2.19381
 Alpha virt. eigenvalues --    2.19523   2.19740   2.20088   2.20303   2.20598
 Alpha virt. eigenvalues --    2.20783   2.21149   2.21709   2.22056   2.22841
 Alpha virt. eigenvalues --    2.23162   2.23489   2.23571   2.24071   2.24338
 Alpha virt. eigenvalues --    2.24520   2.25094   2.25245   2.25469   2.25655
 Alpha virt. eigenvalues --    2.26315   2.26477   2.26777   2.27238   2.27749
 Alpha virt. eigenvalues --    2.27861   2.28383   2.28462   2.28817   2.29052
 Alpha virt. eigenvalues --    2.29421   2.30048   2.30060   2.30136   2.30438
 Alpha virt. eigenvalues --    2.31005   2.31412   2.31688   2.31814   2.32111
 Alpha virt. eigenvalues --    2.32356   2.32654   2.33179   2.33530   2.33577
 Alpha virt. eigenvalues --    2.33730   2.34354   2.34574   2.34892   2.35178
 Alpha virt. eigenvalues --    2.35396   2.35831   2.35977   2.36297   2.36754
 Alpha virt. eigenvalues --    2.36893   2.37192   2.37632   2.37862   2.38055
 Alpha virt. eigenvalues --    2.38286   2.38608   2.39054   2.39423   2.39742
 Alpha virt. eigenvalues --    2.39907   2.40106   2.40231   2.40524   2.41292
 Alpha virt. eigenvalues --    2.41483   2.41715   2.42063   2.42287   2.42541
 Alpha virt. eigenvalues --    2.43039   2.43584   2.43740   2.44254   2.44744
 Alpha virt. eigenvalues --    2.44848   2.45414   2.45949   2.46028   2.46194
 Alpha virt. eigenvalues --    2.46456   2.46700   2.47086   2.47153   2.47275
 Alpha virt. eigenvalues --    2.47498   2.48033   2.48117   2.48824   2.48923
 Alpha virt. eigenvalues --    2.49283   2.49583   2.49787   2.49936   2.50309
 Alpha virt. eigenvalues --    2.50562   2.50799   2.51215   2.51396   2.52129
 Alpha virt. eigenvalues --    2.52386   2.52538   2.52617   2.53156   2.53388
 Alpha virt. eigenvalues --    2.54178   2.54298   2.54522   2.55072   2.55417
 Alpha virt. eigenvalues --    2.55736   2.56155   2.56332   2.56540   2.57462
 Alpha virt. eigenvalues --    2.57595   2.57914   2.58065   2.58291   2.58837
 Alpha virt. eigenvalues --    2.59242   2.59311   2.59718   2.60200   2.60362
 Alpha virt. eigenvalues --    2.60772   2.61146   2.61561   2.61716   2.62432
 Alpha virt. eigenvalues --    2.62524   2.62669   2.63299   2.63610   2.63967
 Alpha virt. eigenvalues --    2.64103   2.64765   2.65124   2.65379   2.65720
 Alpha virt. eigenvalues --    2.65877   2.66229   2.66661   2.66925   2.67345
 Alpha virt. eigenvalues --    2.67451   2.67990   2.68282   2.68725   2.68936
 Alpha virt. eigenvalues --    2.69141   2.69995   2.70162   2.70367   2.70783
 Alpha virt. eigenvalues --    2.71410   2.71772   2.71971   2.72386   2.73020
 Alpha virt. eigenvalues --    2.73455   2.73555   2.74013   2.74408   2.74828
 Alpha virt. eigenvalues --    2.75408   2.75575   2.76281   2.77162   2.77390
 Alpha virt. eigenvalues --    2.78015   2.78545   2.79327   2.79894   2.80903
 Alpha virt. eigenvalues --    2.81368   2.83512   2.84931   2.85630   2.85849
 Alpha virt. eigenvalues --    2.86920   2.87235   2.87636   2.88147   2.88623
 Alpha virt. eigenvalues --    2.89146   2.89381   2.90061   2.90254   2.90775
 Alpha virt. eigenvalues --    2.91713   2.92204   2.92994   2.93088   2.93631
 Alpha virt. eigenvalues --    2.93901   2.94348   2.95013   2.95569   2.95862
 Alpha virt. eigenvalues --    2.96247   2.96590   2.96963   2.97591   2.97847
 Alpha virt. eigenvalues --    2.98635   2.99317   2.99523   2.99785   3.00258
 Alpha virt. eigenvalues --    3.00438   3.00756   3.00838   3.01725   3.01795
 Alpha virt. eigenvalues --    3.02586   3.02802   3.03164   3.03562   3.04702
 Alpha virt. eigenvalues --    3.05499   3.06309   3.06489   3.06847   3.07324
 Alpha virt. eigenvalues --    3.07684   3.08325   3.09041   3.09627   3.10133
 Alpha virt. eigenvalues --    3.10321   3.11850   3.12709   3.14513   3.14704
 Alpha virt. eigenvalues --    3.15245   3.16014   3.17143   3.17948   3.18794
 Alpha virt. eigenvalues --    3.19249   3.19480   3.19939   3.20549   3.21311
 Alpha virt. eigenvalues --    3.21632   3.22122   3.22589   3.23602   3.24322
 Alpha virt. eigenvalues --    3.24660   3.24856   3.26111   3.26366   3.26689
 Alpha virt. eigenvalues --    3.27302   3.27819   3.28777   3.29196   3.29774
 Alpha virt. eigenvalues --    3.30249   3.30917   3.31183   3.32189   3.33144
 Alpha virt. eigenvalues --    3.34059   3.36107   3.36972   3.37703   3.38021
 Alpha virt. eigenvalues --    3.38468   3.39949   3.40429   3.41431   3.42703
 Alpha virt. eigenvalues --    3.44139   3.45140   3.46794   3.48431   3.50378
 Alpha virt. eigenvalues --    3.51897   3.53215   3.53851   3.56233   3.58280
 Alpha virt. eigenvalues --    3.60566   3.62020   3.63054   3.65126   3.66539
 Alpha virt. eigenvalues --    3.68155   3.68544   3.71010   3.72275   3.74708
 Alpha virt. eigenvalues --    3.76769   3.77708   3.78289   3.79710   3.80847
 Alpha virt. eigenvalues --    3.82059   3.82724   3.83820   3.85838   3.87220
 Alpha virt. eigenvalues --    3.88394   3.90091   3.91533   3.92581   3.94166
 Alpha virt. eigenvalues --    3.95742   3.97146   4.01564   4.05700   4.09812
 Alpha virt. eigenvalues --    4.10075   4.14197   4.18982   4.28240   4.32867
 Alpha virt. eigenvalues --    4.34540   4.36211   4.50280   4.62848   4.95274
 Alpha virt. eigenvalues --    5.03452   5.09018   5.29149
          Condensed to atoms (all electrons):
 Mulliken charges:
               1
     1  C    0.697619
     2  C    0.819886
     3  C    0.580432
     4  C    0.819529
     5  H   -0.886597
     6  C    0.622536
     7  C    1.252977
     8  H   -0.834120
     9  C    0.250123
    10  C    0.990756
    11  H   -1.065818
    12  C    0.582712
    13  H   -0.804638
    14  H   -0.640742
    15  H   -0.625623
    16  C    1.603065
    17  C    1.084766
    18  C    0.349493
    19  C    0.895631
    20  H   -1.291853
    21  C    0.341537
    22  C    0.736658
    23  H   -0.952728
    24  C   -0.034438
    25  C    1.067966
    26  H   -0.972208
    27  C    0.757859
    28  H   -0.639537
    29  H   -0.670374
    30  C    1.046364
    31  C    0.690806
    32  C   -0.007430
    33  C    1.404531
    34  H   -1.018266
    35  C    0.655839
    36  C    0.900686
    37  H   -0.804480
    38  C    0.190141
    39  C    1.038548
    40  H   -0.887808
    41  C    0.120066
    42  H   -0.750172
    43  H   -0.700711
    44  C    0.709096
    45  C    0.578620
    46  N   -0.697864
    47  H   -0.125285
    48  N   -0.854356
    49  H   -0.097787
    50  C    0.828145
    51  C    0.861336
    52  N   -0.763819
    53  H   -0.238659
    54  N   -0.092210
    55  H   -0.236181
    56  C    0.730762
    57  C    0.572539
    58  N   -0.726319
    59  H   -0.128628
    60  N   -0.863575
    61  H   -0.101138
    62  C    0.976772
    63  C    0.708186
    64  N   -0.807199
    65  H   -0.192735
    66  N   -0.523624
    67  H   -0.182654
    68  C    0.671332
    69  C    0.581117
    70  N   -0.786527
    71  H   -0.122748
    72  N   -0.878347
    73  H   -0.110313
    74  H   -0.691131
    75  H   -0.528297
    76  H   -0.510158
    77  H    0.082476
    78  H   -0.244254
    79  H   -0.320012
    80  H   -0.277695
    81  H   -0.349113
    82  H   -0.240930
    83  H   -0.316169
    84  H   -0.303876
    85  H   -0.307311
    86  H   -0.257741
    87  H   -0.336710
 Sum of Mulliken charges =   0.00000
 Mulliken charges with hydrogens summed into heavy atoms:
               1
     1  C    0.697619
     2  C    0.179145
     3  C   -0.306164
     4  C    0.819529
     6  C   -0.211584
     7  C    1.252977
     9  C   -0.815695
    10  C    0.186118
    12  C   -0.042911
    16  C    1.603065
    17  C    0.574608
    18  C   -0.942360
    19  C    0.895631
    21  C   -0.611191
    22  C    0.736658
    24  C   -1.006646
    25  C    0.428429
    27  C    0.087484
    30  C    1.046364
    31  C   -0.000324
    32  C   -1.025696
    33  C    1.404531
    35  C   -0.148641
    36  C    0.900686
    38  C   -0.697668
    39  C    0.288376
    41  C   -0.580645
    44  C    0.339558
    45  C    0.160821
    46  N   -0.697864
    48  N   -0.854356
    50  C    0.311791
    51  C    0.276041
    52  N   -0.681343
    54  N   -0.620506
    56  C    0.361204
    57  C    0.155233
    58  N   -0.726319
    60  N   -0.863575
    62  C    0.480161
    63  C    0.218221
    64  N   -0.807199
    66  N   -0.523624
    68  C    0.290843
    69  C    0.134093
    70  N   -0.786527
    72  N   -0.878347
 Electronic spatial extent (au):  <R**2>=          24936.8671
 Charge=              0.0000 electrons
 Dipole moment (field-independent basis, Debye):
    X=             -0.8889    Y=             -0.8460    Z=              1.3667  Tot=              1.8368
 Quadrupole moment (field-independent basis, Debye-Ang):
   XX=           -277.4547   YY=           -278.2187   ZZ=           -259.1819
   XY=             -4.6481   XZ=             11.3056   YZ=             -7.6327
 Traceless Quadrupole moment (field-independent basis, Debye-Ang):
   XX=             -5.8363   YY=             -6.6003   ZZ=             12.4365
   XY=             -4.6481   XZ=             11.3056   YZ=             -7.6327
 Octapole moment (field-independent basis, Debye-Ang**2):
  XXX=            -59.4498  YYY=            105.6522  ZZZ=              4.0823  XYY=              4.3116
  XXY=           -113.5082  XXZ=            -20.8624  XZZ=             26.3274  YZZ=            -38.9327
  YYZ=             -3.9148  XYZ=             26.3476
 Hexadecapole moment (field-independent basis, Debye-Ang**3):
 XXXX=         -14343.6750 YYYY=         -11165.5972 ZZZZ=          -7869.4524 XXXY=            -41.7484
 XXXZ=            155.0041 YYYX=           -167.8401 YYYZ=           -188.9699 ZZZX=             87.0987
 ZZZY=            -93.2870 XXYY=          -4359.9683 XXZZ=          -3720.1606 YYZZ=          -3282.6236
 XXYZ=            -37.8089 YYXZ=            124.0471 ZZXY=            -67.6391
 N-N= 6.004125727768D+03 E-N=-1.660437078770D+04  KE= 1.968636160473D+03
 Leave Link  601 at Tue Nov  9 08:36:05 2021, MaxMem=  7864320000 cpu:              47.9 elap:               1.8
 (Enter /apps/gaussian/g16-c01-avx/g16/l9999.exe)
 Unable to Open any file for archive entry.
 1\1\GINC-CX3-5-28\SP\RMP2-FC\Aug-CC-pVDZ\C37H40N10\ATARZIA\09-Nov-2021
 \0\\#P MP2/aug-cc-pVDZ SP SCF=(YQC,MaxCycle=900) int=(Grid=Superfinegr
 id) SCRF=(PCM,Solvent=Dichloromethane)\\_3_alde1_5_ami4_1_opt_dcm_mp2\
 \0,1\C,0,-3.9795,-1.5977,-0.6956\C,0,-4.8736,-0.6574,-0.038\C,0,-3.602
 6,-2.792,-0.082\C,0,-2.6968,-3.6456,-0.7006\H,0,-4.0347,-3.0364,0.8763
 \C,0,-2.1184,-3.2713,-1.9126\C,0,-2.4575,-2.0671,-2.5179\H,0,-1.3877,-
 3.9288,-2.3567\C,0,-3.4172,-1.2526,-1.9195\C,0,-1.7412,-1.6126,-3.7003
 \H,0,-3.6828,-0.3299,-2.4113\C,0,-2.2796,-4.8872,-0.059\H,0,-0.8206,-2
 .1692,-3.9341\H,0,-5.1762,0.2067,-0.648\H,0,-2.3944,-4.9246,1.0354\C,0
 ,2.3153,-1.9652,-2.6253\C,0,2.4366,-1.1445,-3.8828\C,0,2.8,-1.4618,-1.
 4294\C,0,2.6901,-2.1962,-0.2489\H,0,3.2453,-0.4809,-1.3994\C,0,2.0998,
 -3.4536,-0.2803\C,0,1.6435,-3.9874,-1.4824\H,0,1.994,-4.0453,0.616\C,0
 ,1.7499,-3.2311,-2.6493\C,0,1.0213,-5.3007,-1.5269\H,0,1.3917,-3.6395,
 -3.5848\C,0,3.1464,-1.6305,1.0128\H,0,0.6589,-5.6203,-2.5169\H,0,2.732
 ,-2.0958,1.9213\C,0,-1.6187,1.5007,0.873\C,0,-2.6864,1.3074,1.8453\C,0
 ,-1.9221,1.6302,-0.4812\C,0,-0.9129,1.6826,-1.4378\H,0,-2.9614,1.6562,
 -0.7687\C,0,0.419,1.6668,-1.0247\C,0,0.7353,1.5934,0.3284\H,0,1.2007,1
 .7052,-1.767\C,0,-0.2868,1.4844,1.2711\C,0,2.1313,1.6046,0.7384\H,0,-0
 .0162,1.397,2.3124\C,0,-1.2881,1.7059,-2.8423\H,0,2.8589,1.706,-0.0787
 \H,0,-2.3539,1.8925,-3.0347\C,0,-4.9232,1.1966,2.4996\C,0,-5.9477,0.30
 19,1.7658\N,0,-3.8945,1.542,1.5718\H,0,-4.5327,0.6705,3.3849\N,0,-5.23
 67,-0.7842,1.1645\H,0,-6.4733,0.9171,1.02\C,0,3.885,-0.1011,-5.3106\C,
 0,3.164,1.0106,-4.5183\N,0,3.7487,-1.2974,-4.494\H,0,4.9308,0.1198,-5.
 5154\N,0,2.2886,0.2869,-3.6016\H,0,2.6197,1.694,-5.1756\C,0,-1.2735,-6
 .995,-0.0687\C,0,0.1445,-7.2433,-0.6243\N,0,-1.7999,-5.8418,-0.7253\H,
 0,-1.237,-6.8771,1.0256\N,0,0.8894,-6.0288,-0.5042\H,0,0.0566,-7.5748,
 -1.6709\C,0,-1.291,-0.1031,-5.4203\C,0,-1.0132,1.3858,-5.1161\N,0,-2.1
 163,-0.6162,-4.3757\H,0,-0.3401,-0.6523,-5.5164\N,0,-0.479,1.4915,-3.7
 901\H,0,-1.956,1.9409,-5.2236\C,0,4.2818,-0.0644,2.3125\C,0,3.8836,1.4
 25,2.2383\N,0,3.9559,-0.6655,1.0606\H,0,3.7693,-0.5449,3.1616\N,0,2.48
 54,1.5083,1.947\H,0,4.499,1.9055,1.4634\H,0,-2.3704,0.9111,2.8227\H,0,
 1.3201,0.5938,-3.6588\H,0,1.6963,-1.5001,-4.6264\H,0,4.4491,-1.29,-3.7
 567\H,0,-5.4307,2.112,2.8174\H,0,-6.6598,-0.0976,2.4905\H,0,3.37,-0.28
 45,-6.2592\H,0,3.8835,1.5973,-3.9332\H,0,-1.8993,-7.8573,-0.3175\H,0,0
 .6334,-8.0172,-0.0285\H,0,-1.8387,-0.1646,-6.3649\H,0,-0.2752,1.7668,-
 5.8256\H,0,5.364,-0.125,2.458\H,0,4.0663,1.8944,3.2072\\Version=ES64L-
 G16RevC.01\State=1-A\HF=-1969.0306698\MP2=-1975.85046\RMSD=7.396e-09\P
 G=C01 [X(C37H40N10)]\\@
 The archive entry for this job was punched.


 WE HAVE SEEN THAT MAN ON THE AVERAGE DOES NOT LIVE ABOVE
 TWO-AND-TWENTY YEARS.  DURING THESE TWO AND TWENTY
 YEARS HE IS LIABLE TO TWO AND TWENTY THOUSAND EVILS,
 MANY OF WHICH ARE INCURABLE.  YET EVEN IN THIS DREADFUL STATE
 MEN STILL STRUT AND POSE ON THE STAGE OF LIFE.
 THEY MAKE LOVE AT THE RISK OF DESTRUCTION,
 INTRIGUE, CARRY ON WAR, AND FORM PROJECTS, JUST AS IF THEY
 WERE TO LIVE IN LUXURY AND HAPPINESS FOR A THOUSAND
 AGES.

                                              -- VOLTAIRE
 Job cpu time:      17 days 16 hours  3 minutes 59.9 seconds.
 Elapsed time:       0 days 13 hours 31 minutes 27.8 seconds.
 File lengths (MBytes):  RWF=3194856 Int=      0 D2E=      0 Chk=    152 Scr=     16
 Normal termination of Gaussian 16 at Tue Nov  9 08:36:07 2021.
