 Entering Gaussian System, Link 0=g16
 Initial command:
 /apps/gaussian/g16-c01-avx/g16/l1.exe "/rds/general/ephemeral/user/atarzia/ephemeral/Gau-3427433.inp" -scrdir="/rds/general/ephemeral/user/atarzia/ephemeral/"
 Entering Link 1 = /apps/gaussian/g16-c01-avx/g16/l1.exe PID=   3427434.
  
 Copyright (c) 1988-2019, Gaussian, Inc.  All Rights Reserved.
  
 This is part of the Gaussian(R) 16 program.  It is based on
 the Gaussian(R) 09 system (copyright 2009, Gaussian, Inc.),
 the Gaussian(R) 03 system (copyright 2003, Gaussian, Inc.),
 the Gaussian(R) 98 system (copyright 1998, Gaussian, Inc.),
 the Gaussian(R) 94 system (copyright 1995, Gaussian, Inc.),
 the Gaussian 92(TM) system (copyright 1992, Gaussian, Inc.),
 the Gaussian 90(TM) system (copyright 1990, Gaussian, Inc.),
 the Gaussian 88(TM) system (copyright 1988, Gaussian, Inc.),
 the Gaussian 86(TM) system (copyright 1986, Carnegie Mellon
 University), and the Gaussian 82(TM) system (copyright 1983,
 Carnegie Mellon University). Gaussian is a federally registered
 trademark of Gaussian, Inc.
  
 This software contains proprietary and confidential information,
 including trade secrets, belonging to Gaussian, Inc.
  
 This software is provided under written license and may be
 used, copied, transmitted, or stored only in accord with that
 written license.
  
 The following legend is applicable only to US Government
 contracts under FAR:
  
                    RESTRICTED RIGHTS LEGEND
  
 Use, reproduction and disclosure by the US Government is
 subject to restrictions as set forth in subparagraphs (a)
 and (c) of the Commercial Computer Software - Restricted
 Rights clause in FAR 52.227-19.
  
 Gaussian, Inc.
 340 Quinnipiac St., Bldg. 40, Wallingford CT 06492
  
  
 ---------------------------------------------------------------
 Warning -- This program may not be used in any manner that
 competes with the business of Gaussian, Inc. or will provide
 assistance to any competitor of Gaussian, Inc.  The licensee
 of this program is prohibited from giving any competitor of
 Gaussian, Inc. access to this program.  By using this program,
 the user acknowledges that Gaussian, Inc. is engaged in the
 business of creating and licensing software in the field of
 computational chemistry and represents and warrants to the
 licensee that it is not a competitor of Gaussian, Inc. and that
 it will not use this program in any manner prohibited above.
 ---------------------------------------------------------------
  

 Cite this work as:
 Gaussian 16, Revision C.01,
 M. J. Frisch, G. W. Trucks, H. B. Schlegel, G. E. Scuseria, 
 M. A. Robb, J. R. Cheeseman, G. Scalmani, V. Barone, 
 G. A. Petersson, H. Nakatsuji, X. Li, M. Caricato, A. V. Marenich, 
 J. Bloino, B. G. Janesko, R. Gomperts, B. Mennucci, H. P. Hratchian, 
 J. V. Ortiz, A. F. Izmaylov, J. L. Sonnenberg, D. Williams-Young, 
 F. Ding, F. Lipparini, F. Egidi, J. Goings, B. Peng, A. Petrone, 
 T. Henderson, D. Ranasinghe, V. G. Zakrzewski, J. Gao, N. Rega, 
 G. Zheng, W. Liang, M. Hada, M. Ehara, K. Toyota, R. Fukuda, 
 J. Hasegawa, M. Ishida, T. Nakajima, Y. Honda, O. Kitao, H. Nakai, 
 T. Vreven, K. Throssell, J. A. Montgomery, Jr., J. E. Peralta, 
 F. Ogliaro, M. J. Bearpark, J. J. Heyd, E. N. Brothers, K. N. Kudin, 
 V. N. Staroverov, T. A. Keith, R. Kobayashi, J. Normand, 
 K. Raghavachari, A. P. Rendell, J. C. Burant, S. S. Iyengar, 
 J. Tomasi, M. Cossi, J. M. Millam, M. Klene, C. Adamo, R. Cammi, 
 J. W. Ochterski, R. L. Martin, K. Morokuma, O. Farkas, 
 J. B. Foresman, and D. J. Fox, Gaussian, Inc., Wallingford CT, 2019.
 
 ******************************************
 Gaussian 16:  ES64L-G16RevC.01  3-Jul-2019
                18-Oct-2021 
 ******************************************
 %chk=_3_alde1_6_ami1_1_opt_gas.chk
 %mem=60000mb
 %nprocshared=32
 Will use up to   32 processors via shared memory.
 ----------------------------------------------------------------------
 #P PBE1PBE/Def2TZVP SP SCF=(YQC,MaxCycle=900) int=(Grid=Superfinegrid)
  EmpiricalDispersion=GD3
 ----------------------------------------------------------------------
 1/38=1,172=1/1;
 2/12=2,17=6,18=5,40=1/2;
 3/5=44,7=101,11=2,25=1,30=1,74=-13,75=-7,124=31/1,2,3;
 4//1;
 5/5=2,7=900,8=4,13=1,38=1/8,2,8;
 6/7=2,8=2,9=2,10=2,28=1/1;
 99/5=1,9=1/99;
 Leave Link    1 at Mon Oct 18 10:57:29 2021, MaxMem=  7864320000 cpu:               6.5 elap:               0.2
 (Enter /apps/gaussian/g16-c01-avx/g16/l101.exe)
 -------------------------
 _3_alde1_6_ami1_1_opt_gas
 -------------------------
 Symbolic Z-matrix:
 Charge =  0 Multiplicity = 1
 C                    -2.8508   -2.1294   -0.3838 
 C                    -2.8718   -3.1333   -1.505 
 C                    -2.5694   -2.583     0.894 
 C                    -2.5464   -1.7136    1.9811 
 H                    -2.3436   -3.623     1.0593 
 C                    -2.8053   -0.3651    1.7745 
 C                    -3.1051    0.1056    0.4981 
 H                    -2.8027    0.3374    2.5936 
 C                    -3.1173   -0.7828   -0.5781 
 C                    -3.4604    1.5035    0.2943 
 H                    -3.3581   -0.4169   -1.5668 
 C                    -2.2394   -2.239     3.3046 
 H                    -3.5578    1.8316   -0.753 
 H                    -1.8475   -1.517     4.0376 
 C                     1.9178   -2.06     -0.1443 
 C                     1.9376   -2.0602   -1.653 
 C                     2.6812   -1.1536    0.5727 
 C                     2.6623   -1.1525    1.9674 
 H                     3.287    -0.4209    0.0657 
 C                     1.863    -2.0641    2.6413 
 C                     1.102    -2.9897    1.931 
 H                     1.8274   -2.0875    3.7197 
 C                     1.1298   -2.9788    0.5378 
 C                     0.2626   -3.9471    2.6315 
 H                     0.5227   -3.6801   -0.0156 
 C                     3.4807   -0.1984    2.7051 
 H                    -0.3337   -4.6124    1.99 
 H                     3.1179    0.0707    3.7102 
 C                     1.3012    3.9989   -1.9841 
 C                     1.184     4.4086   -3.4273 
 C                     0.2215    4.1076   -1.1261 
 C                     0.3395    3.7493    0.2181 
 H                    -0.7327    4.469    -1.4764 
 C                     1.5641    3.3024    0.6989 
 C                     2.6593    3.195    -0.154 
 H                     1.6905    3.0316    1.736 
 C                     2.5143    3.529    -1.4978 
 C                     3.9564    2.7647    0.3492 
 H                     3.3487    3.4301   -2.1772 
 C                    -0.8051    3.8678    1.1101 
 H                     4.6658    2.3974   -0.4098 
 H                    -0.66      3.4912    2.1346 
 C                    -1.9551   -5.1592   -2.2207 
 C                    -3.4658   -5.365    -1.9191 
 N                    -1.6565   -3.9383   -1.4868 
 H                    -1.3552   -5.9717   -1.7951 
 C                    -1.6214   -5.0752   -3.7288 
 N                    -3.9489   -4.0975   -1.3624 
 H                    -4.0074   -5.5162   -2.8611 
 C                    -3.8046   -6.5506   -0.9963 
 H                    -2.1466   -4.2075   -4.1448 
 C                    -2.0465   -6.3241   -4.4983 
 C                    -0.1154   -4.8848   -3.9195 
 H                    -4.8788   -6.4685   -0.7874 
 C                    -3.0603   -6.5203    0.3385 
 C                    -3.5647   -7.8864   -1.6964 
 H                     0.4197   -5.7571   -3.5471 
 H                     0.2488   -4.0091   -3.3904 
 H                     0.1175   -4.7678   -4.9764 
 H                    -1.5702   -7.2072   -4.0781 
 H                    -1.7406   -6.2362   -5.5391 
 H                    -3.1221   -6.4712   -4.4782 
 H                    -4.1185   -7.9391   -2.6304 
 H                    -3.8919   -8.7055   -1.0596 
 H                    -2.5087   -8.0254   -1.913 
 H                    -1.9853   -6.5817    0.1897 
 H                    -3.3693   -7.3668    0.9486 
 H                    -3.2767   -5.6134    0.8979 
 C                     2.3782   -0.799    -3.5697 
 C                     0.8733   -1.1922   -3.5438 
 N                     2.7826   -1.0077   -2.192 
 H                     2.5072    0.2662   -3.8023 
 C                     3.1703   -1.62     -4.614 
 N                     0.6239   -1.7931   -2.2285 
 H                     0.7081   -1.982    -4.2884 
 C                    -0.0709   -0.0284   -3.8839 
 H                     2.958    -2.6832   -4.4493 
 C                     4.6767   -1.3937   -4.4784 
 C                     2.7399   -1.2423   -6.0299 
 H                     0.3521    0.4614   -4.7699 
 C                    -0.1688    1.0007   -2.7572 
 C                    -1.4568   -0.5523   -4.2519 
 H                     3.243    -1.8753   -6.7575 
 H                     3.009    -0.2085   -6.2357 
 H                     1.6677   -1.3547   -6.168 
 H                     5.0698   -1.8126   -3.5542 
 H                     4.9012   -0.3289   -4.5004 
 H                     5.1992   -1.8728   -5.3035 
 H                    -1.8637   -1.1291   -3.4262 
 H                    -1.4076   -1.1943   -5.1292 
 H                    -2.1312    0.2737   -4.4685 
 H                     0.8147    1.2434   -2.3611 
 H                    -0.79      0.6365   -1.9401 
 H                    -0.6267    1.917    -3.1235 
 C                     2.2511    4.2371   -5.5194 
 C                     2.0662    5.7251   -5.0991 
 N                     1.9215    3.4985   -4.3086 
 H                     3.3087    4.0445   -5.7502 
 C                     1.4421    3.8631   -6.7801 
 N                     1.7844    5.7071   -3.6683 
 H                     1.1644    6.1137   -5.5904 
 C                     3.2336    6.6409   -5.4886 
 H                     1.6491    4.64     -7.5258 
 C                    -0.0664    3.8115   -6.542 
 C                     1.9201    2.5233   -7.3388 
 H                     3.4339    6.4565   -6.551 
 C                     4.5147    6.3602   -4.702 
 C                     2.8265    8.1028   -5.3133 
 H                     2.9838    2.5563   -7.5647 
 H                     1.3829    2.2772   -8.252 
 H                     1.7472    1.7261   -6.6182 
 H                    -0.4393    4.7537   -6.1478 
 H                    -0.3245    3.0176   -5.8428 
 H                    -0.5803    3.6097   -7.4795 
 H                     1.9925    8.3509   -5.9656 
 H                     3.6585    8.7611   -5.5526 
 H                     2.5211    8.2799   -4.2852 
 H                     4.436     6.7378   -3.6845 
 H                     5.3544    6.8623   -5.1773 
 H                     4.7329    5.2954   -4.6641 
 C                    -1.9814   -3.9842    4.8338 
 C                    -0.7462   -4.8754    4.5063 
 N                    -2.4126   -3.4575    3.5762 
 H                    -1.6428   -3.1775    5.5073 
 C                    -3.1418   -4.743     5.5028 
 N                     0.2102   -4.0042    3.8913 
 H                    -1.0879   -5.6476    3.7959 
 C                    -0.1112   -5.5572    5.7293 
 H                    -2.7736   -5.1736    6.4392 
 C                    -3.6873   -5.8563    4.6133 
 C                    -4.2539   -3.7494    5.8403 
 H                    -0.8613   -6.2069    6.1913 
 C                     0.383    -4.5431    6.7565 
 C                     1.0505   -6.4304    5.2539 
 H                    -4.651    -3.309     4.9283 
 H                    -3.8778   -2.949     6.4745 
 H                    -5.0635   -4.2514    6.3653 
 H                    -4.5889   -6.2766    5.0536 
 H                    -2.9624   -6.6573    4.4953 
 H                    -3.9288   -5.454     3.6336 
 H                     1.8124   -5.81      4.7876 
 H                     0.7092   -7.1633    4.5253 
 H                     1.4957   -6.9606    6.0927 
 H                     0.9613   -5.0452    7.5291 
 H                    -0.4476   -4.0301    7.2344 
 H                     1.0145   -3.8087    6.265 
 C                    -4.115     3.619     1.0562 
 C                    -2.9931    4.5266    1.6203 
 N                    -3.6918    2.2689    1.2676 
 H                    -4.215     3.845    -0.0206 
 C                    -5.4893    3.8013    1.7336 
 N                    -1.8845    4.3918    0.7263 
 H                    -2.743     4.1575    2.631 
 C                    -3.3608    6.0219    1.7117 
 H                    -5.7984    4.8426    1.6039 
 C                    -5.4368    3.4693    3.2219 
 C                    -6.5201    2.9146    1.0344 
 H                    -4.2316    6.1211    2.3666 
 C                    -3.6854    6.6118    0.3425 
 C                    -2.2019    6.7876    2.3506 
 H                    -6.2619    1.8652    1.1585 
 H                    -6.5615    3.1364   -0.0304 
 H                    -7.508     3.0807    1.4578 
 H                    -6.4364    3.5136    3.6492 
 H                    -4.8045    4.171     3.7592 
 H                    -5.0401    2.4672    3.3578 
 H                    -1.3191    6.732     1.7176 
 H                    -1.9547    6.3715    3.3254 
 H                    -2.4692    7.8338    2.4819 
 H                    -3.8451    7.6847    0.4274 
 H                    -4.5836    6.1653   -0.0756 
 H                    -2.8571    6.4323   -0.3369 
 C                     5.3148    1.2212    2.9639 
 C                     5.5523    2.4149    2.0093 
 N                     4.5427    0.2705    2.2191 
 H                     4.7502    1.5834    3.8401 
 C                     6.6126    0.5535    3.4668 
 N                     4.2576    2.8444    1.5693 
 H                     6.1505    2.0482    1.1565 
 C                     6.2908    3.6056    2.6527 
 H                     7.2145    1.3223    3.9618 
 C                     7.421    -0.0638    2.3288 
 C                     6.2684   -0.5154    4.5039 
 H                     7.2614    3.2481    3.0116 
 C                     5.5096    4.2039    3.8192 
 C                     6.5443    4.6748    1.5896 
 H                     5.6823   -1.3108    4.0484 
 H                     5.6947   -0.0883    5.3243 
 H                     7.1783   -0.9489    4.9128 
 H                     6.7854   -0.7232    1.7439 
 H                     8.2514   -0.6396    2.7321 
 H                     7.8276    0.7024    1.6742 
 H                     7.1262    5.4929    2.0082 
 H                     5.5997    5.0721    1.2249 
 H                     7.0938    4.2594    0.7468 
 H                     5.9808    5.1275    4.1484 
 H                     5.4787    3.5207    4.6638 
 H                     4.4925    4.4195    3.5038 
 H                     3.769    -1.2032   -2.0901 
 H                     2.248    -3.0697   -2.0027 
 H                     0.1487   -1.124    -1.6308 
 H                     2.6558    5.7556   -3.1492 
 H                     1.4152    2.6423   -4.4899 
 H                     0.1148    4.4867   -3.6995 
 H                    -4.1737   -4.2091   -0.38 
 H                    -0.8593   -3.4218   -1.8457 
 H                    -3.0255   -2.6152   -2.4733 
 
 ITRead=  0  0  0  0  0  0  0  0  0  0  0  0  0  0  0  0  0  0  0  0
 ITRead=  0  0  0  0  0  0  0  0  0  0  0  0  0  0  0  0  0  0  0  0
 ITRead=  0  0  0  0  0  0  0  0  0  0  0  0  0  0  0  0  0  0  0  0
 ITRead=  0  0  0  0  0  0  0  0  0  0  0  0  0  0  0  0  0  0  0  0
 ITRead=  0  0  0  0  0  0  0  0  0  0  0  0  0  0  0  0  0  0  0  0
 ITRead=  0  0  0  0  0  0  0  0  0  0  0  0  0  0  0  0  0  0  0  0
 ITRead=  0  0  0  0  0  0  0  0  0  0  0  0  0  0  0  0  0  0  0  0
 ITRead=  0  0  0  0  0  0  0  0  0  0  0  0  0  0  0  0  0  0  0  0
 ITRead=  0  0  0  0  0  0  0  0  0  0  0  0  0  0  0  0  0  0  0  0
 ITRead=  0  0  0  0  0  0  0  0  0  0  0  0  0  0  0  0  0  0  0  0
 ITRead=  0  0  0  0  0  0  0
 MicOpt= -1 -1 -1 -1 -1 -1 -1 -1 -1 -1 -1 -1 -1 -1 -1 -1 -1 -1 -1 -1
 MicOpt= -1 -1 -1 -1 -1 -1 -1 -1 -1 -1 -1 -1 -1 -1 -1 -1 -1 -1 -1 -1
 MicOpt= -1 -1 -1 -1 -1 -1 -1 -1 -1 -1 -1 -1 -1 -1 -1 -1 -1 -1 -1 -1
 MicOpt= -1 -1 -1 -1 -1 -1 -1 -1 -1 -1 -1 -1 -1 -1 -1 -1 -1 -1 -1 -1
 MicOpt= -1 -1 -1 -1 -1 -1 -1 -1 -1 -1 -1 -1 -1 -1 -1 -1 -1 -1 -1 -1
 MicOpt= -1 -1 -1 -1 -1 -1 -1 -1 -1 -1 -1 -1 -1 -1 -1 -1 -1 -1 -1 -1
 MicOpt= -1 -1 -1 -1 -1 -1 -1 -1 -1 -1 -1 -1 -1 -1 -1 -1 -1 -1 -1 -1
 MicOpt= -1 -1 -1 -1 -1 -1 -1 -1 -1 -1 -1 -1 -1 -1 -1 -1 -1 -1 -1 -1
 MicOpt= -1 -1 -1 -1 -1 -1 -1 -1 -1 -1 -1 -1 -1 -1 -1 -1 -1 -1 -1 -1
 MicOpt= -1 -1 -1 -1 -1 -1 -1 -1 -1 -1 -1 -1 -1 -1 -1 -1 -1 -1 -1 -1
 MicOpt= -1 -1 -1 -1 -1 -1 -1
 NAtoms=    207 NQM=      207 NQMF=       0 NMMI=      0 NMMIF=      0
                NMic=       0 NMicF=      0.
                    Isotopes and Nuclear Properties:
 (Nuclear quadrupole moments (NQMom) in fm**2, nuclear magnetic moments (NMagM)
  in nuclear magnetons)

  Atom         1           2           3           4           5           6           7           8           9          10
 IAtWgt=          12          12          12          12           1          12          12           1          12          12
 AtmWgt=  12.0000000  12.0000000  12.0000000  12.0000000   1.0078250  12.0000000  12.0000000   1.0078250  12.0000000  12.0000000
 NucSpn=           0           0           0           0           1           0           0           1           0           0
 AtZEff=  -0.0000000  -0.0000000  -0.0000000  -0.0000000  -0.0000000  -0.0000000  -0.0000000  -0.0000000  -0.0000000  -0.0000000
 NQMom=    0.0000000   0.0000000   0.0000000   0.0000000   0.0000000   0.0000000   0.0000000   0.0000000   0.0000000   0.0000000
 NMagM=    0.0000000   0.0000000   0.0000000   0.0000000   2.7928460   0.0000000   0.0000000   2.7928460   0.0000000   0.0000000
 AtZNuc=   6.0000000   6.0000000   6.0000000   6.0000000   1.0000000   6.0000000   6.0000000   1.0000000   6.0000000   6.0000000

  Atom        11          12          13          14          15          16          17          18          19          20
 IAtWgt=           1          12           1           1          12          12          12          12           1          12
 AtmWgt=   1.0078250  12.0000000   1.0078250   1.0078250  12.0000000  12.0000000  12.0000000  12.0000000   1.0078250  12.0000000
 NucSpn=           1           0           1           1           0           0           0           0           1           0
 AtZEff=  -0.0000000  -0.0000000  -0.0000000  -0.0000000  -0.0000000  -0.0000000  -0.0000000  -0.0000000  -0.0000000  -0.0000000
 NQMom=    0.0000000   0.0000000   0.0000000   0.0000000   0.0000000   0.0000000   0.0000000   0.0000000   0.0000000   0.0000000
 NMagM=    2.7928460   0.0000000   2.7928460   2.7928460   0.0000000   0.0000000   0.0000000   0.0000000   2.7928460   0.0000000
 AtZNuc=   1.0000000   6.0000000   1.0000000   1.0000000   6.0000000   6.0000000   6.0000000   6.0000000   1.0000000   6.0000000

  Atom        21          22          23          24          25          26          27          28          29          30
 IAtWgt=          12           1          12          12           1          12           1           1          12          12
 AtmWgt=  12.0000000   1.0078250  12.0000000  12.0000000   1.0078250  12.0000000   1.0078250   1.0078250  12.0000000  12.0000000
 NucSpn=           0           1           0           0           1           0           1           1           0           0
 AtZEff=  -0.0000000  -0.0000000  -0.0000000  -0.0000000  -0.0000000  -0.0000000  -0.0000000  -0.0000000  -0.0000000  -0.0000000
 NQMom=    0.0000000   0.0000000   0.0000000   0.0000000   0.0000000   0.0000000   0.0000000   0.0000000   0.0000000   0.0000000
 NMagM=    0.0000000   2.7928460   0.0000000   0.0000000   2.7928460   0.0000000   2.7928460   2.7928460   0.0000000   0.0000000
 AtZNuc=   6.0000000   1.0000000   6.0000000   6.0000000   1.0000000   6.0000000   1.0000000   1.0000000   6.0000000   6.0000000

  Atom        31          32          33          34          35          36          37          38          39          40
 IAtWgt=          12          12           1          12          12           1          12          12           1          12
 AtmWgt=  12.0000000  12.0000000   1.0078250  12.0000000  12.0000000   1.0078250  12.0000000  12.0000000   1.0078250  12.0000000
 NucSpn=           0           0           1           0           0           1           0           0           1           0
 AtZEff=  -0.0000000  -0.0000000  -0.0000000  -0.0000000  -0.0000000  -0.0000000  -0.0000000  -0.0000000  -0.0000000  -0.0000000
 NQMom=    0.0000000   0.0000000   0.0000000   0.0000000   0.0000000   0.0000000   0.0000000   0.0000000   0.0000000   0.0000000
 NMagM=    0.0000000   0.0000000   2.7928460   0.0000000   0.0000000   2.7928460   0.0000000   0.0000000   2.7928460   0.0000000
 AtZNuc=   6.0000000   6.0000000   1.0000000   6.0000000   6.0000000   1.0000000   6.0000000   6.0000000   1.0000000   6.0000000

  Atom        41          42          43          44          45          46          47          48          49          50
 IAtWgt=           1           1          12          12          14           1          12          14           1          12
 AtmWgt=   1.0078250   1.0078250  12.0000000  12.0000000  14.0030740   1.0078250  12.0000000  14.0030740   1.0078250  12.0000000
 NucSpn=           1           1           0           0           2           1           0           2           1           0
 AtZEff=  -0.0000000  -0.0000000  -0.0000000  -0.0000000  -0.0000000  -0.0000000  -0.0000000  -0.0000000  -0.0000000  -0.0000000
 NQMom=    0.0000000   0.0000000   0.0000000   0.0000000   2.0440000   0.0000000   0.0000000   2.0440000   0.0000000   0.0000000
 NMagM=    2.7928460   2.7928460   0.0000000   0.0000000   0.4037610   2.7928460   0.0000000   0.4037610   2.7928460   0.0000000
 AtZNuc=   1.0000000   1.0000000   6.0000000   6.0000000   7.0000000   1.0000000   6.0000000   7.0000000   1.0000000   6.0000000

  Atom        51          52          53          54          55          56          57          58          59          60
 IAtWgt=           1          12          12           1          12          12           1           1           1           1
 AtmWgt=   1.0078250  12.0000000  12.0000000   1.0078250  12.0000000  12.0000000   1.0078250   1.0078250   1.0078250   1.0078250
 NucSpn=           1           0           0           1           0           0           1           1           1           1
 AtZEff=  -0.0000000  -0.0000000  -0.0000000  -0.0000000  -0.0000000  -0.0000000  -0.0000000  -0.0000000  -0.0000000  -0.0000000
 NQMom=    0.0000000   0.0000000   0.0000000   0.0000000   0.0000000   0.0000000   0.0000000   0.0000000   0.0000000   0.0000000
 NMagM=    2.7928460   0.0000000   0.0000000   2.7928460   0.0000000   0.0000000   2.7928460   2.7928460   2.7928460   2.7928460
 AtZNuc=   1.0000000   6.0000000   6.0000000   1.0000000   6.0000000   6.0000000   1.0000000   1.0000000   1.0000000   1.0000000

  Atom        61          62          63          64          65          66          67          68          69          70
 IAtWgt=           1           1           1           1           1           1           1           1          12          12
 AtmWgt=   1.0078250   1.0078250   1.0078250   1.0078250   1.0078250   1.0078250   1.0078250   1.0078250  12.0000000  12.0000000
 NucSpn=           1           1           1           1           1           1           1           1           0           0
 AtZEff=  -0.0000000  -0.0000000  -0.0000000  -0.0000000  -0.0000000  -0.0000000  -0.0000000  -0.0000000  -0.0000000  -0.0000000
 NQMom=    0.0000000   0.0000000   0.0000000   0.0000000   0.0000000   0.0000000   0.0000000   0.0000000   0.0000000   0.0000000
 NMagM=    2.7928460   2.7928460   2.7928460   2.7928460   2.7928460   2.7928460   2.7928460   2.7928460   0.0000000   0.0000000
 AtZNuc=   1.0000000   1.0000000   1.0000000   1.0000000   1.0000000   1.0000000   1.0000000   1.0000000   6.0000000   6.0000000

  Atom        71          72          73          74          75          76          77          78          79          80
 IAtWgt=          14           1          12          14           1          12           1          12          12           1
 AtmWgt=  14.0030740   1.0078250  12.0000000  14.0030740   1.0078250  12.0000000   1.0078250  12.0000000  12.0000000   1.0078250
 NucSpn=           2           1           0           2           1           0           1           0           0           1
 AtZEff=  -0.0000000  -0.0000000  -0.0000000  -0.0000000  -0.0000000  -0.0000000  -0.0000000  -0.0000000  -0.0000000  -0.0000000
 NQMom=    2.0440000   0.0000000   0.0000000   2.0440000   0.0000000   0.0000000   0.0000000   0.0000000   0.0000000   0.0000000
 NMagM=    0.4037610   2.7928460   0.0000000   0.4037610   2.7928460   0.0000000   2.7928460   0.0000000   0.0000000   2.7928460
 AtZNuc=   7.0000000   1.0000000   6.0000000   7.0000000   1.0000000   6.0000000   1.0000000   6.0000000   6.0000000   1.0000000

  Atom        81          82          83          84          85          86          87          88          89          90
 IAtWgt=          12          12           1           1           1           1           1           1           1           1
 AtmWgt=  12.0000000  12.0000000   1.0078250   1.0078250   1.0078250   1.0078250   1.0078250   1.0078250   1.0078250   1.0078250
 NucSpn=           0           0           1           1           1           1           1           1           1           1
 AtZEff=  -0.0000000  -0.0000000  -0.0000000  -0.0000000  -0.0000000  -0.0000000  -0.0000000  -0.0000000  -0.0000000  -0.0000000
 NQMom=    0.0000000   0.0000000   0.0000000   0.0000000   0.0000000   0.0000000   0.0000000   0.0000000   0.0000000   0.0000000
 NMagM=    0.0000000   0.0000000   2.7928460   2.7928460   2.7928460   2.7928460   2.7928460   2.7928460   2.7928460   2.7928460
 AtZNuc=   6.0000000   6.0000000   1.0000000   1.0000000   1.0000000   1.0000000   1.0000000   1.0000000   1.0000000   1.0000000

  Atom        91          92          93          94          95          96          97          98          99         100
 IAtWgt=           1           1           1           1          12          12          14           1          12          14
 AtmWgt=   1.0078250   1.0078250   1.0078250   1.0078250  12.0000000  12.0000000  14.0030740   1.0078250  12.0000000  14.0030740
 NucSpn=           1           1           1           1           0           0           2           1           0           2
 AtZEff=  -0.0000000  -0.0000000  -0.0000000  -0.0000000  -0.0000000  -0.0000000  -0.0000000  -0.0000000  -0.0000000  -0.0000000
 NQMom=    0.0000000   0.0000000   0.0000000   0.0000000   0.0000000   0.0000000   2.0440000   0.0000000   0.0000000   2.0440000
 NMagM=    2.7928460   2.7928460   2.7928460   2.7928460   0.0000000   0.0000000   0.4037610   2.7928460   0.0000000   0.4037610
 AtZNuc=   1.0000000   1.0000000   1.0000000   1.0000000   6.0000000   6.0000000   7.0000000   1.0000000   6.0000000   7.0000000

  Atom       101         102         103         104         105         106         107         108         109         110
 IAtWgt=           1          12           1          12          12           1          12          12           1           1
 AtmWgt=   1.0078250  12.0000000   1.0078250  12.0000000  12.0000000   1.0078250  12.0000000  12.0000000   1.0078250   1.0078250
 NucSpn=           1           0           1           0           0           1           0           0           1           1
 AtZEff=  -0.0000000  -0.0000000  -0.0000000  -0.0000000  -0.0000000  -0.0000000  -0.0000000  -0.0000000  -0.0000000  -0.0000000
 NQMom=    0.0000000   0.0000000   0.0000000   0.0000000   0.0000000   0.0000000   0.0000000   0.0000000   0.0000000   0.0000000
 NMagM=    2.7928460   0.0000000   2.7928460   0.0000000   0.0000000   2.7928460   0.0000000   0.0000000   2.7928460   2.7928460
 AtZNuc=   1.0000000   6.0000000   1.0000000   6.0000000   6.0000000   1.0000000   6.0000000   6.0000000   1.0000000   1.0000000

  Atom       111         112         113         114         115         116         117         118         119         120
 IAtWgt=           1           1           1           1           1           1           1           1           1           1
 AtmWgt=   1.0078250   1.0078250   1.0078250   1.0078250   1.0078250   1.0078250   1.0078250   1.0078250   1.0078250   1.0078250
 NucSpn=           1           1           1           1           1           1           1           1           1           1
 AtZEff=  -0.0000000  -0.0000000  -0.0000000  -0.0000000  -0.0000000  -0.0000000  -0.0000000  -0.0000000  -0.0000000  -0.0000000
 NQMom=    0.0000000   0.0000000   0.0000000   0.0000000   0.0000000   0.0000000   0.0000000   0.0000000   0.0000000   0.0000000
 NMagM=    2.7928460   2.7928460   2.7928460   2.7928460   2.7928460   2.7928460   2.7928460   2.7928460   2.7928460   2.7928460
 AtZNuc=   1.0000000   1.0000000   1.0000000   1.0000000   1.0000000   1.0000000   1.0000000   1.0000000   1.0000000   1.0000000

  Atom       121         122         123         124         125         126         127         128         129         130
 IAtWgt=          12          12          14           1          12          14           1          12           1          12
 AtmWgt=  12.0000000  12.0000000  14.0030740   1.0078250  12.0000000  14.0030740   1.0078250  12.0000000   1.0078250  12.0000000
 NucSpn=           0           0           2           1           0           2           1           0           1           0
 AtZEff=  -0.0000000  -0.0000000  -0.0000000  -0.0000000  -0.0000000  -0.0000000  -0.0000000  -0.0000000  -0.0000000  -0.0000000
 NQMom=    0.0000000   0.0000000   2.0440000   0.0000000   0.0000000   2.0440000   0.0000000   0.0000000   0.0000000   0.0000000
 NMagM=    0.0000000   0.0000000   0.4037610   2.7928460   0.0000000   0.4037610   2.7928460   0.0000000   2.7928460   0.0000000
 AtZNuc=   6.0000000   6.0000000   7.0000000   1.0000000   6.0000000   7.0000000   1.0000000   6.0000000   1.0000000   6.0000000

  Atom       131         132         133         134         135         136         137         138         139         140
 IAtWgt=          12           1          12          12           1           1           1           1           1           1
 AtmWgt=  12.0000000   1.0078250  12.0000000  12.0000000   1.0078250   1.0078250   1.0078250   1.0078250   1.0078250   1.0078250
 NucSpn=           0           1           0           0           1           1           1           1           1           1
 AtZEff=  -0.0000000  -0.0000000  -0.0000000  -0.0000000  -0.0000000  -0.0000000  -0.0000000  -0.0000000  -0.0000000  -0.0000000
 NQMom=    0.0000000   0.0000000   0.0000000   0.0000000   0.0000000   0.0000000   0.0000000   0.0000000   0.0000000   0.0000000
 NMagM=    0.0000000   2.7928460   0.0000000   0.0000000   2.7928460   2.7928460   2.7928460   2.7928460   2.7928460   2.7928460
 AtZNuc=   6.0000000   1.0000000   6.0000000   6.0000000   1.0000000   1.0000000   1.0000000   1.0000000   1.0000000   1.0000000

  Atom       141         142         143         144         145         146         147         148         149         150
 IAtWgt=           1           1           1           1           1           1          12          12          14           1
 AtmWgt=   1.0078250   1.0078250   1.0078250   1.0078250   1.0078250   1.0078250  12.0000000  12.0000000  14.0030740   1.0078250
 NucSpn=           1           1           1           1           1           1           0           0           2           1
 AtZEff=  -0.0000000  -0.0000000  -0.0000000  -0.0000000  -0.0000000  -0.0000000  -0.0000000  -0.0000000  -0.0000000  -0.0000000
 NQMom=    0.0000000   0.0000000   0.0000000   0.0000000   0.0000000   0.0000000   0.0000000   0.0000000   2.0440000   0.0000000
 NMagM=    2.7928460   2.7928460   2.7928460   2.7928460   2.7928460   2.7928460   0.0000000   0.0000000   0.4037610   2.7928460
 AtZNuc=   1.0000000   1.0000000   1.0000000   1.0000000   1.0000000   1.0000000   6.0000000   6.0000000   7.0000000   1.0000000

  Atom       151         152         153         154         155         156         157         158         159         160
 IAtWgt=          12          14           1          12           1          12          12           1          12          12
 AtmWgt=  12.0000000  14.0030740   1.0078250  12.0000000   1.0078250  12.0000000  12.0000000   1.0078250  12.0000000  12.0000000
 NucSpn=           0           2           1           0           1           0           0           1           0           0
 AtZEff=  -0.0000000  -0.0000000  -0.0000000  -0.0000000  -0.0000000  -0.0000000  -0.0000000  -0.0000000  -0.0000000  -0.0000000
 NQMom=    0.0000000   2.0440000   0.0000000   0.0000000   0.0000000   0.0000000   0.0000000   0.0000000   0.0000000   0.0000000
 NMagM=    0.0000000   0.4037610   2.7928460   0.0000000   2.7928460   0.0000000   0.0000000   2.7928460   0.0000000   0.0000000
 AtZNuc=   6.0000000   7.0000000   1.0000000   6.0000000   1.0000000   6.0000000   6.0000000   1.0000000   6.0000000   6.0000000

  Atom       161         162         163         164         165         166         167         168         169         170
 IAtWgt=           1           1           1           1           1           1           1           1           1           1
 AtmWgt=   1.0078250   1.0078250   1.0078250   1.0078250   1.0078250   1.0078250   1.0078250   1.0078250   1.0078250   1.0078250
 NucSpn=           1           1           1           1           1           1           1           1           1           1
 AtZEff=  -0.0000000  -0.0000000  -0.0000000  -0.0000000  -0.0000000  -0.0000000  -0.0000000  -0.0000000  -0.0000000  -0.0000000
 NQMom=    0.0000000   0.0000000   0.0000000   0.0000000   0.0000000   0.0000000   0.0000000   0.0000000   0.0000000   0.0000000
 NMagM=    2.7928460   2.7928460   2.7928460   2.7928460   2.7928460   2.7928460   2.7928460   2.7928460   2.7928460   2.7928460
 AtZNuc=   1.0000000   1.0000000   1.0000000   1.0000000   1.0000000   1.0000000   1.0000000   1.0000000   1.0000000   1.0000000

  Atom       171         172         173         174         175         176         177         178         179         180
 IAtWgt=           1           1          12          12          14           1          12          14           1          12
 AtmWgt=   1.0078250   1.0078250  12.0000000  12.0000000  14.0030740   1.0078250  12.0000000  14.0030740   1.0078250  12.0000000
 NucSpn=           1           1           0           0           2           1           0           2           1           0
 AtZEff=  -0.0000000  -0.0000000  -0.0000000  -0.0000000  -0.0000000  -0.0000000  -0.0000000  -0.0000000  -0.0000000  -0.0000000
 NQMom=    0.0000000   0.0000000   0.0000000   0.0000000   2.0440000   0.0000000   0.0000000   2.0440000   0.0000000   0.0000000
 NMagM=    2.7928460   2.7928460   0.0000000   0.0000000   0.4037610   2.7928460   0.0000000   0.4037610   2.7928460   0.0000000
 AtZNuc=   1.0000000   1.0000000   6.0000000   6.0000000   7.0000000   1.0000000   6.0000000   7.0000000   1.0000000   6.0000000

  Atom       181         182         183         184         185         186         187         188         189         190
 IAtWgt=           1          12          12           1          12          12           1           1           1           1
 AtmWgt=   1.0078250  12.0000000  12.0000000   1.0078250  12.0000000  12.0000000   1.0078250   1.0078250   1.0078250   1.0078250
 NucSpn=           1           0           0           1           0           0           1           1           1           1
 AtZEff=  -0.0000000  -0.0000000  -0.0000000  -0.0000000  -0.0000000  -0.0000000  -0.0000000  -0.0000000  -0.0000000  -0.0000000
 NQMom=    0.0000000   0.0000000   0.0000000   0.0000000   0.0000000   0.0000000   0.0000000   0.0000000   0.0000000   0.0000000
 NMagM=    2.7928460   0.0000000   0.0000000   2.7928460   0.0000000   0.0000000   2.7928460   2.7928460   2.7928460   2.7928460
 AtZNuc=   1.0000000   6.0000000   6.0000000   1.0000000   6.0000000   6.0000000   1.0000000   1.0000000   1.0000000   1.0000000

  Atom       191         192         193         194         195         196         197         198         199         200
 IAtWgt=           1           1           1           1           1           1           1           1           1           1
 AtmWgt=   1.0078250   1.0078250   1.0078250   1.0078250   1.0078250   1.0078250   1.0078250   1.0078250   1.0078250   1.0078250
 NucSpn=           1           1           1           1           1           1           1           1           1           1
 AtZEff=  -0.0000000  -0.0000000  -0.0000000  -0.0000000  -0.0000000  -0.0000000  -0.0000000  -0.0000000  -0.0000000  -0.0000000
 NQMom=    0.0000000   0.0000000   0.0000000   0.0000000   0.0000000   0.0000000   0.0000000   0.0000000   0.0000000   0.0000000
 NMagM=    2.7928460   2.7928460   2.7928460   2.7928460   2.7928460   2.7928460   2.7928460   2.7928460   2.7928460   2.7928460
 AtZNuc=   1.0000000   1.0000000   1.0000000   1.0000000   1.0000000   1.0000000   1.0000000   1.0000000   1.0000000   1.0000000

  Atom       201         202         203         204         205         206         207
 IAtWgt=           1           1           1           1           1           1           1
 AtmWgt=   1.0078250   1.0078250   1.0078250   1.0078250   1.0078250   1.0078250   1.0078250
 NucSpn=           1           1           1           1           1           1           1
 AtZEff=  -0.0000000  -0.0000000  -0.0000000  -0.0000000  -0.0000000  -0.0000000  -0.0000000
 NQMom=    0.0000000   0.0000000   0.0000000   0.0000000   0.0000000   0.0000000   0.0000000
 NMagM=    2.7928460   2.7928460   2.7928460   2.7928460   2.7928460   2.7928460   2.7928460
 AtZNuc=   1.0000000   1.0000000   1.0000000   1.0000000   1.0000000   1.0000000   1.0000000
 Leave Link  101 at Mon Oct 18 10:57:30 2021, MaxMem=  7864320000 cpu:               3.2 elap:               0.1
 (Enter /apps/gaussian/g16-c01-avx/g16/l202.exe)
 Stoichiometry    C75H120N12
 Framework group  C1[X(C75H120N12)]
 Deg. of freedom   615
 Full point group                 C1      NOp   1
 Largest Abelian subgroup         C1      NOp   1
 Largest concise Abelian subgroup C1      NOp   1
                         Standard orientation:                         
 ---------------------------------------------------------------------
 Center     Atomic      Atomic             Coordinates (Angstroms)
 Number     Number       Type             X           Y           Z
 ---------------------------------------------------------------------
      1          6           0        2.897658   -2.108604    1.257138
      2          6           0        3.230402   -3.327385    0.439091
      3          6           0        3.708670   -0.993606    1.127720
      4          6           0        3.469087    0.163962    1.863117
      5          1           0        4.532248   -1.003680    0.433799
      6          6           0        2.391152    0.198837    2.737763
      7          6           0        1.574205   -0.919023    2.891460
      8          1           0        2.178105    1.075997    3.329066
      9          6           0        1.829617   -2.067008    2.140125
     10          6           0        0.495711   -0.912830    3.870597
     11          1           0        1.199158   -2.936423    2.266749
     12          6           0        4.347901    1.312250    1.686862
     13          1           0       -0.186445   -1.777730    3.846445
     14          1           0        3.927477    2.294221    1.953576
     15          6           0        1.057217    0.247634   -2.466119
     16          6           0        0.393550   -1.041865   -2.882421
     17          6           0        0.333578    1.426944   -2.402848
     18          6           0        0.946592    2.618962   -2.017035
     19          1           0       -0.719364    1.440130   -2.630953
     20          6           0        2.293422    2.619261   -1.685241
     21          6           0        3.034552    1.442113   -1.758937
     22          1           0        2.795337    3.525650   -1.383078
     23          6           0        2.408960    0.258290   -2.145066
     24          6           0        4.445870    1.436207   -1.412446
     25          1           0        2.975956   -0.660353   -2.180475
     26          6           0        0.171594    3.852309   -1.966842
     27          1           0        4.941166    0.455350   -1.460622
     28          1           0        0.534648    4.620497   -1.265169
     29          6           0       -4.398836   -0.135543    0.783495
     30          6           0       -5.311285   -1.330115    0.713853
     31          6           0       -3.686109    0.146281    1.935158
     32          6           0       -2.858593    1.268538    2.005404
     33          1           0       -3.752833   -0.493996    2.800843
     34          6           0       -2.773061    2.121253    0.911742
     35          6           0       -3.490760    1.851067   -0.250301
     36          1           0       -2.153167    3.004307    0.940606
     37          6           0       -4.287756    0.711158   -0.311797
     38          6           0       -3.437625    2.759535   -1.387271
     39          1           0       -4.833610    0.475679   -1.214118
     40          6           0       -2.113308    1.552975    3.223378
     41          1           0       -3.751512    2.334259   -2.354149
     42          1           0       -1.420730    2.407780    3.177267
     43          6           0        4.194682   -4.026684   -1.570381
     44          6           0        5.090527   -4.493086   -0.389085
     45          7           0        3.408100   -2.964150   -0.961549
     46          1           0        4.799293   -3.589988   -2.373446
     47          6           0        3.338868   -5.154734   -2.193169
     48          7           0        4.498776   -3.921382    0.824522
     49          1           0        5.017713   -5.582837   -0.285661
     50          6           0        6.584818   -4.139336   -0.507197
     51          1           0        2.664204   -5.536305   -1.417911
     52          6           0        4.182713   -6.311314   -2.724995
     53          6           0        2.505558   -4.598751   -3.349514
     54          1           0        7.034649   -4.420112    0.453585
     55          6           0        6.845931   -2.650335   -0.733660
     56          6           0        7.265769   -4.959875   -1.600392
     57          1           0        3.161065   -4.251391   -4.146743
     58          1           0        1.883139   -3.767198   -3.032414
     59          1           0        1.859156   -5.375576   -3.754084
     60          1           0        4.891023   -5.951755   -3.468170
     61          1           0        3.537937   -7.048716   -3.199409
     62          1           0        4.736379   -6.811019   -1.935877
     63          1           0        7.121600   -6.024206   -1.432335
     64          1           0        8.334696   -4.757777   -1.607506
     65          1           0        6.865817   -4.707728   -2.579081
     66          1           0        6.405173   -2.312440   -1.668055
     67          1           0        7.918202   -2.469746   -0.777120
     68          1           0        6.441380   -2.044838    0.073767
     69          6           0       -1.634348   -2.186956   -3.069194
     70          6           0       -0.709111   -2.933665   -2.066018
     71          7           0       -1.026678   -0.871310   -3.139643
     72          1           0       -2.648077   -2.069938   -2.664156
     73          6           0       -1.738094   -2.931268   -4.420957
     74          7           0        0.447545   -2.059730   -1.838685
     75          1           0       -0.328672   -3.840719   -2.553895
     76          6           0       -1.424320   -3.365233   -0.776120
     77          1           0       -0.722518   -3.143495   -4.776143
     78          6           0       -2.458720   -2.085566   -5.471825
     79          6           0       -2.488760   -4.250252   -4.249328
     80          1           0       -2.373209   -3.819138   -1.088226
     81          6           0       -1.727968   -2.188771    0.152221
     82          6           0       -0.611770   -4.429514   -0.042851
     83          1           0       -2.492404   -4.805518   -5.184672
     84          1           0       -3.520922   -4.055147   -3.966334
     85          1           0       -2.033290   -4.876122   -3.486339
     86          1           0       -1.873754   -1.216435   -5.766065
     87          1           0       -3.418376   -1.744692   -5.087702
     88          1           0       -2.636911   -2.678568   -6.366214
     89          1           0        0.374887   -4.041490    0.193772
     90          1           0       -0.493473   -5.318848   -0.658750
     91          1           0       -1.106923   -4.716395    0.882638
     92          1           0       -2.141515   -1.348820   -0.401432
     93          1           0       -0.832129   -1.852227    0.672216
     94          1           0       -2.446981   -2.485628    0.912715
     95          6           0       -6.504821   -2.694875   -0.788778
     96          6           0       -7.452307   -2.053438    0.267543
     97          7           0       -5.250474   -1.980287   -0.598571
     98          1           0       -6.868231   -2.467288   -1.801210
     99          6           0       -6.430118   -4.232776   -0.674753
    100          7           0       -6.704036   -0.952615    0.863531
    101          1           0       -7.623088   -2.784986    1.068356
    102          6           0       -8.824649   -1.643305   -0.281720
    103          1           0       -7.464663   -4.592639   -0.622736
    104          6           0       -5.687467   -4.715276    0.570473
    105          6           0       -5.778742   -4.826094   -1.923504
    106          1           0       -9.216768   -2.512864   -0.822947
    107          6           0       -8.762948   -0.461674   -1.250582
    108          6           0       -9.769558   -1.318461    0.873804
    109          1           0       -6.324897   -4.536607   -2.818763
    110          1           0       -5.764024   -5.912209   -1.866766
    111          1           0       -4.752196   -4.477521   -2.020393
    112          1           0       -6.130420   -4.313353    1.478460
    113          1           0       -4.639154   -4.422429    0.537995
    114          1           0       -5.728371   -5.801089    0.625792
    115          1           0       -9.923559   -2.192451    1.502319
    116          1           0      -10.735509   -0.991839    0.495513
    117          1           0       -9.344828   -0.527213    1.486302
    118          1           0       -8.594763    0.470706   -0.715360
    119          1           0       -9.708231   -0.372746   -1.781281
    120          1           0       -7.971696   -0.590824   -1.985488
    121          6           0        6.322104    2.318500    0.951521
    122          6           0        6.411326    2.372149   -0.602948
    123          7           0        5.520076    1.171678    1.245554
    124          1           0        5.828413    3.246057    1.290529
    125          6           0        7.686223    2.190265    1.653375
    126          7           0        5.060567    2.482975   -1.066718
    127          1           0        6.862297    1.419856   -0.930794
    128          6           0        7.243042    3.542585   -1.152615
    129          1           0        8.295818    3.055905    1.376078
    130          6           0        8.415903    0.909589    1.258845
    131          6           0        7.469781    2.225234    3.166598
    132          1           0        8.266434    3.446340   -0.776305
    133          6           0        6.673781    4.894645   -0.733511
    134          6           0        7.282506    3.440464   -2.677752
    135          1           0        6.874315    1.370050    3.478791
    136          1           0        6.949248    3.134212    3.461735
    137          1           0        8.424673    2.192564    3.686401
    138          1           0        9.304324    0.782776    1.873683
    139          1           0        8.725352    0.937212    0.217459
    140          1           0        7.760194    0.056473    1.407903
    141          1           0        6.276268    3.531150   -3.080349
    142          1           0        7.693620    2.482261   -2.989710
    143          1           0        7.899724    4.232299   -3.096009
    144          1           0        7.186779    5.695900   -1.261025
    145          1           0        6.795603    5.059294    0.333965
    146          1           0        5.616026    4.933081   -0.977202
    147          6           0       -0.624744   -0.034697    5.730112
    148          6           0       -1.557807    1.173703    5.465974
    149          7           0        0.391506    0.007669    4.724131
    150          1           0       -1.236121   -0.951018    5.645563
    151          6           0        0.066598   -0.022148    7.109494
    152          7           0       -2.276522    0.867469    4.267612
    153          1           0       -0.918877    2.065431    5.336016
    154          6           0       -2.581812    1.452108    6.585520
    155          1           0       -0.709564   -0.018386    7.880356
    156          6           0        0.961438    1.201218    7.284578
    157          6           0        0.887939   -1.300963    7.275920
    158          1           0       -2.032438    1.650292    7.510690
    159          6           0       -3.525693    0.272331    6.798289
    160          6           0       -3.382239    2.706863    6.235599
    161          1           0        1.688375   -1.334288    6.540053
    162          1           0        0.261970   -2.181766    7.145315
    163          1           0        1.328923   -1.338084    8.269378
    164          1           0        1.507259    1.132550    8.223254
    165          1           0        0.377139    2.117377    7.295722
    166          1           0        1.673901    1.251527    6.466099
    167          1           0       -3.962105    2.543513    5.329957
    168          1           0       -2.719757    3.554951    6.073283
    169          1           0       -4.065435    2.955121    7.044818
    170          1           0       -4.293269    0.535299    7.523204
    171          1           0       -2.990664   -0.598037    7.168609
    172          1           0       -4.003944    0.014491    5.857715
    173          6           0       -1.590351    5.241305   -2.609030
    174          6           0       -3.064903    4.816847   -2.413787
    175          7           0       -0.839525    4.023389   -2.696415
    176          1           0       -1.278724    5.830972   -1.729900
    177          6           0       -1.345620    6.091999   -3.873721
    178          7           0       -3.090861    3.963645   -1.262400
    179          1           0       -3.376022    4.261252   -3.316061
    180          6           0       -4.040617    5.990935   -2.197891
    181          1           0       -1.990542    6.974503   -3.813505
    182          6           0       -1.661310    5.323965   -5.154376
    183          6           0        0.106122    6.570120   -3.894705
    184          1           0       -3.979804    6.646899   -3.072358
    185          6           0       -3.707941    6.791034   -0.941656
    186          6           0       -5.467989    5.449937   -2.110912
    187          1           0        0.783475    5.722197   -3.971350
    188          1           0        0.344602    7.123507   -2.988343
    189          1           0        0.274181    7.223445   -4.747913
    190          1           0       -1.130611    4.375672   -5.152861
    191          1           0       -1.349113    5.902243   -6.021491
    192          1           0       -2.726635    5.129183   -5.243974
    193          1           0       -6.178081    6.269757   -2.028539
    194          1           0       -5.573810    4.810308   -1.237529
    195          1           0       -5.716087    4.869299   -2.997550
    196          1           0       -4.498392    7.510098   -0.737760
    197          1           0       -2.775915    7.337608   -1.058489
    198          1           0       -3.616661    6.117136   -0.094317
    199          1           0       -1.214888   -0.389976   -4.008254
    200          1           0        0.935034   -1.449846   -3.764507
    201          1           0        0.354463   -1.594975   -0.940858
    202          1           0       -6.862644   -0.104270    0.328452
    203          1           0       -4.436327   -2.571360   -0.698997
    204          1           0       -5.069383   -2.023638    1.540829
    205          1           0        5.105210   -3.203729    1.205719
    206          1           0        2.518612   -2.790558   -1.419574
    207          1           0        2.451224   -4.103206    0.582755
 ---------------------------------------------------------------------
 Rotational constants (GHZ):           0.0223839           0.0149922           0.0143785
 Leave Link  202 at Mon Oct 18 10:57:30 2021, MaxMem=  7864320000 cpu:               0.2 elap:               0.0
 (Enter /apps/gaussian/g16-c01-avx/g16/l301.exe)
 Standard basis: def2TZVP (5D, 7F)
 Ernie: Thresh=  0.10000D-02 Tol=  0.10000D-05 Strict=F.
 There are  3852 symmetry adapted cartesian basis functions of A   symmetry.
 There are  3417 symmetry adapted basis functions of A   symmetry.
  3417 basis functions,  5397 primitive gaussians,  3852 cartesian basis functions
   327 alpha electrons      327 beta electrons
       nuclear repulsion energy     17501.0750835872 Hartrees.
 IExCor= 1009 DFT=T Ex+Corr=PBE1PBE ExCW=0 ScaHFX=  0.250000
 ScaDFX=  0.750000  0.750000  1.000000  1.000000 ScalE2=  1.000000  1.000000
 IRadAn=      7 IRanWt=     -1 IRanGd=            0 ICorTp=0 IEmpDi=131
 NAtoms=  207 NActive=  207 NUniq=  207 SFac= 1.00D+00 NAtFMM=   60 NAOKFM=T Big=T
 Integral buffers will be    131072 words long.
 Raffenetti 2 integral format.
 Two-electron integral symmetry is turned on.
 R6Disp:  Grimme-D3 Dispersion energy=       -0.2018695714 Hartrees.
 Nuclear repulsion after empirical dispersion term =    17500.8732140158 Hartrees.
 Leave Link  301 at Mon Oct 18 10:57:30 2021, MaxMem=  7864320000 cpu:               1.2 elap:               0.0
 (Enter /apps/gaussian/g16-c01-avx/g16/l302.exe)
 NPDir=0 NMtPBC=     1 NCelOv=     1 NCel=       1 NClECP=     1 NCelD=      1
         NCelK=      1 NCelE2=     1 NClLst=     1 CellRange=     0.0.
 One-electron integrals computed using PRISM.
 One-electron integral symmetry used in STVInt
   1 Symmetry operations used in ECPInt.
 ECPInt:  NShTT= 1033203 NPrTT= 3029304 LenC2=  604170 LenP2D= 1107511.
 LDataN:  DoStor=T MaxTD1= 6 Len=  172
 Number of processors reduced to  21 by ecpmxn.
 NBasis=  3417 RedAO= T EigKep=  3.54D-06  NBF=  3417
 NBsUse=  3417 1.00D-06 EigRej= -1.00D+00 NBFU=  3417
 Precomputing XC quadrature grid using
 IXCGrd= 4 IRadAn=           7 IRanWt=          -1 IRanGd=           0 AccXCQ= 0.00D+00.
 Generated NRdTot=       0 NPtTot=           0 NUsed=           0 NTot=          32
 NSgBfM=  3074  2988  3016  3032  3074 MxSgAt=   207 MxSgA2=   207.
 Leave Link  302 at Mon Oct 18 10:58:04 2021, MaxMem=  7864320000 cpu:            1096.1 elap:              34.5
 (Enter /apps/gaussian/g16-c01-avx/g16/l303.exe)
 DipDrv:  MaxL=1.
 Leave Link  303 at Mon Oct 18 10:58:06 2021, MaxMem=  7864320000 cpu:              41.3 elap:               1.6
 (Enter /apps/gaussian/g16-c01-avx/g16/l401.exe)
 ExpMin= 9.52D-02 ExpMax= 1.97D+04 ExpMxC= 6.73D+02 IAcc=3 IRadAn=         7 AccDes= 0.00D+00
 Harris functional with IExCor= 1009 and IRadAn=       7 diagonalized for initial guess.
 HarFok:  IExCor= 1009 AccDes= 0.00D+00 IRadAn=         7 IDoV= 1 UseB2=F ITyADJ=14
 ICtDFT=  3500011 ScaDFX=  1.000000  1.000000  1.000000  1.000000
 FoFCou: FMM=F IPFlag=           0 FMFlag=      100000 FMFlg1=        2001
         NFxFlg=           0 DoJE=T BraDBF=F KetDBF=T FulRan=T
         wScrn=  0.000000 ICntrl=       500 IOpCl=  0 I1Cent=   200000004 NGrid=           0
         NMat0=    1 NMatS0=      1 NMatT0=    0 NMatD0=    1 NMtDS0=    0 NMtDT0=    0
 Petite list used in FoFCou.
 Harris En= -3585.80550095401    
 JPrj=0 DoOrth=F DoCkMO=F.
 Leave Link  401 at Mon Oct 18 10:59:20 2021, MaxMem=  7864320000 cpu:            2343.6 elap:              73.8
 (Enter /apps/gaussian/g16-c01-avx/g16/l508.exe)
 Integral symmetry usage will be decided dynamically.
 Tight linear equation convergence will be used.
 RPBE1PBE wavefunction.
 Linear searches until partial convergence.
 Full line searches.
 Fock matrices will be formed incrementally for  20 cycles.
 FoFJK:  IHMeth= 1 ICntrl=       0 DoSepK=F KAlg= 0 I1Cent=           0 FoldK=F
 IRaf= 520000000 NMat=       1 IRICut=       1 DoRegI=T DoRafI=F ISym2E= 1 IDoP0=0 IntGTp=1.
 FoFCou: FMM=T IPFlag=           0 FMFlag=      100000 FMFlg1=        2001
         NFxFlg=           0 DoJE=F BraDBF=F KetDBF=F FulRan=T
         wScrn=  0.000000 ICntrl=         0 IOpCl=  0 I1Cent=           0 NGrid=           0
         NMat0=    1 NMatS0=      1 NMatT0=    0 NMatD0=    1 NMtDS0=    0 NMtDT0=    0
 Petite list used in FoFCou.
 FMM levels:  10  Number of levels for PrismC:   9
 Iteration   1 EE= -3581.91172370535                                    Grad=2.302D+00 Max rot=    2.2116 deg.
 Gradient too large for Newton-Raphson -- use scaled steepest descent instead.
 Alpha Gap=     0.179 HL deriv= 5.34D-03
     ILin= 1 X=0.000D+00 Y=-3.581911723705D+03 DE= 0.00D+00 F= -1.09D+01
 RMSU=  3.59D-04    CP:  9.90D-01
     ILin= 2 X=3.000D-01 Y=-3.584058915868D+03 DE=-2.15D+00 F= -3.35D+00 OKLS=F
 RMSU=  5.32D-05    CP:  9.85D-01  1.70D+00
     ILin= 3 X=5.000D-01 Y=-3.584218274327D+03 DE=-2.31D+00 F=  1.76D+00
     Accept linear search using points  2 and  3.
     An  expanding polynomial of degree  3 produced  0.3936
 RMSU=  3.93D-08    CP:  9.88D-01  1.32D+00  3.69D-01
 Iteration   2 EE= -3584.26078726307     Delta-E=       -2.349063557718 Grad=6.568D-01 Max rot=    1.4811 deg.
 Gradient too large for Newton-Raphson -- use scaled steepest descent instead.
 Alpha Gap=     0.195 HL deriv= 1.56D-03
     ILin= 1 X=0.000D+00 Y=-3.584260787263D+03 DE= 0.00D+00 F= -3.78D-01
 RMSU=  7.45D-05    CP:  9.85D-01  1.51D+00  7.09D-01 -3.00D+00
     ILin= 2 X=3.000D-01 Y=-3.584348582382D+03 DE=-8.78D-02 F= -2.08D-01 OKLS=F
 RMSU=  9.87D-06    CP:  9.81D-01  1.77D+00  1.38D+00 -3.00D+00  2.33D+00
     ILin= 3 X=7.000D-01 Y=-3.584386204976D+03 DE=-1.25D-01 F=  1.94D-02
     Accept linear search using points  2 and  3.
     An  expanding polynomial of degree  3 produced  0.5249
 RMSU=  2.82D-08    CP:  9.83D-01  1.66D+00  1.06D+00 -3.00D+00  1.75D+00
                    CP:  4.22D-01
 Iteration   3 EE= -3584.38090835603     Delta-E=       -0.120121092954 Grad=2.774D-01 Max rot=    0.6839 deg.
 Gradient too large for Newton-Raphson -- use scaled steepest descent instead.
 Alpha Gap=     0.187 HL deriv= 6.94D-04
     ILin= 1 X=0.000D+00 Y=-3.584380908356D+03 DE= 0.00D+00 F= -5.72D-02
 RMSU=  4.78D-05    CP:  9.81D-01  1.81D+00  1.55D+00 -3.00D+00  2.49D+00
                    CP:  9.23D-01  3.00D+00
     ILin= 2 X=5.000D-01 Y=-3.584397031963D+03 DE=-1.61D-02 F= -7.26D-03 OKLS=F
 RMSU=  6.60D-06    CP:  9.80D-01  1.93D+00  2.03D+00 -3.00D+00  3.00D+00
                    CP:  1.62D+00  3.00D+00  1.80D+00
     ILin= 3 X=9.000D-01 Y=-3.584391937339D+03 DE=-1.10D-02 F=  3.27D-02
     An  expanding polynomial of degree  3 produced  0.5726
 RMSU=  2.46D-07    CP:  9.81D-01  1.83D+00  1.63D+00 -3.00D+00  2.60D+00
                    CP:  1.03D+00  3.00D+00  1.15D+00  1.36D-02
 Iteration   4 EE= -3584.39729574472     Delta-E=       -0.016387388696 Grad=1.275D-01 Max rot=    0.3047 deg.
 Gradient too large for Newton-Raphson -- use scaled steepest descent instead.
 Alpha Gap=     0.188 HL deriv= 2.68D-04
     ILin= 1 X=0.000D+00 Y=-3.584397295745D+03 DE= 0.00D+00 F= -2.07D-02
 RMSU=  2.83D-05    CP:  9.80D-01  1.86D+00  1.76D+00 -3.00D+00  2.94D+00
                    CP:  1.32D+00 -3.00D+00  1.09D+00 -9.93D-02 -3.00D+00
     ILin= 2 X=5.000D-01 Y=-3.584400574189D+03 DE=-3.28D-03 F=  7.55D-03 OKLS=T
     Accept linear search using points  1 and  2.
     An  expanding polynomial of degree  2 produced  0.2816
 RMSU=  4.41D-07    CP:  9.80D-01  1.85D+00  1.70D+00 -3.00D+00  2.79D+00
                    CP:  1.19D+00 -3.00D+00  1.11D+00 -5.05D-02 -3.00D+00
                    CP:  5.62D-01
 Iteration   5 EE= -3584.40087924215     Delta-E=       -0.003583497426 Grad=7.604D-02 Max rot=    0.1959 deg.
 Gradient too large for Newton-Raphson -- use scaled steepest descent instead.
 Alpha Gap=     0.188 HL deriv= 3.16D-04
     ILin= 1 X=0.000D+00 Y=-3.584400879242D+03 DE= 0.00D+00 F= -3.08D-03
 RMSU=  6.82D-06    CP:  9.80D-01  1.90D+00  1.94D+00 -3.00D+00  3.00D+00
                    CP:  1.56D+00 -3.00D+00  1.39D+00  9.15D-01 -3.00D+00
                    CP:  1.03D+00 -2.74D+00
     ILin= 2 X=6.000D-01 Y=-3.584402153209D+03 DE=-1.27D-03 F= -1.17D-03 OKLS=F
 RMSU=  6.53D-06    CP:  9.79D-01  1.95D+00  2.16D+00 -3.00D+00  3.00D+00
                    CP:  1.92D+00 -3.00D+00  1.63D+00  3.00D+00 -3.00D+00
                    CP:  1.42D+00 -3.00D+00  1.85D+00
     ILin= 3 X=1.100D+00 Y=-3.584402339341D+03 DE=-1.46D-03 F=  4.24D-04
     Accept linear search using points  2 and  3.
     An  expanding polynomial of degree  3 produced  0.8820
 RMSU=  1.69D-06    CP:  9.79D-01  1.93D+00  2.06D+00 -3.00D+00  3.00D+00
                    CP:  1.76D+00 -3.00D+00  1.53D+00  2.40D+00 -3.00D+00
                    CP:  1.25D+00 -3.00D+00  1.48D+00  3.85D-01
 Iteration   6 EE= -3584.40235607056     Delta-E=       -0.001476828409 Grad=1.091D-02 Max rot=    0.0179 deg.
 Gradient too large for Newton-Raphson -- use scaled steepest descent instead.
 Alpha Gap=     0.188 HL deriv= 1.15D-05
     ILin= 1 X=0.000D+00 Y=-3.584402356071D+03 DE= 0.00D+00 F= -1.55D-04
 RMSU=  2.32D-06    CP:  9.80D-01  1.94D+00  2.13D+00 -3.00D+00  3.00D+00
                    CP:  1.86D+00 -3.00D+00  1.62D+00  2.90D+00 -3.00D+00
                    CP:  1.36D+00 -3.00D+00  1.98D+00  4.96D-01  1.28D+00
     ILin= 2 X=5.000D-01 Y=-3.584402392883D+03 DE=-3.68D-05 F=  7.88D-06 OKLS=T
     Accept linear search using points  1 and  2.
     An  expanding polynomial of degree  2 produced  0.3483
 RMSU=  3.75D-09    CP:  9.79D-01  1.94D+00  2.11D+00 -3.00D+00  3.00D+00
                    CP:  1.83D+00 -3.00D+00  1.59D+00  2.75D+00 -3.00D+00
                    CP:  1.33D+00 -3.00D+00  1.82D+00  4.63D-01  1.20D+00
                    CP:  6.96D-01
 Iteration   7 EE= -3584.40239032897     Delta-E=       -0.000034258410 Grad=6.219D-03 Max rot=    0.0090 deg.
 SCF Done:  E(RPBE1PBE) =  -3584.40239033     a.u. after    7 cycles
            Convg  =    0.6219D-02                    17 Fock formations.
              S**2 =  0.0000                  -V/T =  2.0049
 Leave Link  508 at Mon Oct 18 13:21:03 2021, MaxMem=  7864320000 cpu:          269468.6 elap:            8503.3
 (Enter /apps/gaussian/g16-c01-avx/g16/l502.exe)
 Integral symmetry usage will be decided dynamically.
 Closed shell SCF:
 Using DIIS extrapolation, IDIIS=  1040.
 NGot=  7864320000 LenX=  7834481618 LenY=  7819639862
 Requested convergence on RMS density matrix=1.00D-08 within 128 cycles.
 Requested convergence on MAX density matrix=1.00D-06.
 Requested convergence on             energy=1.00D-06.
 No special actions if energy rises.
 Fock matrices will be formed incrementally for  20 cycles.

 Cycle   1  Pass 1  IDiag  1:
 FoFJK:  IHMeth= 1 ICntrl=       0 DoSepK=F KAlg= 0 I1Cent=           0 FoldK=F
 IRaf= 520000000 NMat=       1 IRICut=       1 DoRegI=T DoRafI=F ISym2E= 0 IDoP0=0 IntGTp=1.
 FoFCou: FMM=T IPFlag=           0 FMFlag=      100000 FMFlg1=        2001
         NFxFlg=           0 DoJE=F BraDBF=F KetDBF=F FulRan=T
         wScrn=  0.000000 ICntrl=         0 IOpCl=  0 I1Cent=           0 NGrid=           0
         NMat0=    1 NMatS0=      1 NMatT0=    0 NMatD0=    1 NMtDS0=    0 NMtDT0=    0
 Symmetry not used in FoFCou.
 FMM levels:  10  Number of levels for PrismC:   9
 E= -3584.40239032898    
 DIIS: error= 2.13D-05 at cycle   1 NSaved=   1.
 NSaved= 1 IEnMin= 1 EnMin= -3584.40239032898     IErMin= 1 ErrMin= 2.13D-05
 ErrMax= 2.13D-05  0.00D+00 EMaxC= 1.00D-01 BMatC= 1.93D-05 BMatP= 1.93D-05
 IDIUse=1 WtCom= 1.00D+00 WtEn= 0.00D+00
 Coeff-Com:  0.100D+01
 Coeff:      0.100D+01
 Gap=     0.189 Goal=   None    Shift=    0.000
 RMSDP=1.41D-05 MaxDP=5.01D-03              OVMax= 5.21D-04

 Cycle   2  Pass 1  IDiag  1:
 RMSU=  1.39D-05    CP:  1.00D+00
 E= -3584.40240812638     Delta-E=       -0.000017797400 Rises=F Damp=F
 DIIS: error= 1.37D-05 at cycle   2 NSaved=   2.
 NSaved= 2 IEnMin= 2 EnMin= -3584.40240812638     IErMin= 2 ErrMin= 1.37D-05
 ErrMax= 1.37D-05  0.00D+00 EMaxC= 1.00D-01 BMatC= 1.94D-06 BMatP= 1.93D-05
 IDIUse=1 WtCom= 1.00D+00 WtEn= 0.00D+00
 Coeff-Com:  0.103D+00 0.897D+00
 Coeff:      0.103D+00 0.897D+00
 Gap=     0.175 Goal=   None    Shift=    0.000
 RMSDP=2.28D-06 MaxDP=8.69D-04 DE=-1.78D-05 OVMax= 5.25D-04

 Cycle   3  Pass 1  IDiag  1:
 RMSU=  1.82D-06    CP:  1.00D+00  1.09D+00
 E= -3584.40240426442     Delta-E=        0.000003861966 Rises=F Damp=F
 DIIS: error= 2.44D-05 at cycle   3 NSaved=   3.
 NSaved= 3 IEnMin= 2 EnMin= -3584.40240812638     IErMin= 2 ErrMin= 1.37D-05
 ErrMax= 2.44D-05  0.00D+00 EMaxC= 1.00D-01 BMatC= 6.14D-06 BMatP= 1.94D-06
 IDIUse=1 WtCom= 1.00D+00 WtEn= 0.00D+00
 Coeff-Com: -0.160D-01 0.652D+00 0.364D+00
 Coeff:     -0.160D-01 0.652D+00 0.364D+00
 Gap=     0.175 Goal=   None    Shift=    0.000
 RMSDP=1.27D-06 MaxDP=5.60D-04 DE= 3.86D-06 OVMax= 3.54D-04

 Cycle   4  Pass 1  IDiag  1:
 RMSU=  3.96D-07    CP:  1.00D+00  1.08D+00  3.54D-01
 E= -3584.40240991212     Delta-E=       -0.000005647700 Rises=F Damp=F
 DIIS: error= 1.48D-06 at cycle   4 NSaved=   4.
 NSaved= 4 IEnMin= 4 EnMin= -3584.40240991212     IErMin= 4 ErrMin= 1.48D-06
 ErrMax= 1.48D-06  0.00D+00 EMaxC= 1.00D-01 BMatC= 3.56D-08 BMatP= 1.94D-06
 IDIUse=1 WtCom= 1.00D+00 WtEn= 0.00D+00
 Coeff-Com: -0.967D-02 0.207D+00 0.141D+00 0.661D+00
 Coeff:     -0.967D-02 0.207D+00 0.141D+00 0.661D+00
 Gap=     0.175 Goal=   None    Shift=    0.000
 RMSDP=1.36D-07 MaxDP=2.79D-05 DE=-5.65D-06 OVMax= 3.00D-05

 Cycle   5  Pass 1  IDiag  1:
 RMSU=  1.27D-07    CP:  1.00D+00  1.08D+00  3.68D-01  1.01D+00
 E= -3584.40240993931     Delta-E=       -0.000000027198 Rises=F Damp=F
 DIIS: error= 6.94D-07 at cycle   5 NSaved=   5.
 NSaved= 5 IEnMin= 5 EnMin= -3584.40240993931     IErMin= 5 ErrMin= 6.94D-07
 ErrMax= 6.94D-07  0.00D+00 EMaxC= 1.00D-01 BMatC= 8.86D-09 BMatP= 3.56D-08
 IDIUse=1 WtCom= 1.00D+00 WtEn= 0.00D+00
 Coeff-Com: -0.316D-02 0.256D-01 0.296D-01 0.369D+00 0.580D+00
 Coeff:     -0.316D-02 0.256D-01 0.296D-01 0.369D+00 0.580D+00
 Gap=     0.175 Goal=   None    Shift=    0.000
 RMSDP=5.58D-08 MaxDP=1.34D-05 DE=-2.72D-08 OVMax= 1.23D-05

 Cycle   6  Pass 1  IDiag  1:
 RMSU=  3.37D-08    CP:  1.00D+00  1.08D+00  3.66D-01  1.03D+00  6.87D-01
 E= -3584.40240994754     Delta-E=       -0.000000008222 Rises=F Damp=F
 DIIS: error= 2.57D-07 at cycle   6 NSaved=   6.
 NSaved= 6 IEnMin= 6 EnMin= -3584.40240994754     IErMin= 6 ErrMin= 2.57D-07
 ErrMax= 2.57D-07  0.00D+00 EMaxC= 1.00D-01 BMatC= 5.28D-10 BMatP= 8.86D-09
 IDIUse=1 WtCom= 1.00D+00 WtEn= 0.00D+00
 Coeff-Com: -0.117D-02 0.362D-02 0.905D-02 0.165D+00 0.305D+00 0.518D+00
 Coeff:     -0.117D-02 0.362D-02 0.905D-02 0.165D+00 0.305D+00 0.518D+00
 Gap=     0.175 Goal=   None    Shift=    0.000
 RMSDP=1.75D-08 MaxDP=6.66D-06 DE=-8.22D-09 OVMax= 6.24D-06

 Cycle   7  Pass 1  IDiag  1:
 RMSU=  1.36D-08    CP:  1.00D+00  1.08D+00  3.67D-01  1.04D+00  7.18D-01
                    CP:  7.21D-01
 E= -3584.40240994764     Delta-E=       -0.000000000102 Rises=F Damp=F
 DIIS: error= 1.48D-07 at cycle   7 NSaved=   7.
 NSaved= 7 IEnMin= 7 EnMin= -3584.40240994764     IErMin= 7 ErrMin= 1.48D-07
 ErrMax= 1.48D-07  0.00D+00 EMaxC= 1.00D-01 BMatC= 1.41D-10 BMatP= 5.28D-10
 IDIUse=1 WtCom= 1.00D+00 WtEn= 0.00D+00
 Coeff-Com: -0.400D-04-0.361D-02-0.807D-03 0.248D-01 0.676D-01 0.349D+00
 Coeff-Com:  0.563D+00
 Coeff:     -0.400D-04-0.361D-02-0.807D-03 0.248D-01 0.676D-01 0.349D+00
 Coeff:      0.563D+00
 Gap=     0.175 Goal=   None    Shift=    0.000
 RMSDP=6.94D-09 MaxDP=3.05D-06 DE=-1.02D-10 OVMax= 2.50D-06

 Cycle   8  Pass 1  IDiag  1:
 RMSU=  3.73D-09    CP:  1.00D+00  1.08D+00  3.67D-01  1.05D+00  7.17D-01
                    CP:  8.16D-01  6.89D-01
 E= -3584.40240994715     Delta-E=        0.000000000491 Rises=F Damp=F
 DIIS: error= 2.57D-08 at cycle   8 NSaved=   8.
 NSaved= 8 IEnMin= 7 EnMin= -3584.40240994764     IErMin= 8 ErrMin= 2.57D-08
 ErrMax= 2.57D-08  0.00D+00 EMaxC= 1.00D-01 BMatC= 8.40D-12 BMatP= 1.41D-10
 IDIUse=1 WtCom= 1.00D+00 WtEn= 0.00D+00
 Coeff-Com:  0.783D-04-0.215D-02-0.124D-02-0.381D-02 0.331D-02 0.127D+00
 Coeff-Com:  0.285D+00 0.592D+00
 Coeff:      0.783D-04-0.215D-02-0.124D-02-0.381D-02 0.331D-02 0.127D+00
 Coeff:      0.285D+00 0.592D+00
 Gap=     0.175 Goal=   None    Shift=    0.000
 RMSDP=1.81D-09 MaxDP=5.05D-07 DE= 4.91D-10 OVMax= 7.81D-07

 SCF Done:  E(RPBE1PBE) =  -3584.40240995     A.U. after    8 cycles
            NFock=  8  Conv=0.18D-08     -V/T= 2.0049
 KE= 3.567043213387D+03 PE=-4.332492815275D+04 EE= 1.867260931540D+04
 Leave Link  502 at Mon Oct 18 14:24:58 2021, MaxMem=  7864320000 cpu:          121435.4 elap:            3834.3
 (Enter /apps/gaussian/g16-c01-avx/g16/l508.exe)
 QCSCF skips out because SCF is already converged.
 Leave Link  508 at Mon Oct 18 14:24:58 2021, MaxMem=  7864320000 cpu:               0.1 elap:               0.0
 (Enter /apps/gaussian/g16-c01-avx/g16/l601.exe)
 Copying SCF densities to generalized density rwf, IOpCl= 0 IROHF=0.
 Hyperfine terms turned off by default for NAtoms > 100.

 **********************************************************************

            Population analysis using the SCF Density.

 **********************************************************************

 Orbital symmetries:
       Occupied  (A) (A) (A) (A) (A) (A) (A) (A) (A) (A) (A) (A)
                 (A) (A) (A) (A) (A) (A) (A) (A) (A) (A) (A) (A)
                 (A) (A) (A) (A) (A) (A) (A) (A) (A) (A) (A) (A)
                 (A) (A) (A) (A) (A) (A) (A) (A) (A) (A) (A) (A)
                 (A) (A) (A) (A) (A) (A) (A) (A) (A) (A) (A) (A)
                 (A) (A) (A) (A) (A) (A) (A) (A) (A) (A) (A) (A)
                 (A) (A) (A) (A) (A) (A) (A) (A) (A) (A) (A) (A)
                 (A) (A) (A) (A) (A) (A) (A) (A) (A) (A) (A) (A)
                 (A) (A) (A) (A) (A) (A) (A) (A) (A) (A) (A) (A)
                 (A) (A) (A) (A) (A) (A) (A) (A) (A) (A) (A) (A)
                 (A) (A) (A) (A) (A) (A) (A) (A) (A) (A) (A) (A)
                 (A) (A) (A) (A) (A) (A) (A) (A) (A) (A) (A) (A)
                 (A) (A) (A) (A) (A) (A) (A) (A) (A) (A) (A) (A)
                 (A) (A) (A) (A) (A) (A) (A) (A) (A) (A) (A) (A)
                 (A) (A) (A) (A) (A) (A) (A) (A) (A) (A) (A) (A)
                 (A) (A) (A) (A) (A) (A) (A) (A) (A) (A) (A) (A)
                 (A) (A) (A) (A) (A) (A) (A) (A) (A) (A) (A) (A)
                 (A) (A) (A) (A) (A) (A) (A) (A) (A) (A) (A) (A)
                 (A) (A) (A) (A) (A) (A) (A) (A) (A) (A) (A) (A)
                 (A) (A) (A) (A) (A) (A) (A) (A) (A) (A) (A) (A)
                 (A) (A) (A) (A) (A) (A) (A) (A) (A) (A) (A) (A)
                 (A) (A) (A) (A) (A) (A) (A) (A) (A) (A) (A) (A)
                 (A) (A) (A) (A) (A) (A) (A) (A) (A) (A) (A) (A)
                 (A) (A) (A) (A) (A) (A) (A) (A) (A) (A) (A) (A)
                 (A) (A) (A) (A) (A) (A) (A) (A) (A) (A) (A) (A)
                 (A) (A) (A) (A) (A) (A) (A) (A) (A) (A) (A) (A)
                 (A) (A) (A) (A) (A) (A) (A) (A) (A) (A) (A) (A)
                 (A) (A) (A)
       Virtual   (A) (A) (A) (A) (A) (A) (A) (A) (A) (A) (A) (A)
                 (A) (A) (A) (A) (A) (A) (A) (A) (A) (A) (A) (A)
                 (A) (A) (A) (A) (A) (A) (A) (A) (A) (A) (A) (A)
                 (A) (A) (A) (A) (A) (A) (A) (A) (A) (A) (A) (A)
                 (A) (A) (A) (A) (A) (A) (A) (A) (A) (A) (A) (A)
                 (A) (A) (A) (A) (A) (A) (A) (A) (A) (A) (A) (A)
                 (A) (A) (A) (A) (A) (A) (A) (A) (A) (A) (A) (A)
                 (A) (A) (A) (A) (A) (A) (A) (A) (A) (A) (A) (A)
                 (A) (A) (A) (A) (A) (A) (A) (A) (A) (A) (A) (A)
                 (A) (A) (A) (A) (A) (A) (A) (A) (A) (A) (A) (A)
                 (A) (A) (A) (A) (A) (A) (A) (A) (A) (A) (A) (A)
                 (A) (A) (A) (A) (A) (A) (A) (A) (A) (A) (A) (A)
                 (A) (A) (A) (A) (A) (A) (A) (A) (A) (A) (A) (A)
                 (A) (A) (A) (A) (A) (A) (A) (A) (A) (A) (A) (A)
                 (A) (A) (A) (A) (A) (A) (A) (A) (A) (A) (A) (A)
                 (A) (A) (A) (A) (A) (A) (A) (A) (A) (A) (A) (A)
                 (A) (A) (A) (A) (A) (A) (A) (A) (A) (A) (A) (A)
                 (A) (A) (A) (A) (A) (A) (A) (A) (A) (A) (A) (A)
                 (A) (A) (A) (A) (A) (A) (A) (A) (A) (A) (A) (A)
                 (A) (A) (A) (A) (A) (A) (A) (A) (A) (A) (A) (A)
                 (A) (A) (A) (A) (A) (A) (A) (A) (A) (A) (A) (A)
                 (A) (A) (A) (A) (A) (A) (A) (A) (A) (A) (A) (A)
                 (A) (A) (A) (A) (A) (A) (A) (A) (A) (A) (A) (A)
                 (A) (A) (A) (A) (A) (A) (A) (A) (A) (A) (A) (A)
                 (A) (A) (A) (A) (A) (A) (A) (A) (A) (A) (A) (A)
                 (A) (A) (A) (A) (A) (A) (A) (A) (A) (A) (A) (A)
                 (A) (A) (A) (A) (A) (A) (A) (A) (A) (A) (A) (A)
                 (A) (A) (A) (A) (A) (A) (A) (A) (A) (A) (A) (A)
                 (A) (A) (A) (A) (A) (A) (A) (A) (A) (A) (A) (A)
                 (A) (A) (A) (A) (A) (A) (A) (A) (A) (A) (A) (A)
                 (A) (A) (A) (A) (A) (A) (A) (A) (A) (A) (A) (A)
                 (A) (A) (A) (A) (A) (A) (A) (A) (A) (A) (A) (A)
                 (A) (A) (A) (A) (A) (A) (A) (A) (A) (A) (A) (A)
                 (A) (A) (A) (A) (A) (A) (A) (A) (A) (A) (A) (A)
                 (A) (A) (A) (A) (A) (A) (A) (A) (A) (A) (A) (A)
                 (A) (A) (A) (A) (A) (A) (A) (A) (A) (A) (A) (A)
                 (A) (A) (A) (A) (A) (A) (A) (A) (A) (A) (A) (A)
                 (A) (A) (A) (A) (A) (A) (A) (A) (A) (A) (A) (A)
                 (A) (A) (A) (A) (A) (A) (A) (A) (A) (A) (A) (A)
                 (A) (A) (A) (A) (A) (A) (A) (A) (A) (A) (A) (A)
                 (A) (A) (A) (A) (A) (A) (A) (A) (A) (A) (A) (A)
                 (A) (A) (A) (A) (A) (A) (A) (A) (A) (A) (A) (A)
                 (A) (A) (A) (A) (A) (A) (A) (A) (A) (A) (A) (A)
                 (A) (A) (A) (A) (A) (A) (A) (A) (A) (A) (A) (A)
                 (A) (A) (A) (A) (A) (A) (A) (A) (A) (A) (A) (A)
                 (A) (A) (A) (A) (A) (A) (A) (A) (A) (A) (A) (A)
                 (A) (A) (A) (A) (A) (A) (A) (A) (A) (A) (A) (A)
                 (A) (A) (A) (A) (A) (A) (A) (A) (A) (A) (A) (A)
                 (A) (A) (A) (A) (A) (A) (A) (A) (A) (A) (A) (A)
                 (A) (A) (A) (A) (A) (A) (A) (A) (A) (A) (A) (A)
                 (A) (A) (A) (A) (A) (A) (A) (A) (A) (A) (A) (A)
                 (A) (A) (A) (A) (A) (A) (A) (A) (A) (A) (A) (A)
                 (A) (A) (A) (A) (A) (A) (A) (A) (A) (A) (A) (A)
                 (A) (A) (A) (A) (A) (A) (A) (A) (A) (A) (A) (A)
                 (A) (A) (A) (A) (A) (A) (A) (A) (A) (A) (A) (A)
                 (A) (A) (A) (A) (A) (A) (A) (A) (A) (A) (A) (A)
                 (A) (A) (A) (A) (A) (A) (A) (A) (A) (A) (A) (A)
                 (A) (A) (A) (A) (A) (A) (A) (A) (A) (A) (A) (A)
                 (A) (A) (A) (A) (A) (A) (A) (A) (A) (A) (A) (A)
                 (A) (A) (A) (A) (A) (A) (A) (A) (A) (A) (A) (A)
                 (A) (A) (A) (A) (A) (A) (A) (A) (A) (A) (A) (A)
                 (A) (A) (A) (A) (A) (A) (A) (A) (A) (A) (A) (A)
                 (A) (A) (A) (A) (A) (A) (A) (A) (A) (A) (A) (A)
                 (A) (A) (A) (A) (A) (A) (A) (A) (A) (A) (A) (A)
                 (A) (A) (A) (A) (A) (A) (A) (A) (A) (A) (A) (A)
                 (A) (A) (A) (A) (A) (A) (A) (A) (A) (A) (A) (A)
                 (A) (A) (A) (A) (A) (A) (A) (A) (A) (A) (A) (A)
                 (A) (A) (A) (A) (A) (A) (A) (A) (A) (A) (A) (A)
                 (A) (A) (A) (A) (A) (A) (A) (A) (A) (A) (A) (A)
                 (A) (A) (A) (A) (A) (A) (A) (A) (A) (A) (A) (A)
                 (A) (A) (A) (A) (A) (A) (A) (A) (A) (A) (A) (A)
                 (A) (A) (A) (A) (A) (A) (A) (A) (A) (A) (A) (A)
                 (A) (A) (A) (A) (A) (A) (A) (A) (A) (A) (A) (A)
                 (A) (A) (A) (A) (A) (A) (A) (A) (A) (A) (A) (A)
                 (A) (A) (A) (A) (A) (A) (A) (A) (A) (A) (A) (A)
                 (A) (A) (A) (A) (A) (A) (A) (A) (A) (A) (A) (A)
                 (A) (A) (A) (A) (A) (A) (A) (A) (A) (A) (A) (A)
                 (A) (A) (A) (A) (A) (A) (A) (A) (A) (A) (A) (A)
                 (A) (A) (A) (A) (A) (A) (A) (A) (A) (A) (A) (A)
                 (A) (A) (A) (A) (A) (A) (A) (A) (A) (A) (A) (A)
                 (A) (A) (A) (A) (A) (A) (A) (A) (A) (A) (A) (A)
                 (A) (A) (A) (A) (A) (A) (A) (A) (A) (A) (A) (A)
                 (A) (A) (A) (A) (A) (A) (A) (A) (A) (A) (A) (A)
                 (A) (A) (A) (A) (A) (A) (A) (A) (A) (A) (A) (A)
                 (A) (A) (A) (A) (A) (A) (A) (A) (A) (A) (A) (A)
                 (A) (A) (A) (A) (A) (A) (A) (A) (A) (A) (A) (A)
                 (A) (A) (A) (A) (A) (A) (A) (A) (A) (A) (A) (A)
                 (A) (A) (A) (A) (A) (A) (A) (A) (A) (A) (A) (A)
                 (A) (A) (A) (A) (A) (A) (A) (A) (A) (A) (A) (A)
                 (A) (A) (A) (A) (A) (A) (A) (A) (A) (A) (A) (A)
                 (A) (A) (A) (A) (A) (A) (A) (A) (A) (A) (A) (A)
                 (A) (A) (A) (A) (A) (A) (A) (A) (A) (A) (A) (A)
                 (A) (A) (A) (A) (A) (A) (A) (A) (A) (A) (A) (A)
                 (A) (A) (A) (A) (A) (A) (A) (A) (A) (A) (A) (A)
                 (A) (A) (A) (A) (A) (A) (A) (A) (A) (A) (A) (A)
                 (A) (A) (A) (A) (A) (A) (A) (A) (A) (A) (A) (A)
                 (A) (A) (A) (A) (A) (A) (A) (A) (A) (A) (A) (A)
                 (A) (A) (A) (A) (A) (A) (A) (A) (A) (A) (A) (A)
                 (A) (A) (A) (A) (A) (A) (A) (A) (A) (A) (A) (A)
                 (A) (A) (A) (A) (A) (A) (A) (A) (A) (A) (A) (A)
                 (A) (A) (A) (A) (A) (A) (A) (A) (A) (A) (A) (A)
                 (A) (A) (A) (A) (A) (A) (A) (A) (A) (A) (A) (A)
                 (A) (A) (A) (A) (A) (A) (A) (A) (A) (A) (A) (A)
                 (A) (A) (A) (A) (A) (A) (A) (A) (A) (A) (A) (A)
                 (A) (A) (A) (A) (A) (A) (A) (A) (A) (A) (A) (A)
                 (A) (A) (A) (A) (A) (A) (A) (A) (A) (A) (A) (A)
                 (A) (A) (A) (A) (A) (A) (A) (A) (A) (A) (A) (A)
                 (A) (A) (A) (A) (A) (A) (A) (A) (A) (A) (A) (A)
                 (A) (A) (A) (A) (A) (A) (A) (A) (A) (A) (A) (A)
                 (A) (A) (A) (A) (A) (A) (A) (A) (A) (A) (A) (A)
                 (A) (A) (A) (A) (A) (A) (A) (A) (A) (A) (A) (A)
                 (A) (A) (A) (A) (A) (A) (A) (A) (A) (A) (A) (A)
                 (A) (A) (A) (A) (A) (A) (A) (A) (A) (A) (A) (A)
[...]
 Alpha virt. eigenvalues --    4.78113   4.78671   4.79314   4.79521   4.79804
 Alpha virt. eigenvalues --    4.80077   4.80352   4.80931   4.81587   4.81792
 Alpha virt. eigenvalues --    4.81882   4.82956   4.83472   4.83807   4.84349
 Alpha virt. eigenvalues --    4.84574   4.84976   4.85988   4.86672   4.86820
 Alpha virt. eigenvalues --    4.87228   4.87688   4.87738   4.87980   4.88554
 Alpha virt. eigenvalues --    4.89182   4.89948   4.90084   4.90488   4.90669
 Alpha virt. eigenvalues --    4.91159   4.91377   4.91607   4.91697   4.92135
 Alpha virt. eigenvalues --    4.92382   4.92547   4.92610   4.93257   4.93514
 Alpha virt. eigenvalues --    4.93875   4.94496   4.94613   4.95020   4.95259
 Alpha virt. eigenvalues --    4.95410   4.95727   4.95841   4.96234   4.96554
 Alpha virt. eigenvalues --    4.96761   4.96829   4.97090   4.97514   4.97900
 Alpha virt. eigenvalues --    4.98236   4.98361   4.98774   4.99107   4.99271
 Alpha virt. eigenvalues --    4.99394   5.00126   5.00190   5.00989   5.01519
 Alpha virt. eigenvalues --    5.01769   5.02803   5.03089   5.03709   5.03871
 Alpha virt. eigenvalues --    5.04083   5.04544   5.04968   5.05272   5.05328
 Alpha virt. eigenvalues --    5.05520   5.06183   5.06624   5.06790   5.07198
 Alpha virt. eigenvalues --    5.07828   5.08718   5.09207   5.09458   5.10569
 Alpha virt. eigenvalues --    5.11433   5.12779   5.13163   5.13786   5.14077
 Alpha virt. eigenvalues --    5.14783   5.15136   5.15467   5.16245   5.16619
 Alpha virt. eigenvalues --    5.17036   5.17310   5.17577   5.17687   5.18195
 Alpha virt. eigenvalues --    5.19043   5.19247   5.19836   5.20216   5.20569
 Alpha virt. eigenvalues --    5.20878   5.22324   5.22827   5.23302   5.23513
 Alpha virt. eigenvalues --    5.24660   5.26168   5.26416   5.26609   5.27548
 Alpha virt. eigenvalues --    5.27572   5.28150   5.28318   5.28892   5.29087
 Alpha virt. eigenvalues --    5.29647   5.30155   5.30343   5.31396   5.31701
 Alpha virt. eigenvalues --    5.32050   5.32871   5.33407   5.34179   5.34614
 Alpha virt. eigenvalues --    5.34854   5.35158   5.35721   5.36824   5.37388
 Alpha virt. eigenvalues --    5.38585   5.38956   5.39778   5.39952   5.40130
 Alpha virt. eigenvalues --    5.40298   5.40974   5.41233   5.41824   5.41997
 Alpha virt. eigenvalues --    5.42490   5.42776   5.43331   5.43812   5.44547
 Alpha virt. eigenvalues --    5.44966   5.45345   5.45938   5.46416   5.47108
 Alpha virt. eigenvalues --    5.47790   5.48476   5.49167   5.49917   5.50839
 Alpha virt. eigenvalues --    5.51154   5.51715   5.52135   5.52347   5.52792
 Alpha virt. eigenvalues --    5.52895   5.54452   5.55003   5.56017   5.56595
 Alpha virt. eigenvalues --    5.56810   5.57722   5.58763   5.59136   5.60250
 Alpha virt. eigenvalues --    5.61923   5.63076   5.63436   5.65458   5.66040
 Alpha virt. eigenvalues --    5.67085   5.67252   5.69155   5.69555   5.70734
 Alpha virt. eigenvalues --    5.70871   5.72582   5.73157   5.74066   5.74155
 Alpha virt. eigenvalues --    5.75261   5.75526   5.76408   5.77770   5.79562
 Alpha virt. eigenvalues --    5.80348   5.81278   5.82066   5.82602   5.82657
 Alpha virt. eigenvalues --    5.83158   5.85639   5.85873   5.86128   5.86578
 Alpha virt. eigenvalues --    5.87542   5.88311   5.88675   5.90383   5.92881
 Alpha virt. eigenvalues --    5.97783   5.98429   5.98714   6.00478   6.01435
 Alpha virt. eigenvalues --    6.03401   6.07112   6.07762   6.08562   6.09568
 Alpha virt. eigenvalues --    6.09826   6.10101   6.10661   6.11469   6.15157
 Alpha virt. eigenvalues --    6.17244   6.18317   6.20065  22.46264  22.47392
 Alpha virt. eigenvalues --   22.48024  22.49687  22.49997  22.50229  22.50638
 Alpha virt. eigenvalues --   22.50803  22.51428  22.51705  22.51941  22.52053
 Alpha virt. eigenvalues --   22.52129  22.52579  22.52691  22.52753  22.52891
 Alpha virt. eigenvalues --   22.53107  22.53241  22.53367  22.54587  22.54913
 Alpha virt. eigenvalues --   22.56550  22.57609  22.60132  22.61759  22.67926
 Alpha virt. eigenvalues --   22.72503  22.73189  22.73333  22.73660  22.73796
 Alpha virt. eigenvalues --   22.75790  22.76029  22.77055  22.77213  22.78992
 Alpha virt. eigenvalues --   22.80967  22.81383  22.81560  22.82214  22.82664
 Alpha virt. eigenvalues --   22.83724  22.85185  22.88827  22.90943  22.91727
 Alpha virt. eigenvalues --   22.92317  22.93547  22.93786  22.93891  22.95511
 Alpha virt. eigenvalues --   22.96374  22.97545  22.97945  22.99139  23.00725
 Alpha virt. eigenvalues --   23.06038  23.06276  23.10399  23.12401  23.15548
 Alpha virt. eigenvalues --   23.16324  23.18038  23.18628  23.18684  23.19988
 Alpha virt. eigenvalues --   23.20319  23.21328  23.21481  23.23013  23.27593
 Alpha virt. eigenvalues --   23.52986  23.54093  23.55469  32.66213  32.73116
 Alpha virt. eigenvalues --   32.77212  32.78364  32.82146  32.83569  32.83997
 Alpha virt. eigenvalues --   32.88293  32.90704  32.93122  32.95573  32.96878
          Condensed to atoms (all electrons):
 Mulliken charges:
               1
     1  C    0.367358
     2  C   -0.102830
     3  C   -0.334968
     4  C    0.316870
     5  H    0.205043
     6  C   -0.350415
     7  C    0.404912
     8  H    0.123443
     9  C   -0.455697
    10  C   -0.204806
    11  H    0.130238
    12  C   -0.201227
    13  H    0.065582
    14  H    0.074671
    15  C    0.233652
    16  C    0.007917
    17  C   -0.300660
    18  C    0.394591
    19  H    0.148528
    20  C   -0.381899
    21  C    0.312425
    22  H    0.133523
    23  C   -0.312269
    24  C   -0.189314
    25  H    0.132929
    26  C   -0.206320
    27  H    0.101288
    28  H    0.076264
    29  C    0.303900
    30  C   -0.149389
    31  C   -0.338941
    32  C    0.413766
    33  H    0.122711
    34  C   -0.353579
    35  C    0.359665
    36  H    0.117092
    37  C   -0.311217
    38  C   -0.187633
    39  H    0.124540
    40  C   -0.217827
    41  H    0.065392
    42  H    0.070261
    43  C    0.023660
    44  C    0.081162
    45  N   -0.277354
    46  H    0.066143
    47  C   -0.077987
    48  N   -0.238125
    49  H    0.064221
    50  C   -0.103182
    51  H    0.074571
    52  C   -0.346462
    53  C   -0.371487
    54  H    0.089329
    55  C   -0.390143
    56  C   -0.354132
    57  H    0.113135
    58  H    0.103066
    59  H    0.113596
    60  H    0.107605
    61  H    0.123398
    62  H    0.117379
    63  H    0.119016
    64  H    0.125638
    65  H    0.107781
    66  H    0.109628
    67  H    0.129284
    68  H    0.117795
    69  C    0.046589
    70  C    0.065411
    71  N   -0.298954
    72  H    0.090484
    73  C   -0.081942
    74  N   -0.391135
    75  H    0.083376
    76  C   -0.022599
    77  H    0.092171
    78  C   -0.391648
    79  C   -0.392403
    80  H    0.082048
    81  C   -0.566909
    82  C   -0.317188
    83  H    0.129556
    84  H    0.122764
    85  H    0.122728
    86  H    0.114392
    87  H    0.128094
    88  H    0.126839
    89  H    0.064791
    90  H    0.121711
    91  H    0.120831
    92  H    0.192734
    93  H    0.156156
    94  H    0.124104
    95  C    0.139711
    96  C   -0.030415
    97  N   -0.269935
    98  H    0.046809
    99  C   -0.104528
   100  N   -0.237402
   101  H    0.051869
   102  C   -0.035468
   103  H    0.073445
   104  C   -0.382321
   105  C   -0.344045
   106  H    0.074251
   107  C   -0.433417
   108  C   -0.363690
   109  H    0.121549
   110  H    0.124585
   111  H    0.091535
   112  H    0.130613
   113  H    0.107427
   114  H    0.130326
   115  H    0.115918
   116  H    0.120587
   117  H    0.134117
   118  H    0.127924
   119  H    0.128571
   120  H    0.134820
   121  C    0.106180
   122  C    0.086011
   123  N   -0.260798
   124  H    0.080790
   125  C   -0.017682
   126  N   -0.262697
   127  H    0.086108
   128  C   -0.002690
   129  H    0.082730
   130  C   -0.411284
   131  C   -0.382855
   132  H    0.080790
   133  C   -0.410032
   134  C   -0.388092
   135  H    0.130331
   136  H    0.112014
   137  H    0.120630
   138  H    0.117500
   139  H    0.119254
   140  H    0.139511
   141  H    0.132692
   142  H    0.110770
   143  H    0.119765
   144  H    0.116203
   145  H    0.118838
   146  H    0.138069
   147  C    0.097147
   148  C    0.087312
   149  N   -0.232165
   150  H    0.076339
   151  C   -0.023189
   152  N   -0.231360
   153  H    0.079033
   154  C   -0.025303
   155  H    0.084236
   156  C   -0.403480
   157  C   -0.381942
   158  H    0.083841
   159  C   -0.403418
   160  C   -0.381585
   161  H    0.133935
   162  H    0.110466
   163  H    0.122000
   164  H    0.117091
   165  H    0.118984
   166  H    0.138917
   167  H    0.134384
   168  H    0.111493
   169  H    0.121301
   170  H    0.116795
   171  H    0.117894
   172  H    0.140758
   173  C    0.095165
   174  C    0.131075
   175  N   -0.252001
   176  H    0.077658
   177  C   -0.013907
   178  N   -0.247781
   179  H    0.067484
   180  C   -0.009261
   181  H    0.079283
   182  C   -0.408415
   183  C   -0.388281
   184  H    0.078028
   185  C   -0.409828
   186  C   -0.385699
   187  H    0.131367
   188  H    0.112780
   189  H    0.123365
   190  H    0.137880
   191  H    0.116629
   192  H    0.117387
   193  H    0.122414
   194  H    0.131132
   195  H    0.109353
   196  H    0.116185
   197  H    0.117654
   198  H    0.141302
   199  H    0.192885
   200  H    0.081430
   201  H    0.212333
   202  H    0.184945
   203  H    0.150745
   204  H    0.079278
   205  H    0.187651
   206  H    0.172621
   207  H    0.065666
 Sum of Mulliken charges =   0.00000
 Mulliken charges with hydrogens summed into heavy atoms:
               1
     1  C    0.367358
     2  C   -0.037164
     3  C   -0.129925
     4  C    0.316870
     6  C   -0.226973
     7  C    0.404912
     9  C   -0.325459
    10  C   -0.139224
    12  C   -0.126556
    15  C    0.233652
    16  C    0.089347
    17  C   -0.152132
    18  C    0.394591
    20  C   -0.248376
    21  C    0.312425
    23  C   -0.179340
    24  C   -0.088025
    26  C   -0.130056
    29  C    0.303900
    30  C   -0.070112
    31  C   -0.216230
    32  C    0.413766
    34  C   -0.236488
    35  C    0.359665
    37  C   -0.186677
    38  C   -0.122241
    40  C   -0.147566
    43  C    0.089803
    44  C    0.145383
    45  N   -0.104733
    47  C   -0.003416
    48  N   -0.050474
    50  C   -0.013853
    52  C    0.001920
    53  C   -0.041689
    55  C   -0.033436
    56  C   -0.001697
    69  C    0.137073
    70  C    0.148787
    71  N   -0.106069
    73  C    0.010229
    74  N   -0.178802
    76  C    0.059449
    78  C   -0.022322
    79  C   -0.017355
    81  C   -0.093915
    82  C   -0.009855
    95  C    0.186520
    96  C    0.021454
    97  N   -0.119191
    99  C   -0.031084
   100  N   -0.052457
   102  C    0.038783
   104  C   -0.013955
   105  C   -0.006376
   107  C   -0.042102
   108  C    0.006932
   121  C    0.186970
   122  C    0.172119
   123  N   -0.260798
   125  C    0.065048
   126  N   -0.262697
   128  C    0.078101
   130  C   -0.035019
   131  C   -0.019881
   133  C   -0.036922
   134  C   -0.024866
   147  C    0.173486
   148  C    0.166346
   149  N   -0.232165
   151  C    0.061047
   152  N   -0.231360
   154  C    0.058538
   156  C   -0.028487
   157  C   -0.015542
   159  C   -0.027971
   160  C   -0.014407
   173  C    0.172823
   174  C    0.198559
   175  N   -0.252001
   177  C    0.065376
   178  N   -0.247781
   180  C    0.068767
   182  C   -0.036520
   183  C   -0.020769
   185  C   -0.034687
   186  C   -0.022800
 Electronic spatial extent (au):  <R**2>=          93765.2594
 Charge=              0.0000 electrons
 Dipole moment (field-independent basis, Debye):
    X=             -2.4589    Y=             -2.4874    Z=             -2.9040  Tot=              4.5460
 Quadrupole moment (field-independent basis, Debye-Ang):
   XX=           -530.0275   YY=           -528.9518   ZZ=           -539.3693
   XY=             15.3098   XZ=              9.4560   YZ=              9.2621
 Traceless Quadrupole moment (field-independent basis, Debye-Ang):
   XX=              2.7554   YY=              3.8310   ZZ=             -6.5864
   XY=             15.3098   XZ=              9.4560   YZ=              9.2621
 Octapole moment (field-independent basis, Debye-Ang**2):
  XXX=            -51.7147  YYY=              5.6111  ZZZ=             -4.8764  XYY=            -71.2959
  XXY=            -61.9714  XXZ=           -106.9475  XZZ=            -37.5145  YZZ=             -8.8209
  YYZ=            -42.5098  XYZ=             38.2379
 Hexadecapole moment (field-independent basis, Debye-Ang**3):
 XXXX=         -63463.6198 YYYY=         -34348.7726 ZZZZ=         -30069.3227 XXXY=            645.9847
 XXXZ=            634.2249 YYYX=            223.8226 YYYZ=           -103.6320 ZZZX=              0.7999
 ZZZY=            190.1139 XXYY=         -16398.8554 XXZZ=         -16248.0810 YYZZ=         -10820.5524
 XXYZ=            123.2166 YYXZ=             79.5140 ZZXY=             -6.1249
 N-N= 1.750087321402D+04 E-N=-4.332492822675D+04  KE= 3.567043213387D+03
 Leave Link  601 at Mon Oct 18 14:25:02 2021, MaxMem=  7864320000 cpu:              79.3 elap:               3.3
 (Enter /apps/gaussian/g16-c01-avx/g16/l9999.exe)
 Unable to Open any file for archive entry.
 1\1\GINC-CX3-6-18\SP\RPBE1PBE\def2TZVP\C75H120N12\ATARZIA\18-Oct-2021\
 0\\#P PBE1PBE/Def2TZVP SP SCF=(YQC,MaxCycle=900) int=(Grid=Superfinegr
 id) EmpiricalDispersion=GD3\\_3_alde1_6_ami1_1_opt_gas\\0,1\C,0,-2.850
 8,-2.1294,-0.3838\C,0,-2.8718,-3.1333,-1.505\C,0,-2.5694,-2.583,0.894\
 C,0,-2.5464,-1.7136,1.9811\H,0,-2.3436,-3.623,1.0593\C,0,-2.8053,-0.36
 51,1.7745\C,0,-3.1051,0.1056,0.4981\H,0,-2.8027,0.3374,2.5936\C,0,-3.1
 173,-0.7828,-0.5781\C,0,-3.4604,1.5035,0.2943\H,0,-3.3581,-0.4169,-1.5
 668\C,0,-2.2394,-2.239,3.3046\H,0,-3.5578,1.8316,-0.753\H,0,-1.8475,-1
 .517,4.0376\C,0,1.9178,-2.06,-0.1443\C,0,1.9376,-2.0602,-1.653\C,0,2.6
 812,-1.1536,0.5727\C,0,2.6623,-1.1525,1.9674\H,0,3.287,-0.4209,0.0657\
 C,0,1.863,-2.0641,2.6413\C,0,1.102,-2.9897,1.931\H,0,1.8274,-2.0875,3.
 7197\C,0,1.1298,-2.9788,0.5378\C,0,0.2626,-3.9471,2.6315\H,0,0.5227,-3
 .6801,-0.0156\C,0,3.4807,-0.1984,2.7051\H,0,-0.3337,-4.6124,1.99\H,0,3
 .1179,0.0707,3.7102\C,0,1.3012,3.9989,-1.9841\C,0,1.184,4.4086,-3.4273
 \C,0,0.2215,4.1076,-1.1261\C,0,0.3395,3.7493,0.2181\H,0,-0.7327,4.469,
 -1.4764\C,0,1.5641,3.3024,0.6989\C,0,2.6593,3.195,-0.154\H,0,1.6905,3.
 0316,1.736\C,0,2.5143,3.529,-1.4978\C,0,3.9564,2.7647,0.3492\H,0,3.348
 7,3.4301,-2.1772\C,0,-0.8051,3.8678,1.1101\H,0,4.6658,2.3974,-0.4098\H
 ,0,-0.66,3.4912,2.1346\C,0,-1.9551,-5.1592,-2.2207\C,0,-3.4658,-5.365,
 -1.9191\N,0,-1.6565,-3.9383,-1.4868\H,0,-1.3552,-5.9717,-1.7951\C,0,-1
 .6214,-5.0752,-3.7288\N,0,-3.9489,-4.0975,-1.3624\H,0,-4.0074,-5.5162,
 -2.8611\C,0,-3.8046,-6.5506,-0.9963\H,0,-2.1466,-4.2075,-4.1448\C,0,-2
 .0465,-6.3241,-4.4983\C,0,-0.1154,-4.8848,-3.9195\H,0,-4.8788,-6.4685,
 -0.7874\C,0,-3.0603,-6.5203,0.3385\C,0,-3.5647,-7.8864,-1.6964\H,0,0.4
 197,-5.7571,-3.5471\H,0,0.2488,-4.0091,-3.3904\H,0,0.1175,-4.7678,-4.9
 764\H,0,-1.5702,-7.2072,-4.0781\H,0,-1.7406,-6.2362,-5.5391\H,0,-3.122
 1,-6.4712,-4.4782\H,0,-4.1185,-7.9391,-2.6304\H,0,-3.8919,-8.7055,-1.0
 596\H,0,-2.5087,-8.0254,-1.913\H,0,-1.9853,-6.5817,0.1897\H,0,-3.3693,
 -7.3668,0.9486\H,0,-3.2767,-5.6134,0.8979\C,0,2.3782,-0.799,-3.5697\C,
 0,0.8733,-1.1922,-3.5438\N,0,2.7826,-1.0077,-2.192\H,0,2.5072,0.2662,-
 3.8023\C,0,3.1703,-1.62,-4.614\N,0,0.6239,-1.7931,-2.2285\H,0,0.7081,-
 1.982,-4.2884\C,0,-0.0709,-0.0284,-3.8839\H,0,2.958,-2.6832,-4.4493\C,
 0,4.6767,-1.3937,-4.4784\C,0,2.7399,-1.2423,-6.0299\H,0,0.3521,0.4614,
 -4.7699\C,0,-0.1688,1.0007,-2.7572\C,0,-1.4568,-0.5523,-4.2519\H,0,3.2
 43,-1.8753,-6.7575\H,0,3.009,-0.2085,-6.2357\H,0,1.6677,-1.3547,-6.168
 \H,0,5.0698,-1.8126,-3.5542\H,0,4.9012,-0.3289,-4.5004\H,0,5.1992,-1.8
 728,-5.3035\H,0,-1.8637,-1.1291,-3.4262\H,0,-1.4076,-1.1943,-5.1292\H,
 0,-2.1312,0.2737,-4.4685\H,0,0.8147,1.2434,-2.3611\H,0,-0.79,0.6365,-1
 .9401\H,0,-0.6267,1.917,-3.1235\C,0,2.2511,4.2371,-5.5194\C,0,2.0662,5
 .7251,-5.0991\N,0,1.9215,3.4985,-4.3086\H,0,3.3087,4.0445,-5.7502\C,0,
 1.4421,3.8631,-6.7801\N,0,1.7844,5.7071,-3.6683\H,0,1.1644,6.1137,-5.5
 904\C,0,3.2336,6.6409,-5.4886\H,0,1.6491,4.64,-7.5258\C,0,-0.0664,3.81
 15,-6.542\C,0,1.9201,2.5233,-7.3388\H,0,3.4339,6.4565,-6.551\C,0,4.514
 7,6.3602,-4.702\C,0,2.8265,8.1028,-5.3133\H,0,2.9838,2.5563,-7.5647\H,
 0,1.3829,2.2772,-8.252\H,0,1.7472,1.7261,-6.6182\H,0,-0.4393,4.7537,-6
 .1478\H,0,-0.3245,3.0176,-5.8428\H,0,-0.5803,3.6097,-7.4795\H,0,1.9925
 ,8.3509,-5.9656\H,0,3.6585,8.7611,-5.5526\H,0,2.5211,8.2799,-4.2852\H,
 0,4.436,6.7378,-3.6845\H,0,5.3544,6.8623,-5.1773\H,0,4.7329,5.2954,-4.
 6641\C,0,-1.9814,-3.9842,4.8338\C,0,-0.7462,-4.8754,4.5063\N,0,-2.4126
 ,-3.4575,3.5762\H,0,-1.6428,-3.1775,5.5073\C,0,-3.1418,-4.743,5.5028\N
 ,0,0.2102,-4.0042,3.8913\H,0,-1.0879,-5.6476,3.7959\C,0,-0.1112,-5.557
 2,5.7293\H,0,-2.7736,-5.1736,6.4392\C,0,-3.6873,-5.8563,4.6133\C,0,-4.
 2539,-3.7494,5.8403\H,0,-0.8613,-6.2069,6.1913\C,0,0.383,-4.5431,6.756
 5\C,0,1.0505,-6.4304,5.2539\H,0,-4.651,-3.309,4.9283\H,0,-3.8778,-2.94
 9,6.4745\H,0,-5.0635,-4.2514,6.3653\H,0,-4.5889,-6.2766,5.0536\H,0,-2.
 9624,-6.6573,4.4953\H,0,-3.9288,-5.454,3.6336\H,0,1.8124,-5.81,4.7876\
 H,0,0.7092,-7.1633,4.5253\H,0,1.4957,-6.9606,6.0927\H,0,0.9613,-5.0452
 ,7.5291\H,0,-0.4476,-4.0301,7.2344\H,0,1.0145,-3.8087,6.265\C,0,-4.115
 ,3.619,1.0562\C,0,-2.9931,4.5266,1.6203\N,0,-3.6918,2.2689,1.2676\H,0,
 -4.215,3.845,-0.0206\C,0,-5.4893,3.8013,1.7336\N,0,-1.8845,4.3918,0.72
 63\H,0,-2.743,4.1575,2.631\C,0,-3.3608,6.0219,1.7117\H,0,-5.7984,4.842
 6,1.6039\C,0,-5.4368,3.4693,3.2219\C,0,-6.5201,2.9146,1.0344\H,0,-4.23
 16,6.1211,2.3666\C,0,-3.6854,6.6118,0.3425\C,0,-2.2019,6.7876,2.3506\H
 ,0,-6.2619,1.8652,1.1585\H,0,-6.5615,3.1364,-0.0304\H,0,-7.508,3.0807,
 1.4578\H,0,-6.4364,3.5136,3.6492\H,0,-4.8045,4.171,3.7592\H,0,-5.0401,
 2.4672,3.3578\H,0,-1.3191,6.732,1.7176\H,0,-1.9547,6.3715,3.3254\H,0,-
 2.4692,7.8338,2.4819\H,0,-3.8451,7.6847,0.4274\H,0,-4.5836,6.1653,-0.0
 756\H,0,-2.8571,6.4323,-0.3369\C,0,5.3148,1.2212,2.9639\C,0,5.5523,2.4
 149,2.0093\N,0,4.5427,0.2705,2.2191\H,0,4.7502,1.5834,3.8401\C,0,6.612
 6,0.5535,3.4668\N,0,4.2576,2.8444,1.5693\H,0,6.1505,2.0482,1.1565\C,0,
 6.2908,3.6056,2.6527\H,0,7.2145,1.3223,3.9618\C,0,7.421,-0.0638,2.3288
 \C,0,6.2684,-0.5154,4.5039\H,0,7.2614,3.2481,3.0116\C,0,5.5096,4.2039,
 3.8192\C,0,6.5443,4.6748,1.5896\H,0,5.6823,-1.3108,4.0484\H,0,5.6947,-
 0.0883,5.3243\H,0,7.1783,-0.9489,4.9128\H,0,6.7854,-0.7232,1.7439\H,0,
 8.2514,-0.6396,2.7321\H,0,7.8276,0.7024,1.6742\H,0,7.1262,5.4929,2.008
 2\H,0,5.5997,5.0721,1.2249\H,0,7.0938,4.2594,0.7468\H,0,5.9808,5.1275,
 4.1484\H,0,5.4787,3.5207,4.6638\H,0,4.4925,4.4195,3.5038\H,0,3.769,-1.
 2032,-2.0901\H,0,2.248,-3.0697,-2.0027\H,0,0.1487,-1.124,-1.6308\H,0,2
 .6558,5.7556,-3.1492\H,0,1.4152,2.6423,-4.4899\H,0,0.1148,4.4867,-3.69
 95\H,0,-4.1737,-4.2091,-0.38\H,0,-0.8593,-3.4218,-1.8457\H,0,-3.0255,-
 2.6152,-2.4733\\Version=ES64L-G16RevC.01\State=1-A\HF=-3584.4024099\RM
 SD=1.806e-09\Dipole=0.8615133,-0.0675444,-1.5659355\Quadrupole=-6.7660
 02,-8.6705845,15.4365865,1.2253896,-7.0039431,-3.7905565\PG=C01 [X(C75
 H120N12)]\\@
 The archive entry for this job was punched.


 IT IS BY EATING THE LIGHT OF A STAR THAT WE EXIST, 
 IN THE FINAL ANALYSIS, 
 JUST AS IT IS BY PERCEIVING THE LIGHT OF STARS
 THAT WE DEFINE THE WORLD AROUND US.

                                    -- GILBERT GROSVENOR
 Job cpu time:       4 days 13 hours 34 minutes 43.3 seconds.
 Elapsed time:       0 days  3 hours 27 minutes 31.5 seconds.
 File lengths (MBytes):  RWF=   6640 Int=      0 D2E=      0 Chk=    680 Scr=     16
 Normal termination of Gaussian 16 at Mon Oct 18 14:25:03 2021.
