 Entering Gaussian System, Link 0=g16
 Initial command:
 /apps/gaussian/g16-c01-avx/g16/l1.exe "/rds/general/ephemeral/user/atarzia/ephemeral/Gau-2817976.inp" -scrdir="/rds/general/ephemeral/user/atarzia/ephemeral/"
 Entering Link 1 = /apps/gaussian/g16-c01-avx/g16/l1.exe PID=   2817977.
  
 Copyright (c) 1988-2019, Gaussian, Inc.  All Rights Reserved.
  
 This is part of the Gaussian(R) 16 program.  It is based on
 the Gaussian(R) 09 system (copyright 2009, Gaussian, Inc.),
 the Gaussian(R) 03 system (copyright 2003, Gaussian, Inc.),
 the Gaussian(R) 98 system (copyright 1998, Gaussian, Inc.),
 the Gaussian(R) 94 system (copyright 1995, Gaussian, Inc.),
 the Gaussian 92(TM) system (copyright 1992, Gaussian, Inc.),
 the Gaussian 90(TM) system (copyright 1990, Gaussian, Inc.),
 the Gaussian 88(TM) system (copyright 1988, Gaussian, Inc.),
 the Gaussian 86(TM) system (copyright 1986, Carnegie Mellon
 University), and the Gaussian 82(TM) system (copyright 1983,
 Carnegie Mellon University). Gaussian is a federally registered
 trademark of Gaussian, Inc.
  
 This software contains proprietary and confidential information,
 including trade secrets, belonging to Gaussian, Inc.
  
 This software is provided under written license and may be
 used, copied, transmitted, or stored only in accord with that
 written license.
  
 The following legend is applicable only to US Government
 contracts under FAR:
  
                    RESTRICTED RIGHTS LEGEND
  
 Use, reproduction and disclosure by the US Government is
 subject to restrictions as set forth in subparagraphs (a)
 and (c) of the Commercial Computer Software - Restricted
 Rights clause in FAR 52.227-19.
  
 Gaussian, Inc.
 340 Quinnipiac St., Bldg. 40, Wallingford CT 06492
  
  
 ---------------------------------------------------------------
 Warning -- This program may not be used in any manner that
 competes with the business of Gaussian, Inc. or will provide
 assistance to any competitor of Gaussian, Inc.  The licensee
 of this program is prohibited from giving any competitor of
 Gaussian, Inc. access to this program.  By using this program,
 the user acknowledges that Gaussian, Inc. is engaged in the
 business of creating and licensing software in the field of
 computational chemistry and represents and warrants to the
 licensee that it is not a competitor of Gaussian, Inc. and that
 it will not use this program in any manner prohibited above.
 ---------------------------------------------------------------
  

 Cite this work as:
 Gaussian 16, Revision C.01,
 M. J. Frisch, G. W. Trucks, H. B. Schlegel, G. E. Scuseria, 
 M. A. Robb, J. R. Cheeseman, G. Scalmani, V. Barone, 
 G. A. Petersson, H. Nakatsuji, X. Li, M. Caricato, A. V. Marenich, 
 J. Bloino, B. G. Janesko, R. Gomperts, B. Mennucci, H. P. Hratchian, 
 J. V. Ortiz, A. F. Izmaylov, J. L. Sonnenberg, D. Williams-Young, 
 F. Ding, F. Lipparini, F. Egidi, J. Goings, B. Peng, A. Petrone, 
 T. Henderson, D. Ranasinghe, V. G. Zakrzewski, J. Gao, N. Rega, 
 G. Zheng, W. Liang, M. Hada, M. Ehara, K. Toyota, R. Fukuda, 
 J. Hasegawa, M. Ishida, T. Nakajima, Y. Honda, O. Kitao, H. Nakai, 
 T. Vreven, K. Throssell, J. A. Montgomery, Jr., J. E. Peralta, 
 F. Ogliaro, M. J. Bearpark, J. J. Heyd, E. N. Brothers, K. N. Kudin, 
 V. N. Staroverov, T. A. Keith, R. Kobayashi, J. Normand, 
 K. Raghavachari, A. P. Rendell, J. C. Burant, S. S. Iyengar, 
 J. Tomasi, M. Cossi, J. M. Millam, M. Klene, C. Adamo, R. Cammi, 
 J. W. Ochterski, R. L. Martin, K. Morokuma, O. Farkas, 
 J. B. Foresman, and D. J. Fox, Gaussian, Inc., Wallingford CT, 2019.
 
 ******************************************
 Gaussian 16:  ES64L-G16RevC.01  3-Jul-2019
                18-Oct-2021 
 ******************************************
 %chk=_3_alde1_6_ami2_2_opt_dcm.chk
 %mem=60000mb
 %nprocshared=32
 Will use up to   32 processors via shared memory.
 ----------------------------------------------------------------------
 #P PBE1PBE/Def2TZVP SP SCF=(YQC,MaxCycle=900) int=(Grid=Superfinegrid)
  EmpiricalDispersion=GD3 SCRF=(PCM,Solvent=Dichloromethane)
 ----------------------------------------------------------------------
 1/38=1,172=1/1;
 2/12=2,17=6,18=5,40=1/2;
 3/5=44,7=101,11=2,25=1,30=1,70=2201,72=9,74=-13,75=-7,124=31/1,2,3;
 4//1;
 5/5=2,7=900,8=4,13=1,38=1,53=9/8,2,8;
 6/7=2,8=2,9=2,10=2,28=1/1;
 99/5=1,9=1/99;
 Leave Link    1 at Mon Oct 18 17:34:59 2021, MaxMem=  7864320000 cpu:               5.1 elap:               0.2
 (Enter /apps/gaussian/g16-c01-avx/g16/l101.exe)
 -------------------------
 _3_alde1_6_ami2_2_opt_dcm
 -------------------------
 Symbolic Z-matrix:
 Charge =  0 Multiplicity = 1
 C                    -5.5631   -0.5077    2.1037 
 C                    -6.616    -1.2385    2.7939 
 C                    -4.5745   -1.1862    1.3966 
 C                    -3.5588   -0.4897    0.746 
 H                    -4.5967   -2.2622    1.3449 
 C                    -3.538     0.8986    0.8094 
 C                    -4.5304    1.5941    1.4994 
 H                    -2.7624    1.469     0.3202 
 C                    -5.5388    0.8857    2.1445 
 C                    -4.5126    3.05      1.5157 
 H                    -6.3099    1.4207    2.6828 
 C                    -2.5395   -1.1962   -0.0242 
 H                    -5.3795    3.5473    1.9813 
 H                    -7.3487   -0.6258    3.3445 
 H                    -1.7527   -0.5698   -0.4561 
 C                     4.7997   -0.9326   -0.0913 
 C                     6.1807   -1.3731   -0.2227 
 C                     4.4873    0.1505    0.7214 
 C                     3.166     0.5739    0.868 
 H                     5.257     0.6822    1.2602 
 C                     2.1534   -0.0936    0.1879 
 C                     2.4504   -1.189    -0.6246 
 H                     1.1243    0.2184    0.2826 
 C                     3.7726   -1.5984   -0.76 
 C                     1.4044   -1.9351   -1.3061 
 H                     4.0288   -2.4413   -1.3839 
 C                     2.8585    1.7249    1.7048 
 H                     1.748    -2.8292   -1.8507 
 H                     6.9262   -0.7864    0.3365 
 H                     1.7946    1.9899    1.7858 
 C                     1.2267    2.2052   -2.9724 
 C                     1.5662    1.3832   -4.1236 
 C                    -0.0762    2.6652   -2.7803 
 C                    -0.3737    3.5366   -1.7379 
 H                    -0.8387    2.3483   -3.4759 
 C                     0.6395    3.929    -0.8673 
 C                     1.9374    3.4553   -1.0268 
 H                     0.4142    4.6054   -0.0596 
 C                     2.225     2.5949   -2.0835 
 C                     2.9842    3.8237   -0.0812 
 H                     3.2344    2.2284   -2.2174 
 C                    -1.7315    4.0451   -1.5539 
 H                     3.9788    3.4195   -0.3097 
 H                     2.6364    1.1476   -4.2413 
 H                    -2.5073    3.5256   -2.13 
 C                    -7.0326   -4.1826    4.4866 
 C                    -7.6908   -3.1994    3.4729 
 N                    -6.0641   -5.0543    3.8464 
 N                    -6.6796   -2.4974    2.7611 
 C                     7.965    -4.2534   -0.4263 
 C                     7.8491   -2.8086   -0.9998 
 N                     7.0341   -5.1683   -1.0623 
 N                     6.4977   -2.3686   -0.9303 
 C                     0.5526   -1.2091   -5.9967 
 C                     1.0765    0.2542   -6.109 
 N                    -0.842    -1.2654   -5.5933 
 C                     1.3788   -1.957    -4.9497 
 N                     0.6999    1.0134   -4.9637 
 C                    -1.6643   -3.2157   -0.9276 
 C                    -0.7791   -2.4152   -1.9271 
 N                    -2.6048   -2.4454   -0.1722 
 N                     0.1881   -1.5953   -1.2785 
 C                    -0.7862   -3.9691    0.0803 
 C                    -3.5205    5.1036    0.9697 
 C                    -3.2271    5.568    -0.4823 
 N                    -3.5479    3.6844    1.0122 
 N                    -1.9363    5.0229   -0.7889 
 C                    -3.073     7.0929   -0.4957 
 C                     3.4431    3.5747    2.9732 
 C                     3.6548    4.7718    1.9829 
 N                     3.7704    2.3645    2.3067 
 N                     2.7202    4.5415    0.924 
 C                     3.2351    6.069     2.6778 
 H                    -0.9535   -0.7703   -4.7144 
 H                    -1.4223   -0.7954   -6.2802 
 H                    -6.5139   -5.612     3.128 
 H                    -5.3534   -4.4898    3.3927 
 H                     7.2156   -5.2192   -2.0593 
 H                     6.0877   -4.8241   -0.9403 
 H                     1.3352   -1.4359   -3.9953 
 H                     2.4178   -2.0318   -5.2616 
 H                     0.9746   -2.9574   -4.8214 
 H                     2.167     0.2343   -6.269 
 H                     0.5975    0.7279   -6.9727 
 H                     8.5457   -2.1413   -0.4653 
 H                     8.1284   -2.8394   -2.0589 
 C                     7.6576   -4.2343    1.0723 
 H                     8.3803   -3.6213    1.605 
 H                     7.6967   -5.248     1.4605 
 H                     6.6612   -3.8347    1.2488 
 H                    -1.4387   -1.7643   -2.5092 
 H                    -0.3116   -3.1458   -2.6054 
 C                    -2.4952   -4.2215   -1.7365 
 H                    -3.0649   -3.7057   -2.5057 
 H                    -3.1897   -4.7267   -1.0714 
 H                    -1.8529   -4.9596   -2.2094 
 H                    -0.0964   -4.6291   -0.4403 
 H                    -1.4163   -4.5602    0.7393 
 H                    -0.2166   -3.2643    0.6823 
 C                    -8.1225   -5.0504    5.1172 
 C                    -6.304    -3.3843    5.5695 
 H                    -4.4531    5.5699    1.3307 
 H                    -2.6859    5.434     1.5954 
 C                    -4.3833    5.1486   -1.3986 
 H                    -4.1485    5.3861   -2.4344 
 H                    -5.2846    5.6869   -1.1152 
 H                    -4.5786    4.0818   -1.3118 
 H                    -2.2107    7.3797    0.0993 
 H                    -3.962     7.5728   -0.0942 
 H                    -2.9174    7.4377   -1.5151 
 H                     3.7799    6.2021    3.6088 
 H                     2.1693    6.0457    2.8861 
 H                     3.439     6.9141    2.025 
 C                     5.1312    4.8378    1.5761 
 H                     5.2547    5.5244    0.7404 
 H                     5.4978    3.8551    1.2929 
 H                     5.7239    5.1954    2.4139 
 H                     2.3987    3.6056    3.3161 
 H                     4.1228    3.7035    3.8174 
 H                    -5.8115   -4.0703    6.2526 
 H                    -7.0032   -2.7668    6.1281 
 H                    -5.5496   -2.7425    5.1196 
 H                    -8.2518   -3.7919    2.7413 
 H                    -8.3917   -2.53      4.0005 
 C                     9.3854   -4.7676   -0.6638 
 C                     0.6897   -1.8924   -7.3578 
 H                    -8.6495   -5.6186    4.3535 
 H                    -8.8424   -4.4365    5.6522 
 H                    -7.6671   -5.7497    5.8127 
 H                     1.7278   -1.903    -7.6798 
 H                     0.0981   -1.3732   -8.1089 
 H                     0.3303   -2.9151   -7.2846 
 H                     10.1124  -4.1388   -0.1564 
 H                     9.6168   -4.7787   -1.7269 
 H                     9.4675   -5.7819   -0.2835 
 
 ITRead=  0  0  0  0  0  0  0  0  0  0  0  0  0  0  0  0  0  0  0  0
 ITRead=  0  0  0  0  0  0  0  0  0  0  0  0  0  0  0  0  0  0  0  0
 ITRead=  0  0  0  0  0  0  0  0  0  0  0  0  0  0  0  0  0  0  0  0
 ITRead=  0  0  0  0  0  0  0  0  0  0  0  0  0  0  0  0  0  0  0  0
 ITRead=  0  0  0  0  0  0  0  0  0  0  0  0  0  0  0  0  0  0  0  0
 ITRead=  0  0  0  0  0  0  0  0  0  0  0  0  0  0  0  0  0  0  0  0
 ITRead=  0  0  0  0  0  0  0  0  0  0  0  0  0  0  0
 MicOpt= -1 -1 -1 -1 -1 -1 -1 -1 -1 -1 -1 -1 -1 -1 -1 -1 -1 -1 -1 -1
 MicOpt= -1 -1 -1 -1 -1 -1 -1 -1 -1 -1 -1 -1 -1 -1 -1 -1 -1 -1 -1 -1
 MicOpt= -1 -1 -1 -1 -1 -1 -1 -1 -1 -1 -1 -1 -1 -1 -1 -1 -1 -1 -1 -1
 MicOpt= -1 -1 -1 -1 -1 -1 -1 -1 -1 -1 -1 -1 -1 -1 -1 -1 -1 -1 -1 -1
 MicOpt= -1 -1 -1 -1 -1 -1 -1 -1 -1 -1 -1 -1 -1 -1 -1 -1 -1 -1 -1 -1
 MicOpt= -1 -1 -1 -1 -1 -1 -1 -1 -1 -1 -1 -1 -1 -1 -1 -1 -1 -1 -1 -1
 MicOpt= -1 -1 -1 -1 -1 -1 -1 -1 -1 -1 -1 -1 -1 -1 -1
 NAtoms=    135 NQM=      135 NQMF=       0 NMMI=      0 NMMIF=      0
                NMic=       0 NMicF=      0.
                    Isotopes and Nuclear Properties:
 (Nuclear quadrupole moments (NQMom) in fm**2, nuclear magnetic moments (NMagM)
  in nuclear magnetons)

  Atom         1           2           3           4           5           6           7           8           9          10
 IAtWgt=          12          12          12          12           1          12          12           1          12          12
 AtmWgt=  12.0000000  12.0000000  12.0000000  12.0000000   1.0078250  12.0000000  12.0000000   1.0078250  12.0000000  12.0000000
 NucSpn=           0           0           0           0           1           0           0           1           0           0
 AtZEff=  -0.0000000  -0.0000000  -0.0000000  -0.0000000  -0.0000000  -0.0000000  -0.0000000  -0.0000000  -0.0000000  -0.0000000
 NQMom=    0.0000000   0.0000000   0.0000000   0.0000000   0.0000000   0.0000000   0.0000000   0.0000000   0.0000000   0.0000000
 NMagM=    0.0000000   0.0000000   0.0000000   0.0000000   2.7928460   0.0000000   0.0000000   2.7928460   0.0000000   0.0000000
 AtZNuc=   6.0000000   6.0000000   6.0000000   6.0000000   1.0000000   6.0000000   6.0000000   1.0000000   6.0000000   6.0000000

  Atom        11          12          13          14          15          16          17          18          19          20
 IAtWgt=           1          12           1           1           1          12          12          12          12           1
 AtmWgt=   1.0078250  12.0000000   1.0078250   1.0078250   1.0078250  12.0000000  12.0000000  12.0000000  12.0000000   1.0078250
 NucSpn=           1           0           1           1           1           0           0           0           0           1
 AtZEff=  -0.0000000  -0.0000000  -0.0000000  -0.0000000  -0.0000000  -0.0000000  -0.0000000  -0.0000000  -0.0000000  -0.0000000
 NQMom=    0.0000000   0.0000000   0.0000000   0.0000000   0.0000000   0.0000000   0.0000000   0.0000000   0.0000000   0.0000000
 NMagM=    2.7928460   0.0000000   2.7928460   2.7928460   2.7928460   0.0000000   0.0000000   0.0000000   0.0000000   2.7928460
 AtZNuc=   1.0000000   6.0000000   1.0000000   1.0000000   1.0000000   6.0000000   6.0000000   6.0000000   6.0000000   1.0000000

  Atom        21          22          23          24          25          26          27          28          29          30
 IAtWgt=          12          12           1          12          12           1          12           1           1           1
 AtmWgt=  12.0000000  12.0000000   1.0078250  12.0000000  12.0000000   1.0078250  12.0000000   1.0078250   1.0078250   1.0078250
 NucSpn=           0           0           1           0           0           1           0           1           1           1
 AtZEff=  -0.0000000  -0.0000000  -0.0000000  -0.0000000  -0.0000000  -0.0000000  -0.0000000  -0.0000000  -0.0000000  -0.0000000
 NQMom=    0.0000000   0.0000000   0.0000000   0.0000000   0.0000000   0.0000000   0.0000000   0.0000000   0.0000000   0.0000000
 NMagM=    0.0000000   0.0000000   2.7928460   0.0000000   0.0000000   2.7928460   0.0000000   2.7928460   2.7928460   2.7928460
 AtZNuc=   6.0000000   6.0000000   1.0000000   6.0000000   6.0000000   1.0000000   6.0000000   1.0000000   1.0000000   1.0000000

  Atom        31          32          33          34          35          36          37          38          39          40
 IAtWgt=          12          12          12          12           1          12          12           1          12          12
 AtmWgt=  12.0000000  12.0000000  12.0000000  12.0000000   1.0078250  12.0000000  12.0000000   1.0078250  12.0000000  12.0000000
 NucSpn=           0           0           0           0           1           0           0           1           0           0
 AtZEff=  -0.0000000  -0.0000000  -0.0000000  -0.0000000  -0.0000000  -0.0000000  -0.0000000  -0.0000000  -0.0000000  -0.0000000
 NQMom=    0.0000000   0.0000000   0.0000000   0.0000000   0.0000000   0.0000000   0.0000000   0.0000000   0.0000000   0.0000000
 NMagM=    0.0000000   0.0000000   0.0000000   0.0000000   2.7928460   0.0000000   0.0000000   2.7928460   0.0000000   0.0000000
 AtZNuc=   6.0000000   6.0000000   6.0000000   6.0000000   1.0000000   6.0000000   6.0000000   1.0000000   6.0000000   6.0000000

  Atom        41          42          43          44          45          46          47          48          49          50
 IAtWgt=           1          12           1           1           1          12          12          14          14          12
 AtmWgt=   1.0078250  12.0000000   1.0078250   1.0078250   1.0078250  12.0000000  12.0000000  14.0030740  14.0030740  12.0000000
 NucSpn=           1           0           1           1           1           0           0           2           2           0
 AtZEff=  -0.0000000  -0.0000000  -0.0000000  -0.0000000  -0.0000000  -0.0000000  -0.0000000  -0.0000000  -0.0000000  -0.0000000
 NQMom=    0.0000000   0.0000000   0.0000000   0.0000000   0.0000000   0.0000000   0.0000000   2.0440000   2.0440000   0.0000000
 NMagM=    2.7928460   0.0000000   2.7928460   2.7928460   2.7928460   0.0000000   0.0000000   0.4037610   0.4037610   0.0000000
 AtZNuc=   1.0000000   6.0000000   1.0000000   1.0000000   1.0000000   6.0000000   6.0000000   7.0000000   7.0000000   6.0000000

  Atom        51          52          53          54          55          56          57          58          59          60
 IAtWgt=          12          14          14          12          12          14          12          14          12          12
 AtmWgt=  12.0000000  14.0030740  14.0030740  12.0000000  12.0000000  14.0030740  12.0000000  14.0030740  12.0000000  12.0000000
 NucSpn=           0           2           2           0           0           2           0           2           0           0
 AtZEff=  -0.0000000  -0.0000000  -0.0000000  -0.0000000  -0.0000000  -0.0000000  -0.0000000  -0.0000000  -0.0000000  -0.0000000
 NQMom=    0.0000000   2.0440000   2.0440000   0.0000000   0.0000000   2.0440000   0.0000000   2.0440000   0.0000000   0.0000000
 NMagM=    0.0000000   0.4037610   0.4037610   0.0000000   0.0000000   0.4037610   0.0000000   0.4037610   0.0000000   0.0000000
 AtZNuc=   6.0000000   7.0000000   7.0000000   6.0000000   6.0000000   7.0000000   6.0000000   7.0000000   6.0000000   6.0000000

  Atom        61          62          63          64          65          66          67          68          69          70
 IAtWgt=          14          14          12          12          12          14          14          12          12          12
 AtmWgt=  14.0030740  14.0030740  12.0000000  12.0000000  12.0000000  14.0030740  14.0030740  12.0000000  12.0000000  12.0000000
 NucSpn=           2           2           0           0           0           2           2           0           0           0
 AtZEff=  -0.0000000  -0.0000000  -0.0000000  -0.0000000  -0.0000000  -0.0000000  -0.0000000  -0.0000000  -0.0000000  -0.0000000
 NQMom=    2.0440000   2.0440000   0.0000000   0.0000000   0.0000000   2.0440000   2.0440000   0.0000000   0.0000000   0.0000000
 NMagM=    0.4037610   0.4037610   0.0000000   0.0000000   0.0000000   0.4037610   0.4037610   0.0000000   0.0000000   0.0000000
 AtZNuc=   7.0000000   7.0000000   6.0000000   6.0000000   6.0000000   7.0000000   7.0000000   6.0000000   6.0000000   6.0000000

  Atom        71          72          73          74          75          76          77          78          79          80
 IAtWgt=          14          14          12           1           1           1           1           1           1           1
 AtmWgt=  14.0030740  14.0030740  12.0000000   1.0078250   1.0078250   1.0078250   1.0078250   1.0078250   1.0078250   1.0078250
 NucSpn=           2           2           0           1           1           1           1           1           1           1
 AtZEff=  -0.0000000  -0.0000000  -0.0000000  -0.0000000  -0.0000000  -0.0000000  -0.0000000  -0.0000000  -0.0000000  -0.0000000
 NQMom=    2.0440000   2.0440000   0.0000000   0.0000000   0.0000000   0.0000000   0.0000000   0.0000000   0.0000000   0.0000000
 NMagM=    0.4037610   0.4037610   0.0000000   2.7928460   2.7928460   2.7928460   2.7928460   2.7928460   2.7928460   2.7928460
 AtZNuc=   7.0000000   7.0000000   6.0000000   1.0000000   1.0000000   1.0000000   1.0000000   1.0000000   1.0000000   1.0000000

  Atom        81          82          83          84          85          86          87          88          89          90
 IAtWgt=           1           1           1           1           1           1          12           1           1           1
 AtmWgt=   1.0078250   1.0078250   1.0078250   1.0078250   1.0078250   1.0078250  12.0000000   1.0078250   1.0078250   1.0078250
 NucSpn=           1           1           1           1           1           1           0           1           1           1
 AtZEff=  -0.0000000  -0.0000000  -0.0000000  -0.0000000  -0.0000000  -0.0000000  -0.0000000  -0.0000000  -0.0000000  -0.0000000
 NQMom=    0.0000000   0.0000000   0.0000000   0.0000000   0.0000000   0.0000000   0.0000000   0.0000000   0.0000000   0.0000000
 NMagM=    2.7928460   2.7928460   2.7928460   2.7928460   2.7928460   2.7928460   0.0000000   2.7928460   2.7928460   2.7928460
 AtZNuc=   1.0000000   1.0000000   1.0000000   1.0000000   1.0000000   1.0000000   6.0000000   1.0000000   1.0000000   1.0000000

  Atom        91          92          93          94          95          96          97          98          99         100
 IAtWgt=           1           1          12           1           1           1           1           1           1          12
 AtmWgt=   1.0078250   1.0078250  12.0000000   1.0078250   1.0078250   1.0078250   1.0078250   1.0078250   1.0078250  12.0000000
 NucSpn=           1           1           0           1           1           1           1           1           1           0
 AtZEff=  -0.0000000  -0.0000000  -0.0000000  -0.0000000  -0.0000000  -0.0000000  -0.0000000  -0.0000000  -0.0000000  -0.0000000
 NQMom=    0.0000000   0.0000000   0.0000000   0.0000000   0.0000000   0.0000000   0.0000000   0.0000000   0.0000000   0.0000000
 NMagM=    2.7928460   2.7928460   0.0000000   2.7928460   2.7928460   2.7928460   2.7928460   2.7928460   2.7928460   0.0000000
 AtZNuc=   1.0000000   1.0000000   6.0000000   1.0000000   1.0000000   1.0000000   1.0000000   1.0000000   1.0000000   6.0000000

  Atom       101         102         103         104         105         106         107         108         109         110
 IAtWgt=          12           1           1          12           1           1           1           1           1           1
 AtmWgt=  12.0000000   1.0078250   1.0078250  12.0000000   1.0078250   1.0078250   1.0078250   1.0078250   1.0078250   1.0078250
 NucSpn=           0           1           1           0           1           1           1           1           1           1
 AtZEff=  -0.0000000  -0.0000000  -0.0000000  -0.0000000  -0.0000000  -0.0000000  -0.0000000  -0.0000000  -0.0000000  -0.0000000
 NQMom=    0.0000000   0.0000000   0.0000000   0.0000000   0.0000000   0.0000000   0.0000000   0.0000000   0.0000000   0.0000000
 NMagM=    0.0000000   2.7928460   2.7928460   0.0000000   2.7928460   2.7928460   2.7928460   2.7928460   2.7928460   2.7928460
 AtZNuc=   6.0000000   1.0000000   1.0000000   6.0000000   1.0000000   1.0000000   1.0000000   1.0000000   1.0000000   1.0000000

  Atom       111         112         113         114         115         116         117         118         119         120
 IAtWgt=           1           1           1          12           1           1           1           1           1           1
 AtmWgt=   1.0078250   1.0078250   1.0078250  12.0000000   1.0078250   1.0078250   1.0078250   1.0078250   1.0078250   1.0078250
 NucSpn=           1           1           1           0           1           1           1           1           1           1
 AtZEff=  -0.0000000  -0.0000000  -0.0000000  -0.0000000  -0.0000000  -0.0000000  -0.0000000  -0.0000000  -0.0000000  -0.0000000
 NQMom=    0.0000000   0.0000000   0.0000000   0.0000000   0.0000000   0.0000000   0.0000000   0.0000000   0.0000000   0.0000000
 NMagM=    2.7928460   2.7928460   2.7928460   0.0000000   2.7928460   2.7928460   2.7928460   2.7928460   2.7928460   2.7928460
 AtZNuc=   1.0000000   1.0000000   1.0000000   6.0000000   1.0000000   1.0000000   1.0000000   1.0000000   1.0000000   1.0000000

  Atom       121         122         123         124         125         126         127         128         129         130
 IAtWgt=           1           1           1           1          12          12           1           1           1           1
 AtmWgt=   1.0078250   1.0078250   1.0078250   1.0078250  12.0000000  12.0000000   1.0078250   1.0078250   1.0078250   1.0078250
 NucSpn=           1           1           1           1           0           0           1           1           1           1
 AtZEff=  -0.0000000  -0.0000000  -0.0000000  -0.0000000  -0.0000000  -0.0000000  -0.0000000  -0.0000000  -0.0000000  -0.0000000
 NQMom=    0.0000000   0.0000000   0.0000000   0.0000000   0.0000000   0.0000000   0.0000000   0.0000000   0.0000000   0.0000000
 NMagM=    2.7928460   2.7928460   2.7928460   2.7928460   0.0000000   0.0000000   2.7928460   2.7928460   2.7928460   2.7928460
 AtZNuc=   1.0000000   1.0000000   1.0000000   1.0000000   6.0000000   6.0000000   1.0000000   1.0000000   1.0000000   1.0000000

  Atom       131         132         133         134         135
 IAtWgt=           1           1           1           1           1
 AtmWgt=   1.0078250   1.0078250   1.0078250   1.0078250   1.0078250
 NucSpn=           1           1           1           1           1
 AtZEff=  -0.0000000  -0.0000000  -0.0000000  -0.0000000  -0.0000000
 NQMom=    0.0000000   0.0000000   0.0000000   0.0000000   0.0000000
 NMagM=    2.7928460   2.7928460   2.7928460   2.7928460   2.7928460
 AtZNuc=   1.0000000   1.0000000   1.0000000   1.0000000   1.0000000
 Leave Link  101 at Mon Oct 18 17:34:59 2021, MaxMem=  7864320000 cpu:               3.3 elap:               0.1
 (Enter /apps/gaussian/g16-c01-avx/g16/l202.exe)
 Stoichiometry    C51H72N12
 Framework group  C1[X(C51H72N12)]
 Deg. of freedom   399
 Full point group                 C1      NOp   1
 Largest Abelian subgroup         C1      NOp   1
 Largest concise Abelian subgroup C1      NOp   1
                         Standard orientation:                         
 ---------------------------------------------------------------------
 Center     Atomic      Atomic             Coordinates (Angstroms)
 Number     Number       Type             X           Y           Z
 ---------------------------------------------------------------------
      1          6           0        6.007506   -0.696158   -0.526610
      2          6           0        7.210270   -1.458970   -0.827473
      3          6           0        4.852591   -1.336495   -0.086355
      4          6           0        3.696662   -0.610201    0.189984
      5          1           0        4.852174   -2.405385    0.049349
      6          6           0        3.703755    0.769288    0.020310
      7          6           0        4.857475    1.427884   -0.403788
      8          1           0        2.823513    1.361778    0.221202
      9          6           0        6.004753    0.690011   -0.676098
     10          6           0        4.854261    2.878267   -0.532656
     11          1           0        6.901791    1.196193   -1.007290
     12          6           0        2.493958   -1.274332    0.683699
     13          1           0        5.821784    3.353639   -0.764014
     14          1           0        8.074585   -0.876796   -1.187256
     15          1           0        1.619892   -0.630352    0.822500
     16          6           0       -4.550098   -1.120169   -1.388822
     17          6           0       -5.912933   -1.571234   -1.629007
     18          6           0       -4.009526   -0.094527   -2.154996
     19          6           0       -2.699563    0.337452   -1.945271
     20          1           0       -4.587479    0.384479   -2.930864
     21          6           0       -1.930722   -0.262910   -0.954363
     22          6           0       -2.456570   -1.300594   -0.183024
     23          1           0       -0.916190    0.057243   -0.771102
     24          6           0       -3.764072   -1.719443   -0.404740
     25          6           0       -1.656650   -1.978718    0.824695
     26          1           0       -4.194811   -2.518455    0.179567
     27          6           0       -2.156297    1.428971   -2.740909
     28          1           0       -2.148482   -2.835924    1.311895
     29          1           0       -6.461482   -1.038494   -2.421455
     30          1           0       -1.112699    1.703793   -2.531040
     31          6           0       -1.941813    2.274347    2.158989
     32          6           0       -2.604452    1.533349    3.221080
     33          6           0       -0.636096    2.739221    2.317251
     34          6           0       -0.044778    3.536767    1.343236
     35          1           0       -0.108974    2.485742    3.224765
     36          6           0       -0.760901    3.848891    0.190742
     37          6           0       -2.052502    3.368054    0.003819
     38          1           0       -0.307707    4.467981   -0.565564
     39          6           0       -2.638402    2.582674    0.993523
     40          6           0       -2.779283    3.650254   -1.228180
     41          1           0       -3.645737    2.211337    0.857415
     42          6           0        1.311462    4.051447    1.521464
     43          1           0       -3.800005    3.248452   -1.266912
     44          1           0       -3.664496    1.290425    3.042243
     45          1           0        1.884560    3.587422    2.333792
     46          6           0        8.079515   -4.511892   -2.104420
     47          6           0        8.423061   -3.447302   -1.019929
     48          7           0        6.961954   -5.349460   -1.707876
     49          7           0        7.253801   -2.710989   -0.684279
     50          6           0       -7.698009   -4.456283   -1.735321
     51          6           0       -7.743625   -2.971880   -1.261772
     52          7           0       -6.996199   -5.307838   -0.791695
     53          7           0       -6.427008   -2.517257   -0.970998
     54          6           0       -2.191245   -0.899422    5.494138
     55          6           0       -2.716077    0.559887    5.341497
     56          7           0       -0.739949   -0.963403    5.515504
     57          6           0       -2.684538   -1.734396    4.311916
     58          7           0       -2.020017    1.239264    4.300406
     59          6           0        1.382519   -3.235863    1.443691
     60          6           0        0.251417   -2.378389    2.083008
     61          7           0        2.505908   -2.508249    0.936634
     62          7           0       -0.482102   -1.623051    1.123942
     63          6           0        0.828212   -4.074273    0.284232
     64          6           0        3.759635    4.950619   -0.450195
     65          6           0        3.062319    5.515094    0.816759
     66          7           0        3.789251    3.532694   -0.377415
     67          7           0        1.734586    4.973896    0.777612
     68          6           0        2.920470    7.034341    0.671799
     69          6           0       -2.338078    3.172056   -4.257803
     70          6           0       -2.819251    4.434780   -3.462465
     71          7           0       -2.851489    2.008774   -3.626047
     72          7           0       -2.231742    4.296823   -2.164934
     73          6           0       -2.208632    5.684179   -4.101142
     74          1           0       -0.376277   -0.532063    4.671875
     75          1           0       -0.379818   -0.435627    6.303690
     76          1           0        7.181614   -5.846245   -0.850904
     77          1           0        6.154061   -4.764439   -1.521715
     78          1           0       -7.458211   -5.288684    0.111477
     79          1           0       -6.052755   -4.958846   -0.660743
     80          1           0       -2.363905   -1.283686    3.374696
     81          1           0       -3.769790   -1.802320    4.315516
     82          1           0       -2.266783   -2.735113    4.380361
     83          1           0       -3.806421    0.534834    5.181159
     84          1           0       -2.503963    1.102680    6.268963
     85          1           0       -8.251987   -2.356206   -2.022525
     86          1           0       -8.317076   -2.929666   -0.329022
     87          6           0       -6.970803   -4.541786   -3.078646
     88          1           0       -7.505013   -3.980534   -3.841175
     89          1           0       -6.902475   -5.581585   -3.385185
     90          1           0       -5.963404   -4.140750   -2.989414
     91          1           0        0.718867   -1.676633    2.780585
     92          1           0       -0.396621   -3.064716    2.649953
     93          6           0        1.938090   -4.167001    2.530278
     94          1           0        2.264592   -3.587713    3.390568
     95          1           0        2.791897   -4.708557    2.133233
     96          1           0        1.181976   -4.878495    2.851282
     97          1           0        0.013336   -4.705140    0.631267
     98          1           0        1.618065   -4.702042   -0.119183
     99          1           0        0.461164   -3.424162   -0.507110
    100          6           0        9.299632   -5.406403   -2.327537
    101          6           0        7.699714   -3.806078   -3.407644
    102          1           0        4.759655    5.403725   -0.560447
    103          1           0        3.143384    5.221543   -1.312783
    104          6           0        3.901978    5.181593    2.056133
    105          1           0        3.379540    5.490348    2.959542
    106          1           0        4.850073    5.711673    2.005581
    107          1           0        4.107338    4.114454    2.108872
    108          1           0        2.268561    7.263597   -0.166232
    109          1           0        3.890530    7.497380    0.509299
    110          1           0        2.479264    7.450128    1.574425
    111          1           0       -2.460503    5.740568   -5.156919
    112          1           0       -1.128257    5.662247   -3.990826
    113          1           0       -2.587072    6.571385   -3.599580
    114          6           0       -4.349781    4.507416   -3.504901
    115          1           0       -4.705062    5.251149   -2.793774
    116          1           0       -4.788695    3.542434   -3.267287
    117          1           0       -4.673020    4.793737   -4.502206
    118          1           0       -1.238979    3.194025   -4.286177
    119          1           0       -2.744194    3.228401   -5.269312
    120          1           0        7.421189   -4.547617   -4.150828
    121          1           0        8.534297   -3.220219   -3.785085
    122          1           0        6.851565   -3.144926   -3.243459
    123          1           0        8.745151   -3.976106   -0.115695
    124          1           0        9.250644   -2.807400   -1.371143
    125          6           0       -9.129668   -4.973713   -1.880111
    126          6           0       -2.719862   -1.483663    6.804678
    127          1           0        9.580053   -5.909159   -1.404272
    128          1           0       10.147194   -4.822092   -2.676210
    129          1           0        9.060124   -6.161534   -3.070868
    130          1           0       -3.806766   -1.486815    6.813409
    131          1           0       -2.367145   -0.901966    7.653754
    132          1           0       -2.361049   -2.503293    6.914457
    133          1           0       -9.675201   -4.394926   -2.620902
    134          1           0       -9.658292   -4.910822   -0.931189
    135          1           0       -9.104792   -6.014200   -2.191466
 ---------------------------------------------------------------------
 Rotational constants (GHZ):           0.0338280           0.0222086           0.0186131
 Leave Link  202 at Mon Oct 18 17:34:59 2021, MaxMem=  7864320000 cpu:               0.2 elap:               0.0
 (Enter /apps/gaussian/g16-c01-avx/g16/l301.exe)
 Standard basis: def2TZVP (5D, 7F)
 Ernie: Thresh=  0.10000D-02 Tol=  0.10000D-05 Strict=F.
 There are  2700 symmetry adapted cartesian basis functions of A   symmetry.
 There are  2385 symmetry adapted basis functions of A   symmetry.
  2385 basis functions,  3789 primitive gaussians,  2700 cartesian basis functions
   231 alpha electrons      231 beta electrons
       nuclear repulsion energy      9296.2703680302 Hartrees.
 IExCor= 1009 DFT=T Ex+Corr=PBE1PBE ExCW=0 ScaHFX=  0.250000
 ScaDFX=  0.750000  0.750000  1.000000  1.000000 ScalE2=  1.000000  1.000000
 IRadAn=      7 IRanWt=     -1 IRanGd=            0 ICorTp=0 IEmpDi=131
 NAtoms=  135 NActive=  135 NUniq=  135 SFac= 1.00D+00 NAtFMM=   60 NAOKFM=T Big=T
 Integral buffers will be    131072 words long.
 Raffenetti 2 integral format.
 Two-electron integral symmetry is turned on.
 R6Disp:  Grimme-D3 Dispersion energy=       -0.1091661604 Hartrees.
 Nuclear repulsion after empirical dispersion term =     9296.1612018698 Hartrees.
 ------------------------------------------------------------------------------
 Polarizable Continuum Model (PCM)
 =================================
 Model                : PCM.
 Atomic radii         : UFF (Universal Force Field).
 Polarization charges : Total charges.
 Charge compensation  : None.
 Solution method      : On-the-fly selection.
 Cavity type          : Scaled VdW (van der Waals Surface) (Alpha=1.100).
 Cavity algorithm     : GePol (No added spheres)
                        Default sphere list used, NSphG=  135.
                        Lebedev-Laikov grids with approx.  5.0 points / Ang**2.
                        Smoothing algorithm: York/Karplus (Gamma=1.0000).
                        Polarization charges: spherical gaussians, with
                                              point-specific exponents (IZeta= 3).
                        Self-potential: point-specific (ISelfS= 7).
                        Self-field    : sphere-specific E.n sum rule (ISelfD= 2).
 Solvent              : Dichloromethane, Eps=   8.930000 Eps(inf)=   2.028346
 ------------------------------------------------------------------------------
 GePol: Number of generator spheres                  =     135
 GePol: Total number of spheres                      =     135
 GePol: Number of exposed spheres                    =     135 (100.00%)
 GePol: Number of points                             =    8157
 GePol: Average weight of points                     =       0.13
 GePol: Minimum weight of points                     =   0.11D-10
 GePol: Maximum weight of points                     =    0.20577
 GePol: Number of points with low weight             =     579
 GePol: Fraction of low-weight points (<1% of avg)   =       7.10%
 GePol: Cavity surface area                          =   1073.591 Ang**2
 GePol: Cavity volume                                =   1274.850 Ang**3
 Leave Link  301 at Mon Oct 18 17:35:00 2021, MaxMem=  7864320000 cpu:               2.1 elap:               0.1
 (Enter /apps/gaussian/g16-c01-avx/g16/l302.exe)
 NPDir=0 NMtPBC=     1 NCelOv=     1 NCel=       1 NClECP=     1 NCelD=      1
         NCelK=      1 NCelE2=     1 NClLst=     1 CellRange=     0.0.
 One-electron integrals computed using PRISM.
 One-electron integral symmetry used in STVInt
   1 Symmetry operations used in ECPInt.
 ECPInt:  NShTT=  481671 NPrTT= 1433880 LenC2=  284773 LenP2D=  538208.
 LDataN:  DoStor=T MaxTD1= 6 Len=  172
 Number of processors reduced to  31 by ecpmxn.
 NBasis=  2385 RedAO= T EigKep=  4.69D-06  NBF=  2385
 NBsUse=  2385 1.00D-06 EigRej= -1.00D+00 NBFU=  2385
 Precomputing XC quadrature grid using
 IXCGrd= 4 IRadAn=           7 IRanWt=          -1 IRanGd=           0 AccXCQ= 0.00D+00.
 Generated NRdTot=       0 NPtTot=           0 NUsed=           0 NTot=          32
 NSgBfM=  2368  2368  2368  2368  2368 MxSgAt=   135 MxSgA2=   135.
 Leave Link  302 at Mon Oct 18 17:35:24 2021, MaxMem=  7864320000 cpu:             779.9 elap:              24.6
 (Enter /apps/gaussian/g16-c01-avx/g16/l303.exe)
 DipDrv:  MaxL=1.
 Leave Link  303 at Mon Oct 18 17:35:25 2021, MaxMem=  7864320000 cpu:              31.8 elap:               1.2
 (Enter /apps/gaussian/g16-c01-avx/g16/l401.exe)
 ExpMin= 9.52D-02 ExpMax= 1.97D+04 ExpMxC= 6.73D+02 IAcc=3 IRadAn=         7 AccDes= 0.00D+00
 Harris functional with IExCor= 1009 and IRadAn=       7 diagonalized for initial guess.
 HarFok:  IExCor= 1009 AccDes= 0.00D+00 IRadAn=         7 IDoV= 1 UseB2=F ITyADJ=14
 ICtDFT=  3500011 ScaDFX=  1.000000  1.000000  1.000000  1.000000
 FoFCou: FMM=F IPFlag=           0 FMFlag=      100000 FMFlg1=        2001
         NFxFlg=           0 DoJE=T BraDBF=F KetDBF=T FulRan=T
         wScrn=  0.000000 ICntrl=       500 IOpCl=  0 I1Cent=   200000004 NGrid=           0
         NMat0=    1 NMatS0=      1 NMatT0=    0 NMatD0=    1 NMtDS0=    0 NMtDT0=    0
 Petite list used in FoFCou.
 Harris En= -2642.51082567666    
 JPrj=0 DoOrth=F DoCkMO=F.
 Leave Link  401 at Mon Oct 18 17:36:25 2021, MaxMem=  7864320000 cpu:            1869.8 elap:              59.1
 (Enter /apps/gaussian/g16-c01-avx/g16/l508.exe)
 Integral symmetry usage will be decided dynamically.
 Tight linear equation convergence will be used.
 RPBE1PBE wavefunction.
 Linear searches until partial convergence.
 Full line searches.
 Fock matrices will be formed incrementally for  20 cycles.
 Inv3:  Mode=1 IEnd=   199609947.
 Iteration    1 A*A^-1 deviation from unit magnitude is 1.04D-14 for   8139.
 Iteration    1 A*A^-1 deviation from orthogonality  is 4.66D-15 for   8157   6448.
 Iteration    1 A^-1*A deviation from unit magnitude is 1.02D-14 for   8139.
 Iteration    1 A^-1*A deviation from orthogonality  is 2.65D-15 for   6118   2014.
 FoFJK:  IHMeth= 1 ICntrl=       0 DoSepK=F KAlg= 0 I1Cent=           0 FoldK=F
 IRaf= 540000000 NMat=       1 IRICut=       1 DoRegI=T DoRafI=F ISym2E= 1 IDoP0=0 IntGTp=1.
 Iteration   1 EE= -2640.06655294195                                    Grad=1.873D+00 Max rot=    2.3967 deg.
 Gradient too large for Newton-Raphson -- use scaled steepest descent instead.
 Alpha Gap=     0.181 HL deriv= 1.38D-03
     ILin= 1 X=0.000D+00 Y=-2.640066552942D+03 DE= 0.00D+00 F= -6.79D+00
 RMSU=  4.96D-04    CP:  1.00D+00
     ILin= 2 X=3.000D-01 Y=-2.641412156720D+03 DE=-1.35D+00 F= -2.16D+00 OKLS=F
 RMSU=  8.27D-05    CP:  1.00D+00  1.74D+00
     ILin= 3 X=5.000D-01 Y=-2.641532856500D+03 DE=-1.47D+00 F=  9.54D-01
     Accept linear search using points  2 and  3.
     An  expanding polynomial of degree  3 produced  0.3919
 RMSU=  4.70D-08    CP:  1.00D+00  1.33D+00  3.61D-01
 Iteration   2 EE= -2641.54501842795     Delta-E=       -1.478465486000 Grad=5.630D-01 Max rot=    1.7339 deg.
 Gradient too large for Newton-Raphson -- use scaled steepest descent instead.
 Alpha Gap=     0.194 HL deriv= 3.64D-03
     ILin= 1 X=0.000D+00 Y=-2.641545018428D+03 DE= 0.00D+00 F= -2.88D-01
 RMSU=  8.61D-05    CP:  1.00D+00  1.59D+00  7.66D-01 -3.00D+00
     ILin= 2 X=3.000D-01 Y=-2.641610781663D+03 DE=-6.58D-02 F= -1.51D-01 OKLS=F
 RMSU=  1.29D-05    CP:  9.99D-01  1.94D+00  1.55D+00 -3.00D+00  2.35D+00
     ILin= 3 X=7.000D-01 Y=-2.641634563227D+03 DE=-8.95D-02 F=  3.18D-02
     Accept linear search using points  2 and  3.
     An  expanding polynomial of degree  3 produced  0.5158
 RMSU=  3.29D-08    CP:  9.99D-01  1.78D+00  1.15D+00 -3.00D+00  1.72D+00
                    CP:  3.98D-01
 Iteration   3 EE= -2641.63268113999     Delta-E=       -0.087662712041 Grad=2.377D-01 Max rot=    0.7620 deg.
 Gradient too large for Newton-Raphson -- use scaled steepest descent instead.
 Alpha Gap=     0.182 HL deriv= 1.72D-03
     ILin= 1 X=0.000D+00 Y=-2.641632681140D+03 DE= 0.00D+00 F= -4.02D-02
 RMSU=  4.09D-05    CP:  1.00D+00  1.96D+00  1.66D+00 -3.00D+00  2.33D+00
                    CP:  7.72D-01 -3.00D+00
     ILin= 2 X=4.000D-01 Y=-2.641643219815D+03 DE=-1.05D-02 F= -1.25D-02 OKLS=F
 RMSU=  8.11D-06    CP:  1.00D+00  2.20D+00  2.41D+00 -3.00D+00  3.00D+00
                    CP:  1.60D+00 -3.00D+00  2.26D+00
     ILin= 3 X=9.000D-01 Y=-2.641640851913D+03 DE=-8.17D-03 F=  2.20D-02
     An  expanding polynomial of degree  3 produced  0.5814
 RMSU=  6.82D-07    CP:  1.00D+00  2.05D+00  1.92D+00 -3.00D+00  2.60D+00
                    CP:  1.03D+00 -3.00D+00  1.46D+00  3.55D-02
 Iteration   4 EE= -2641.64435637752     Delta-E=       -0.011675237538 Grad=1.065D-01 Max rot=    0.3171 deg.
 Gradient too large for Newton-Raphson -- use scaled steepest descent instead.
 Alpha Gap=     0.192 HL deriv= 1.99D-03
     ILin= 1 X=0.000D+00 Y=-2.641644356378D+03 DE= 0.00D+00 F= -1.33D-02
 RMSU=  2.76D-05    CP:  1.00D+00  2.08D+00  2.02D+00 -3.00D+00  2.97D+00
                    CP:  1.24D+00 -3.00D+00  1.53D+00  5.31D-02  2.04D+00
     ILin= 2 X=5.000D-01 Y=-2.641646630099D+03 DE=-2.27D-03 F=  4.18D-03 OKLS=T
     Accept linear search using points  1 and  2.
     An  expanding polynomial of degree  2 produced  0.2865
 RMSU=  1.21D-07    CP:  1.00D+00  2.07D+00  1.98D+00 -3.00D+00  2.81D+00
                    CP:  1.14D+00 -3.00D+00  1.50D+00  4.43D-02  1.56D+00
                    CP:  5.72D-01
 Iteration   5 EE= -2641.64672787751     Delta-E=       -0.002371499990 Grad=6.327D-02 Max rot=    0.2123 deg.
 Gradient too large for Newton-Raphson -- use scaled steepest descent instead.
 Alpha Gap=     0.188 HL deriv= 3.08D-04
     ILin= 1 X=0.000D+00 Y=-2.641646727878D+03 DE= 0.00D+00 F= -1.97D-03
 RMSU=  6.77D-06    CP:  1.00D+00  2.14D+00  2.23D+00 -3.00D+00  3.00D+00
                    CP:  1.44D+00 -3.00D+00  1.90D+00  1.27D+00 -2.51D+00
                    CP:  1.05D+00  1.52D+00
     ILin= 2 X=6.000D-01 Y=-2.641647534266D+03 DE=-8.06D-04 F= -7.16D-04 OKLS=F
 RMSU=  1.38D-05    CP:  1.00D+00  2.22D+00  2.49D+00 -3.00D+00  3.00D+00
                    CP:  1.81D+00 -3.00D+00  2.31D+00  3.00D+00 -3.00D+00
                    CP:  1.54D+00 -1.31D+00  2.00D+00
     ILin= 3 X=1.200D+00 Y=-2.641647586689D+03 DE=-8.59D-04 F=  5.41D-04
     Accept linear search using points  2 and  3.
     An  expanding polynomial of degree  3 produced  0.9168
 RMSU=  3.43D-06    CP:  1.00D+00  2.18D+00  2.37D+00 -3.00D+00  3.00D+00
                    CP:  1.63D+00 -3.00D+00  2.12D+00  2.90D+00 -3.00D+00
                    CP:  1.31D+00  4.55D-01  1.53D+00  1.88D-01
 Iteration   6 EE= -2641.64765589724     Delta-E=       -0.000928019726 Grad=9.179D-03 Max rot=    0.0303 deg.
 SCF Done:  E(RPBE1PBE) =  -2641.64765590     a.u. after    6 cycles
            Convg  =    0.9179D-02                    15 Fock formations.
              S**2 =  0.0000                  -V/T =  2.0047
 Leave Link  508 at Mon Oct 18 18:54:51 2021, MaxMem=  7864320000 cpu:          148089.2 elap:            4706.1
 (Enter /apps/gaussian/g16-c01-avx/g16/l502.exe)
 Integral symmetry usage will be decided dynamically.
 Closed shell SCF:
 Using DIIS extrapolation, IDIIS=  1040.
 NGot=  7864320000 LenX=  7849626578 LenY=  7842333878
 Requested convergence on RMS density matrix=1.00D-08 within 128 cycles.
 Requested convergence on MAX density matrix=1.00D-06.
 Requested convergence on             energy=1.00D-06.
 No special actions if energy rises.
 Fock matrices will be formed incrementally for  20 cycles.

 Cycle   1  Pass 1  IDiag  1:
 FoFJK:  IHMeth= 1 ICntrl=       0 DoSepK=F KAlg= 0 I1Cent=           0 FoldK=F
 IRaf= 540000000 NMat=       1 IRICut=       1 DoRegI=T DoRafI=F ISym2E= 0 IDoP0=0 IntGTp=1.
 FoFCou: FMM=T IPFlag=           0 FMFlag=      100000 FMFlg1=        2001
         NFxFlg=           0 DoJE=F BraDBF=F KetDBF=F FulRan=T
         wScrn=  0.000000 ICntrl=         0 IOpCl=  0 I1Cent=           0 NGrid=           0
         NMat0=    1 NMatS0=      1 NMatT0=    0 NMatD0=    1 NMtDS0=    0 NMtDT0=    0
 Symmetry not used in FoFCou.
 FMM levels:  10  Number of levels for PrismC:   9
 E= -2641.64765589727    
 DIIS: error= 5.81D-05 at cycle   1 NSaved=   1.
 NSaved= 1 IEnMin= 1 EnMin= -2641.64765589727     IErMin= 1 ErrMin= 5.81D-05
 ErrMax= 5.81D-05  0.00D+00 EMaxC= 1.00D-01 BMatC= 4.21D-05 BMatP= 4.21D-05
 IDIUse=1 WtCom= 1.00D+00 WtEn= 0.00D+00
 Coeff-Com:  0.100D+01
 Coeff:      0.100D+01
 Gap=     0.188 Goal=   None    Shift=    0.000
 RMSDP=3.10D-05 MaxDP=9.71D-03              OVMax= 1.80D-03

 Cycle   2  Pass 1  IDiag  1:
 RMSU=  2.92D-05    CP:  1.00D+00
 E= -2641.64761623064     Delta-E=        0.000039666631 Rises=F Damp=F
 DIIS: error= 1.05D-04 at cycle   2 NSaved=   2.
 NSaved= 2 IEnMin= 1 EnMin= -2641.64765589727     IErMin= 1 ErrMin= 5.81D-05
 ErrMax= 1.05D-04  0.00D+00 EMaxC= 1.00D-01 BMatC= 8.89D-05 BMatP= 4.21D-05
 IDIUse=3 WtCom= 4.94D-01 WtEn= 5.06D-01
 Coeff-Com:  0.606D+00 0.394D+00
 Coeff-En:   0.668D+00 0.332D+00
 Coeff:      0.637D+00 0.363D+00
 Gap=     0.177 Goal=   None    Shift=    0.000
 RMSDP=8.24D-06 MaxDP=2.41D-03 DE= 3.97D-05 OVMax= 1.35D-03

 Cycle   3  Pass 1  IDiag  1:
 RMSU=  5.08D-06    CP:  1.00D+00  8.05D-01
 E= -2641.64769430372     Delta-E=       -0.000078073079 Rises=F Damp=F
 DIIS: error= 1.18D-05 at cycle   3 NSaved=   3.
 NSaved= 3 IEnMin= 3 EnMin= -2641.64769430372     IErMin= 3 ErrMin= 1.18D-05
 ErrMax= 1.18D-05  0.00D+00 EMaxC= 1.00D-01 BMatC= 1.46D-06 BMatP= 4.21D-05
 IDIUse=1 WtCom= 1.00D+00 WtEn= 0.00D+00
 Coeff-Com:  0.575D-01 0.110D+00 0.833D+00
 Coeff:      0.575D-01 0.110D+00 0.833D+00
 Gap=     0.177 Goal=   None    Shift=    0.000
 RMSDP=2.32D-06 MaxDP=8.21D-04 DE=-7.81D-05 OVMax= 2.99D-04

 Cycle   4  Pass 1  IDiag  1:
 RMSU=  1.07D-06    CP:  1.00D+00  8.69D-01  9.16D-01
 E= -2641.64769486148     Delta-E=       -0.000000557760 Rises=F Damp=F
 DIIS: error= 9.50D-06 at cycle   4 NSaved=   4.
 NSaved= 4 IEnMin= 4 EnMin= -2641.64769486148     IErMin= 4 ErrMin= 9.50D-06
 ErrMax= 9.50D-06  0.00D+00 EMaxC= 1.00D-01 BMatC= 8.73D-07 BMatP= 1.46D-06
 IDIUse=1 WtCom= 1.00D+00 WtEn= 0.00D+00
 Coeff-Com: -0.944D-02 0.384D-01 0.502D+00 0.469D+00
 Coeff:     -0.944D-02 0.384D-01 0.502D+00 0.469D+00
 Gap=     0.177 Goal=   None    Shift=    0.000
 RMSDP=7.29D-07 MaxDP=2.35D-04 DE=-5.58D-07 OVMax= 1.48D-04

 Cycle   5  Pass 1  IDiag  1:
 RMSU=  3.26D-07    CP:  1.00D+00  8.62D-01  9.89D-01  5.54D-01
 E= -2641.64769565418     Delta-E=       -0.000000792705 Rises=F Damp=F
 DIIS: error= 1.25D-06 at cycle   5 NSaved=   5.
 NSaved= 5 IEnMin= 5 EnMin= -2641.64769565418     IErMin= 5 ErrMin= 1.25D-06
 ErrMax= 1.25D-06  0.00D+00 EMaxC= 1.00D-01 BMatC= 1.25D-08 BMatP= 8.73D-07
 IDIUse=1 WtCom= 1.00D+00 WtEn= 0.00D+00
 Coeff-Com: -0.656D-02 0.811D-02 0.123D+00 0.165D+00 0.710D+00
 Coeff:     -0.656D-02 0.811D-02 0.123D+00 0.165D+00 0.710D+00
 Gap=     0.177 Goal=   None    Shift=    0.000
 RMSDP=1.50D-07 MaxDP=5.34D-05 DE=-7.93D-07 OVMax= 2.36D-05

 Cycle   6  Pass 1  IDiag  1:
 RMSU=  1.30D-07    CP:  1.00D+00  8.63D-01  9.97D-01  6.09D-01  9.49D-01
 E= -2641.64769566019     Delta-E=       -0.000000006003 Rises=F Damp=F
 DIIS: error= 1.01D-06 at cycle   6 NSaved=   6.
 NSaved= 6 IEnMin= 6 EnMin= -2641.64769566019     IErMin= 6 ErrMin= 1.01D-06
 ErrMax= 1.01D-06  0.00D+00 EMaxC= 1.00D-01 BMatC= 6.90D-09 BMatP= 1.25D-08
 IDIUse=1 WtCom= 1.00D+00 WtEn= 0.00D+00
 Coeff-Com: -0.322D-02 0.175D-02 0.312D-01 0.637D-01 0.474D+00 0.432D+00
 Coeff:     -0.322D-02 0.175D-02 0.312D-01 0.637D-01 0.474D+00 0.432D+00
 Gap=     0.177 Goal=   None    Shift=    0.000
 RMSDP=6.87D-08 MaxDP=2.70D-05 DE=-6.00D-09 OVMax= 1.11D-05

 Cycle   7  Pass 1  IDiag  1:
 RMSU=  3.30D-08    CP:  1.00D+00  8.63D-01  9.97D-01  5.98D-01  1.03D+00
                    CP:  5.96D-01
 E= -2641.64769566641     Delta-E=       -0.000000006221 Rises=F Damp=F
 DIIS: error= 1.46D-07 at cycle   7 NSaved=   7.
 NSaved= 7 IEnMin= 7 EnMin= -2641.64769566641     IErMin= 7 ErrMin= 1.46D-07
 ErrMax= 1.46D-07  0.00D+00 EMaxC= 1.00D-01 BMatC= 1.40D-10 BMatP= 6.90D-09
 IDIUse=1 WtCom= 1.00D+00 WtEn= 0.00D+00
 Coeff-Com: -0.503D-03-0.715D-04-0.310D-03 0.866D-02 0.115D+00 0.168D+00
 Coeff-Com:  0.710D+00
 Coeff:     -0.503D-03-0.715D-04-0.310D-03 0.866D-02 0.115D+00 0.168D+00
 Coeff:      0.710D+00
 Gap=     0.177 Goal=   None    Shift=    0.000
 RMSDP=1.47D-08 MaxDP=5.33D-06 DE=-6.22D-09 OVMax= 2.42D-06

 Cycle   8  Pass 1  IDiag  1:
 RMSU=  9.58D-09    CP:  1.00D+00  8.63D-01  9.98D-01  6.02D-01  1.03D+00
                    CP:  6.52D-01  9.08D-01
 E= -2641.64769566672     Delta-E=       -0.000000000313 Rises=F Damp=F
 DIIS: error= 8.68D-08 at cycle   8 NSaved=   8.
 NSaved= 8 IEnMin= 8 EnMin= -2641.64769566672     IErMin= 8 ErrMin= 8.68D-08
 ErrMax= 8.68D-08  0.00D+00 EMaxC= 1.00D-01 BMatC= 3.72D-11 BMatP= 1.40D-10
 IDIUse=1 WtCom= 1.00D+00 WtEn= 0.00D+00
 Coeff-Com:  0.880D-04-0.279D-03-0.426D-02-0.309D-02 0.391D-02 0.395D-01
 Coeff-Com:  0.396D+00 0.568D+00
 Coeff:      0.880D-04-0.279D-03-0.426D-02-0.309D-02 0.391D-02 0.395D-01
 Coeff:      0.396D+00 0.568D+00
 Gap=     0.177 Goal=   None    Shift=    0.000
 RMSDP=6.03D-09 MaxDP=2.21D-06 DE=-3.13D-10 OVMax= 1.17D-06

 Cycle   9  Pass 1  IDiag  1:
 RMSU=  3.42D-09    CP:  1.00D+00  8.63D-01  9.98D-01  6.02D-01  1.04D+00
                    CP:  6.50D-01  9.74D-01  6.69D-01
 E= -2641.64769566674     Delta-E=       -0.000000000016 Rises=F Damp=F
 DIIS: error= 2.25D-08 at cycle   9 NSaved=   9.
 NSaved= 9 IEnMin= 9 EnMin= -2641.64769566674     IErMin= 9 ErrMin= 2.25D-08
 ErrMax= 2.25D-08  0.00D+00 EMaxC= 1.00D-01 BMatC= 3.53D-12 BMatP= 3.72D-11
 IDIUse=1 WtCom= 1.00D+00 WtEn= 0.00D+00
 Coeff-Com:  0.777D-04-0.135D-03-0.216D-02-0.219D-02-0.772D-02 0.687D-02
 Coeff-Com:  0.155D+00 0.305D+00 0.546D+00
 Coeff:      0.777D-04-0.135D-03-0.216D-02-0.219D-02-0.772D-02 0.687D-02
 Coeff:      0.155D+00 0.305D+00 0.546D+00
 Gap=     0.177 Goal=   None    Shift=    0.000
 RMSDP=1.98D-09 MaxDP=4.82D-07 DE=-1.64D-11 OVMax= 4.43D-07

 Error on total polarization charges =  0.02781
 SCF Done:  E(RPBE1PBE) =  -2641.64769567     A.U. after    9 cycles
            NFock=  9  Conv=0.20D-08     -V/T= 2.0046
 KE= 2.629426798864D+03 PE=-2.473316983026D+04 EE= 1.016593413386D+04
 Leave Link  502 at Mon Oct 18 19:38:06 2021, MaxMem=  7864320000 cpu:           81884.4 elap:            2595.7
 (Enter /apps/gaussian/g16-c01-avx/g16/l508.exe)
 QCSCF skips out because SCF is already converged.
 Leave Link  508 at Mon Oct 18 19:38:07 2021, MaxMem=  7864320000 cpu:               0.1 elap:               0.0
 (Enter /apps/gaussian/g16-c01-avx/g16/l601.exe)
 Copying SCF densities to generalized density rwf, IOpCl= 0 IROHF=0.
 Hyperfine terms turned off by default for NAtoms > 100.

 **********************************************************************

            Population analysis using the SCF Density.

 **********************************************************************

 Orbital symmetries:
       Occupied  (A) (A) (A) (A) (A) (A) (A) (A) (A) (A) (A) (A)
                 (A) (A) (A) (A) (A) (A) (A) (A) (A) (A) (A) (A)
                 (A) (A) (A) (A) (A) (A) (A) (A) (A) (A) (A) (A)
                 (A) (A) (A) (A) (A) (A) (A) (A) (A) (A) (A) (A)
                 (A) (A) (A) (A) (A) (A) (A) (A) (A) (A) (A) (A)
                 (A) (A) (A) (A) (A) (A) (A) (A) (A) (A) (A) (A)
                 (A) (A) (A) (A) (A) (A) (A) (A) (A) (A) (A) (A)
                 (A) (A) (A) (A) (A) (A) (A) (A) (A) (A) (A) (A)
                 (A) (A) (A) (A) (A) (A) (A) (A) (A) (A) (A) (A)
                 (A) (A) (A) (A) (A) (A) (A) (A) (A) (A) (A) (A)
                 (A) (A) (A) (A) (A) (A) (A) (A) (A) (A) (A) (A)
                 (A) (A) (A) (A) (A) (A) (A) (A) (A) (A) (A) (A)
                 (A) (A) (A) (A) (A) (A) (A) (A) (A) (A) (A) (A)
                 (A) (A) (A) (A) (A) (A) (A) (A) (A) (A) (A) (A)
                 (A) (A) (A) (A) (A) (A) (A) (A) (A) (A) (A) (A)
                 (A) (A) (A) (A) (A) (A) (A) (A) (A) (A) (A) (A)
                 (A) (A) (A) (A) (A) (A) (A) (A) (A) (A) (A) (A)
                 (A) (A) (A) (A) (A) (A) (A) (A) (A) (A) (A) (A)
                 (A) (A) (A) (A) (A) (A) (A) (A) (A) (A) (A) (A)
                 (A) (A) (A)
       Virtual   (A) (A) (A) (A) (A) (A) (A) (A) (A) (A) (A) (A)
                 (A) (A) (A) (A) (A) (A) (A) (A) (A) (A) (A) (A)
                 (A) (A) (A) (A) (A) (A) (A) (A) (A) (A) (A) (A)
                 (A) (A) (A) (A) (A) (A) (A) (A) (A) (A) (A) (A)
                 (A) (A) (A) (A) (A) (A) (A) (A) (A) (A) (A) (A)
                 (A) (A) (A) (A) (A) (A) (A) (A) (A) (A) (A) (A)
                 (A) (A) (A) (A) (A) (A) (A) (A) (A) (A) (A) (A)
                 (A) (A) (A) (A) (A) (A) (A) (A) (A) (A) (A) (A)
                 (A) (A) (A) (A) (A) (A) (A) (A) (A) (A) (A) (A)
                 (A) (A) (A) (A) (A) (A) (A) (A) (A) (A) (A) (A)
                 (A) (A) (A) (A) (A) (A) (A) (A) (A) (A) (A) (A)
                 (A) (A) (A) (A) (A) (A) (A) (A) (A) (A) (A) (A)
                 (A) (A) (A) (A) (A) (A) (A) (A) (A) (A) (A) (A)
                 (A) (A) (A) (A) (A) (A) (A) (A) (A) (A) (A) (A)
                 (A) (A) (A) (A) (A) (A) (A) (A) (A) (A) (A) (A)
                 (A) (A) (A) (A) (A) (A) (A) (A) (A) (A) (A) (A)
                 (A) (A) (A) (A) (A) (A) (A) (A) (A) (A) (A) (A)
                 (A) (A) (A) (A) (A) (A) (A) (A) (A) (A) (A) (A)
                 (A) (A) (A) (A) (A) (A) (A) (A) (A) (A) (A) (A)
                 (A) (A) (A) (A) (A) (A) (A) (A) (A) (A) (A) (A)
                 (A) (A) (A) (A) (A) (A) (A) (A) (A) (A) (A) (A)
                 (A) (A) (A) (A) (A) (A) (A) (A) (A) (A) (A) (A)
                 (A) (A) (A) (A) (A) (A) (A) (A) (A) (A) (A) (A)
                 (A) (A) (A) (A) (A) (A) (A) (A) (A) (A) (A) (A)
                 (A) (A) (A) (A) (A) (A) (A) (A) (A) (A) (A) (A)
                 (A) (A) (A) (A) (A) (A) (A) (A) (A) (A) (A) (A)
                 (A) (A) (A) (A) (A) (A) (A) (A) (A) (A) (A) (A)
                 (A) (A) (A) (A) (A) (A) (A) (A) (A) (A) (A) (A)
                 (A) (A) (A) (A) (A) (A) (A) (A) (A) (A) (A) (A)
                 (A) (A) (A) (A) (A) (A) (A) (A) (A) (A) (A) (A)
                 (A) (A) (A) (A) (A) (A) (A) (A) (A) (A) (A) (A)
                 (A) (A) (A) (A) (A) (A) (A) (A) (A) (A) (A) (A)
                 (A) (A) (A) (A) (A) (A) (A) (A) (A) (A) (A) (A)
                 (A) (A) (A) (A) (A) (A) (A) (A) (A) (A) (A) (A)
                 (A) (A) (A) (A) (A) (A) (A) (A) (A) (A) (A) (A)
                 (A) (A) (A) (A) (A) (A) (A) (A) (A) (A) (A) (A)
                 (A) (A) (A) (A) (A) (A) (A) (A) (A) (A) (A) (A)
                 (A) (A) (A) (A) (A) (A) (A) (A) (A) (A) (A) (A)
                 (A) (A) (A) (A) (A) (A) (A) (A) (A) (A) (A) (A)
                 (A) (A) (A) (A) (A) (A) (A) (A) (A) (A) (A) (A)
                 (A) (A) (A) (A) (A) (A) (A) (A) (A) (A) (A) (A)
                 (A) (A) (A) (A) (A) (A) (A) (A) (A) (A) (A) (A)
                 (A) (A) (A) (A) (A) (A) (A) (A) (A) (A) (A) (A)
                 (A) (A) (A) (A) (A) (A) (A) (A) (A) (A) (A) (A)
                 (A) (A) (A) (A) (A) (A) (A) (A) (A) (A) (A) (A)
                 (A) (A) (A) (A) (A) (A) (A) (A) (A) (A) (A) (A)
                 (A) (A) (A) (A) (A) (A) (A) (A) (A) (A) (A) (A)
                 (A) (A) (A) (A) (A) (A) (A) (A) (A) (A) (A) (A)
                 (A) (A) (A) (A) (A) (A) (A) (A) (A) (A) (A) (A)
                 (A) (A) (A) (A) (A) (A) (A) (A) (A) (A) (A) (A)
                 (A) (A) (A) (A) (A) (A) (A) (A) (A) (A) (A) (A)
                 (A) (A) (A) (A) (A) (A) (A) (A) (A) (A) (A) (A)
                 (A) (A) (A) (A) (A) (A) (A) (A) (A) (A) (A) (A)
                 (A) (A) (A) (A) (A) (A) (A) (A) (A) (A) (A) (A)
                 (A) (A) (A) (A) (A) (A) (A) (A) (A) (A) (A) (A)
                 (A) (A) (A) (A) (A) (A) (A) (A) (A) (A) (A) (A)
                 (A) (A) (A) (A) (A) (A) (A) (A) (A) (A) (A) (A)
                 (A) (A) (A) (A) (A) (A) (A) (A) (A) (A) (A) (A)
                 (A) (A) (A) (A) (A) (A) (A) (A) (A) (A) (A) (A)
                 (A) (A) (A) (A) (A) (A) (A) (A) (A) (A) (A) (A)
                 (A) (A) (A) (A) (A) (A) (A) (A) (A) (A) (A) (A)
                 (A) (A) (A) (A) (A) (A) (A) (A) (A) (A) (A) (A)
                 (A) (A) (A) (A) (A) (A) (A) (A) (A) (A) (A) (A)
                 (A) (A) (A) (A) (A) (A) (A) (A) (A) (A) (A) (A)
                 (A) (A) (A) (A) (A) (A) (A) (A) (A) (A) (A) (A)
                 (A) (A) (A) (A) (A) (A) (A) (A) (A) (A) (A) (A)
                 (A) (A) (A) (A) (A) (A) (A) (A) (A) (A) (A) (A)
                 (A) (A) (A) (A) (A) (A) (A) (A) (A) (A) (A) (A)
                 (A) (A) (A) (A) (A) (A) (A) (A) (A) (A) (A) (A)
                 (A) (A) (A) (A) (A) (A) (A) (A) (A) (A) (A) (A)
                 (A) (A) (A) (A) (A) (A) (A) (A) (A) (A) (A) (A)
                 (A) (A) (A) (A) (A) (A) (A) (A) (A) (A) (A) (A)
                 (A) (A) (A) (A) (A) (A) (A) (A) (A) (A) (A) (A)
                 (A) (A) (A) (A) (A) (A) (A) (A) (A) (A) (A) (A)
                 (A) (A) (A) (A) (A) (A) (A) (A) (A) (A) (A) (A)
                 (A) (A) (A) (A) (A) (A) (A) (A) (A) (A) (A) (A)
                 (A) (A) (A) (A) (A) (A) (A) (A) (A) (A) (A) (A)
                 (A) (A) (A) (A) (A) (A) (A) (A) (A) (A) (A) (A)
                 (A) (A) (A) (A) (A) (A) (A) (A) (A) (A) (A) (A)
                 (A) (A) (A) (A) (A) (A) (A) (A) (A) (A) (A) (A)
                 (A) (A) (A) (A) (A) (A) (A) (A) (A) (A) (A) (A)
                 (A) (A) (A) (A) (A) (A) (A) (A) (A) (A) (A) (A)
                 (A) (A) (A) (A) (A) (A) (A) (A) (A) (A) (A) (A)
                 (A) (A) (A) (A) (A) (A) (A) (A) (A) (A) (A) (A)
                 (A) (A) (A) (A) (A) (A) (A) (A) (A) (A) (A) (A)
                 (A) (A) (A) (A) (A) (A) (A) (A) (A) (A) (A) (A)
                 (A) (A) (A) (A) (A) (A) (A) (A) (A) (A) (A) (A)
                 (A) (A) (A) (A) (A) (A) (A) (A) (A) (A) (A) (A)
                 (A) (A) (A) (A) (A) (A) (A) (A) (A) (A) (A) (A)
                 (A) (A) (A) (A) (A) (A) (A) (A) (A) (A) (A) (A)
                 (A) (A) (A) (A) (A) (A) (A) (A) (A) (A) (A) (A)
                 (A) (A) (A) (A) (A) (A) (A) (A) (A) (A) (A) (A)
                 (A) (A) (A) (A) (A) (A) (A) (A) (A) (A) (A) (A)
                 (A) (A) (A) (A) (A) (A) (A) (A) (A) (A) (A) (A)
                 (A) (A) (A) (A) (A) (A) (A) (A) (A) (A) (A) (A)
                 (A) (A) (A) (A) (A) (A) (A) (A) (A) (A) (A) (A)
                 (A) (A) (A) (A) (A) (A) (A) (A) (A) (A) (A) (A)
                 (A) (A) (A) (A) (A) (A) (A) (A) (A) (A) (A) (A)
                 (A) (A) (A) (A) (A) (A) (A) (A) (A) (A) (A) (A)
                 (A) (A) (A) (A) (A) (A) (A) (A) (A) (A) (A) (A)
                 (A) (A) (A) (A) (A) (A) (A) (A) (A) (A) (A) (A)
                 (A) (A) (A) (A) (A) (A) (A) (A) (A) (A) (A) (A)
                 (A) (A) (A) (A) (A) (A) (A) (A) (A) (A) (A) (A)
                 (A) (A) (A) (A) (A) (A) (A) (A) (A) (A) (A) (A)
                 (A) (A) (A) (A) (A) (A) (A) (A) (A) (A) (A) (A)
                 (A) (A) (A) (A) (A) (A) (A) (A) (A) (A) (A) (A)
                 (A) (A) (A) (A) (A) (A) (A) (A) (A) (A) (A) (A)
                 (A) (A) (A) (A) (A) (A) (A) (A) (A) (A) (A) (A)
                 (A) (A) (A) (A) (A) (A) (A) (A) (A) (A) (A) (A)
                 (A) (A) (A) (A) (A) (A) (A) (A) (A) (A) (A) (A)
                 (A) (A) (A) (A) (A) (A) (A) (A) (A) (A) (A) (A)
                 (A) (A) (A) (A) (A) (A) (A) (A) (A) (A) (A) (A)
                 (A) (A) (A) (A) (A) (A) (A) (A) (A) (A) (A) (A)
                 (A) (A) (A) (A) (A) (A) (A) (A) (A) (A) (A) (A)
                 (A) (A) (A) (A) (A) (A) (A) (A) (A) (A) (A) (A)
                 (A) (A) (A) (A) (A) (A) (A) (A) (A) (A) (A) (A)
                 (A) (A) (A) (A) (A) (A) (A) (A) (A) (A) (A) (A)
                 (A) (A) (A) (A) (A) (A) (A) (A) (A) (A) (A) (A)
                 (A) (A) (A) (A) (A) (A) (A) (A) (A) (A) (A) (A)
                 (A) (A) (A) (A) (A) (A) (A) (A) (A) (A) (A) (A)
                 (A) (A) (A) (A) (A) (A) (A) (A) (A) (A) (A) (A)
                 (A) (A) (A) (A) (A) (A) (A) (A) (A) (A) (A) (A)
                 (A) (A) (A) (A) (A) (A) (A) (A) (A) (A) (A) (A)
                 (A) (A) (A) (A) (A) (A) (A) (A) (A) (A) (A) (A)
                 (A) (A) (A) (A) (A) (A) (A) (A) (A) (A) (A) (A)
                 (A) (A) (A) (A) (A) (A) (A) (A) (A) (A) (A) (A)
                 (A) (A) (A) (A) (A) (A) (A) (A) (A) (A) (A) (A)
                 (A) (A) (A) (A) (A) (A) (A) (A) (A) (A) (A) (A)
                 (A) (A) (A) (A) (A) (A) (A) (A) (A) (A) (A) (A)
                 (A) (A) (A) (A) (A) (A) (A) (A) (A) (A) (A) (A)
                 (A) (A) (A) (A) (A) (A) (A) (A) (A) (A) (A) (A)
                 (A) (A) (A) (A) (A) (A) (A) (A) (A) (A) (A) (A)
                 (A) (A) (A) (A) (A) (A) (A) (A) (A) (A) (A) (A)
                 (A) (A) (A) (A) (A) (A) (A) (A) (A) (A) (A) (A)
                 (A) (A) (A) (A) (A) (A) (A) (A) (A) (A) (A) (A)
                 (A) (A) (A) (A) (A) (A) (A) (A) (A) (A) (A) (A)
                 (A) (A) (A) (A) (A) (A) (A) (A) (A) (A) (A) (A)
                 (A) (A) (A) (A) (A) (A) (A) (A) (A) (A) (A) (A)
                 (A) (A) (A) (A) (A) (A) (A) (A) (A) (A) (A) (A)
                 (A) (A) (A) (A) (A) (A) (A) (A) (A) (A) (A) (A)
                 (A) (A) (A) (A) (A) (A) (A) (A) (A) (A) (A) (A)
                 (A) (A) (A) (A) (A) (A) (A) (A) (A) (A) (A) (A)
                 (A) (A) (A) (A) (A) (A) (A) (A) (A) (A) (A) (A)
                 (A) (A) (A) (A) (A) (A) (A) (A) (A) (A) (A) (A)
                 (A) (A) (A) (A) (A) (A) (A) (A) (A) (A) (A) (A)
                 (A) (A) (A) (A) (A) (A) (A) (A) (A) (A) (A) (A)
                 (A) (A) (A) (A) (A) (A) (A) (A) (A) (A) (A) (A)
                 (A) (A) (A) (A) (A) (A) (A) (A) (A) (A) (A) (A)
                 (A) (A) (A) (A) (A) (A) (A) (A) (A) (A) (A) (A)
                 (A) (A) (A) (A) (A) (A) (A) (A) (A) (A) (A) (A)
                 (A) (A) (A) (A) (A) (A) (A) (A) (A) (A) (A) (A)
                 (A) (A) (A) (A) (A) (A) (A) (A) (A) (A) (A) (A)
                 (A) (A) (A) (A) (A) (A) (A) (A) (A) (A) (A) (A)
                 (A) (A) (A) (A) (A) (A) (A) (A) (A) (A) (A) (A)
                 (A) (A) (A) (A) (A) (A) (A) (A) (A) (A) (A) (A)
                 (A) (A) (A) (A) (A) (A) (A) (A) (A) (A) (A) (A)
                 (A) (A) (A) (A) (A) (A) (A) (A) (A) (A) (A) (A)
                 (A) (A) (A) (A) (A) (A) (A) (A) (A) (A) (A) (A)
                 (A) (A) (A) (A) (A) (A) (A) (A) (A) (A) (A) (A)
                 (A) (A) (A) (A) (A) (A) (A) (A) (A) (A) (A) (A)
                 (A) (A) (A) (A) (A) (A) (A) (A) (A) (A) (A) (A)
                 (A) (A) (A) (A) (A) (A) (A) (A) (A) (A) (A) (A)
                 (A) (A) (A) (A) (A) (A) (A) (A) (A) (A) (A) (A)
                 (A) (A) (A) (A) (A) (A) (A) (A) (A) (A) (A) (A)
                 (A) (A) (A) (A) (A) (A) (A) (A) (A) (A) (A) (A)
                 (A) (A) (A) (A) (A) (A) (A) (A) (A) (A) (A) (A)
                 (A) (A) (A) (A) (A) (A) (A) (A) (A) (A) (A) (A)
                 (A) (A) (A) (A) (A) (A) (A) (A) (A) (A) (A) (A)
                 (A) (A) (A) (A) (A) (A) (A) (A) (A) (A) (A) (A)
                 (A) (A) (A) (A) (A) (A) (A) (A) (A) (A) (A) (A)
                 (A) (A) (A) (A) (A) (A) (A) (A) (A) (A) (A) (A)
                 (A) (A) (A) (A) (A) (A) (A) (A) (A) (A) (A) (A)
                 (A) (A) (A) (A) (A) (A) (A) (A) (A) (A) (A) (A)
                 (A) (A) (A) (A) (A) (A) (A) (A) (A) (A) (A) (A)
                 (A) (A) (A) (A) (A) (A) (A) (A) (A) (A) (A) (A)
                 (A) (A) (A) (A) (A) (A) (A) (A) (A) (A) (A) (A)
                 (A) (A) (A) (A) (A) (A) (A) (A) (A) (A) (A) (A)
                 (A) (A) (A) (A) (A) (A) (A) (A) (A) (A) (A) (A)
                 (A) (A) (A) (A) (A) (A) (A) (A) (A) (A) (A) (A)
                 (A) (A) (A) (A) (A) (A)
 The electronic state is 1-A.
 Alpha  occ. eigenvalues --  -14.38184 -14.38173 -14.37916 -14.37886 -14.37864
 Alpha  occ. eigenvalues --  -14.37797 -14.37397 -14.37318 -14.37304 -14.35604
 Alpha  occ. eigenvalues --  -14.35508 -14.35305 -10.26982 -10.26974 -10.26961
 Alpha  occ. eigenvalues --  -10.26864 -10.26858 -10.26742 -10.26692 -10.26642
 Alpha  occ. eigenvalues --  -10.26523 -10.26393 -10.26315 -10.26020 -10.25949
 Alpha  occ. eigenvalues --  -10.25917 -10.25729 -10.24782 -10.24732 -10.24715
 Alpha  occ. eigenvalues --  -10.24694 -10.24658 -10.24519 -10.24374 -10.24371
 Alpha  occ. eigenvalues --  -10.24356 -10.24275 -10.24258 -10.24229 -10.24223
 Alpha  occ. eigenvalues --  -10.24198 -10.24177 -10.24171 -10.24167 -10.24110
 Alpha  occ. eigenvalues --  -10.24092 -10.24033 -10.23813 -10.23675 -10.23352
 Alpha  occ. eigenvalues --  -10.23234 -10.20765 -10.20690 -10.20606 -10.20586
 Alpha  occ. eigenvalues --  -10.20536 -10.20517 -10.20486 -10.20472 -10.20378
 Alpha  occ. eigenvalues --  -10.20298 -10.20230 -10.20111  -0.98248  -0.97595
 Alpha  occ. eigenvalues --   -0.97525  -0.96909  -0.96726  -0.96673  -0.95440
 Alpha  occ. eigenvalues --   -0.95218  -0.94778  -0.91856  -0.91803  -0.91643
 Alpha  occ. eigenvalues --   -0.90275  -0.89826  -0.89695  -0.83829  -0.83549
 Alpha  occ. eigenvalues --   -0.82929  -0.81313  -0.80980  -0.80795  -0.79649
 Alpha  occ. eigenvalues --   -0.78886  -0.78512  -0.78151  -0.77970  -0.77924
 Alpha  occ. eigenvalues --   -0.73122  -0.72896  -0.72359  -0.72191  -0.72156
 Alpha  occ. eigenvalues --   -0.71826  -0.71365  -0.71302  -0.71102  -0.71028
 Alpha  occ. eigenvalues --   -0.71022  -0.70909  -0.68212  -0.67954  -0.67631
 Alpha  occ. eigenvalues --   -0.66463  -0.66012  -0.65986  -0.64514  -0.63159
 Alpha  occ. eigenvalues --   -0.62635  -0.60350  -0.59914  -0.59100  -0.57469
 Alpha  occ. eigenvalues --   -0.57240  -0.56899  -0.56781  -0.56772  -0.56398
 Alpha  occ. eigenvalues --   -0.56018  -0.54784  -0.54447  -0.54106  -0.53094
 Alpha  occ. eigenvalues --   -0.52885  -0.52504  -0.52278  -0.51413  -0.50969
 Alpha  occ. eigenvalues --   -0.50755  -0.50577  -0.50414  -0.50185  -0.50061
 Alpha  occ. eigenvalues --   -0.49872  -0.49458  -0.49400  -0.49245  -0.49002
 Alpha  occ. eigenvalues --   -0.48702  -0.48086  -0.47984  -0.47926  -0.47514
 Alpha  occ. eigenvalues --   -0.47438  -0.47264  -0.47111  -0.46745  -0.46429
 Alpha  occ. eigenvalues --   -0.46037  -0.45616  -0.45322  -0.45208  -0.45174
 Alpha  occ. eigenvalues --   -0.44838  -0.44631  -0.44491  -0.44200  -0.43600
 Alpha  occ. eigenvalues --   -0.43121  -0.42638  -0.42375  -0.42204  -0.42035
 Alpha  occ. eigenvalues --   -0.41865  -0.41570  -0.41412  -0.40923  -0.40597
 Alpha  occ. eigenvalues --   -0.40488  -0.39775  -0.39674  -0.39477  -0.39374
 Alpha  occ. eigenvalues --   -0.39268  -0.39188  -0.39091  -0.39042  -0.38984
 Alpha  occ. eigenvalues --   -0.38966  -0.38772  -0.38630  -0.38598  -0.38391
 Alpha  occ. eigenvalues --   -0.38317  -0.38151  -0.37844  -0.37661  -0.37306
 Alpha  occ. eigenvalues --   -0.37198  -0.37043  -0.36977  -0.36912  -0.36865
 Alpha  occ. eigenvalues --   -0.36693  -0.36630  -0.36425  -0.35983  -0.35670
 Alpha  occ. eigenvalues --   -0.35510  -0.34925  -0.34906  -0.34660  -0.34477
 Alpha  occ. eigenvalues --   -0.34447  -0.33903  -0.33831  -0.33751  -0.33648
 Alpha  occ. eigenvalues --   -0.31191  -0.30659  -0.30249  -0.28207  -0.27490
 Alpha  occ. eigenvalues --   -0.27329  -0.27276  -0.27140  -0.27016  -0.26813
 Alpha  occ. eigenvalues --   -0.26675  -0.26392  -0.26270  -0.26201  -0.26084
 Alpha  occ. eigenvalues --   -0.25884  -0.25561  -0.25063  -0.24892  -0.24713
 Alpha  occ. eigenvalues --   -0.24605
 Alpha virt. eigenvalues --   -0.06903  -0.06667  -0.06450  -0.06243  -0.05232
 Alpha virt. eigenvalues --   -0.05099  -0.02645  -0.02097  -0.01719   0.03377
 Alpha virt. eigenvalues --    0.03905   0.04154   0.04299   0.04483   0.04868
 Alpha virt. eigenvalues --    0.05131   0.05141   0.05311   0.05653   0.05766
 Alpha virt. eigenvalues --    0.05904   0.06032   0.06505   0.06762   0.06927
 Alpha virt. eigenvalues --    0.07013   0.07293   0.07514   0.07824   0.08248
 Alpha virt. eigenvalues --    0.08291   0.08420   0.08504   0.08830   0.08993
 Alpha virt. eigenvalues --    0.09237   0.09353   0.09528   0.09542   0.09728
 Alpha virt. eigenvalues --    0.09748   0.09935   0.10069   0.10298   0.10482
 Alpha virt. eigenvalues --    0.10514   0.10883   0.10967   0.11203   0.11254
 Alpha virt. eigenvalues --    0.11465   0.11563   0.11714   0.11896   0.12102
 Alpha virt. eigenvalues --    0.12159   0.12233   0.12348   0.12653   0.12814
 Alpha virt. eigenvalues --    0.13160   0.13305   0.13327   0.13581   0.13709
 Alpha virt. eigenvalues --    0.13992   0.14054   0.14187   0.14453   0.14646
 Alpha virt. eigenvalues --    0.14693   0.14819   0.15118   0.15166   0.15301
 Alpha virt. eigenvalues --    0.15354   0.15537   0.15708   0.15786   0.15915
 Alpha virt. eigenvalues --    0.15975   0.16109   0.16178   0.16301   0.16347
 Alpha virt. eigenvalues --    0.16501   0.16528   0.16592   0.16767   0.16946
 Alpha virt. eigenvalues --    0.17007   0.17041   0.17179   0.17353   0.17449
 Alpha virt. eigenvalues --    0.17583   0.17625   0.17738   0.17753   0.17978
 Alpha virt. eigenvalues --    0.18138   0.18361   0.18547   0.18657   0.18863
 Alpha virt. eigenvalues --    0.19083   0.19242   0.19492   0.19724   0.19817
 Alpha virt. eigenvalues --    0.19849   0.19999   0.20189   0.20372   0.20605
 Alpha virt. eigenvalues --    0.20702   0.20916   0.21095   0.21191   0.21200
 Alpha virt. eigenvalues --    0.21297   0.21638   0.21857   0.22048   0.22333
 Alpha virt. eigenvalues --    0.22497   0.22882   0.23048   0.23207   0.23267
 Alpha virt. eigenvalues --    0.23406   0.23463   0.23642   0.23759   0.23954
 Alpha virt. eigenvalues --    0.24271   0.24419   0.24458   0.24546   0.24912
 Alpha virt. eigenvalues --    0.25243   0.25295   0.25531   0.25697   0.25843
 Alpha virt. eigenvalues --    0.26006   0.26131   0.26301   0.26769   0.26845
 Alpha virt. eigenvalues --    0.26905   0.27062   0.27116   0.27388   0.27659
 Alpha virt. eigenvalues --    0.27835   0.28073   0.28144   0.28369   0.28508
 Alpha virt. eigenvalues --    0.28678   0.28898   0.28976   0.29118   0.29348
 Alpha virt. eigenvalues --    0.29453   0.29608   0.29750   0.29909   0.30186
 Alpha virt. eigenvalues --    0.30431   0.30629   0.30717   0.30851   0.31054
 Alpha virt. eigenvalues --    0.31147   0.31207   0.31501   0.31577   0.31887
 Alpha virt. eigenvalues --    0.31939   0.31976   0.32075   0.32160   0.32280
 Alpha virt. eigenvalues --    0.32420   0.32851   0.32904   0.33100   0.33167
 Alpha virt. eigenvalues --    0.33431   0.33450   0.33576   0.33737   0.33770
 Alpha virt. eigenvalues --    0.34128   0.34261   0.34380   0.34521   0.34606
 Alpha virt. eigenvalues --    0.34764   0.34912   0.35048   0.35128   0.35392
 Alpha virt. eigenvalues --    0.35469   0.35629   0.35854   0.36102   0.36545
 Alpha virt. eigenvalues --    0.36643   0.36923   0.36958   0.37150   0.37306
 Alpha virt. eigenvalues --    0.37432   0.37572   0.37798   0.38048   0.38121
 Alpha virt. eigenvalues --    0.38262   0.38318   0.38446   0.38594   0.38706
 Alpha virt. eigenvalues --    0.38922   0.39171   0.39281   0.39500   0.39632
 Alpha virt. eigenvalues --    0.39750   0.40031   0.40420   0.40656   0.40703
 Alpha virt. eigenvalues --    0.40817   0.40952   0.40994   0.41136   0.41397
 Alpha virt. eigenvalues --    0.41556   0.41746   0.41825   0.41919   0.42063
 Alpha virt. eigenvalues --    0.42348   0.42553   0.42678   0.42733   0.42919
 Alpha virt. eigenvalues --    0.42970   0.43051   0.43317   0.43431   0.43637
 Alpha virt. eigenvalues --    0.43857   0.43936   0.44000   0.44114   0.44283
 Alpha virt. eigenvalues --    0.44533   0.44621   0.44723   0.44858   0.44912
 Alpha virt. eigenvalues --    0.44973   0.45219   0.45375   0.45565   0.45655
 Alpha virt. eigenvalues --    0.45826   0.45919   0.46145   0.46280   0.46331
 Alpha virt. eigenvalues --    0.46353   0.46408   0.46498   0.46574   0.46668
 Alpha virt. eigenvalues --    0.46873   0.46893   0.46918   0.46966   0.47149
 Alpha virt. eigenvalues --    0.47344   0.47419   0.47499   0.47650   0.47669
 Alpha virt. eigenvalues --    0.47721   0.47853   0.48034   0.48187   0.48238
 Alpha virt. eigenvalues --    0.48353   0.48475   0.48554   0.48707   0.48760
 Alpha virt. eigenvalues --    0.48810   0.48920   0.49053   0.49150   0.49220
 Alpha virt. eigenvalues --    0.49382   0.49552   0.49705   0.49842   0.49886
 Alpha virt. eigenvalues --    0.50053   0.50144   0.50395   0.50724   0.50870
 Alpha virt. eigenvalues --    0.51150   0.51222   0.51398   0.51570   0.51715
 Alpha virt. eigenvalues --    0.52083   0.52415   0.52541   0.52578   0.52699
 Alpha virt. eigenvalues --    0.52814   0.52997   0.53135   0.53356   0.53413
 Alpha virt. eigenvalues --    0.53519   0.53574   0.53703   0.53775   0.53866
 Alpha virt. eigenvalues --    0.54115   0.54382   0.54593   0.54749   0.54854
 Alpha virt. eigenvalues --    0.55022   0.55098   0.55348   0.55613   0.55873
 Alpha virt. eigenvalues --    0.56177   0.56371   0.56536   0.56694   0.56737
 Alpha virt. eigenvalues --    0.57024   0.57208   0.57381   0.57390   0.57507
 Alpha virt. eigenvalues --    0.57851   0.58135   0.58262   0.58396   0.58646
 Alpha virt. eigenvalues --    0.58769   0.58940   0.59106   0.59287   0.59399
 Alpha virt. eigenvalues --    0.59475   0.59547   0.59850   0.60192   0.60343
 Alpha virt. eigenvalues --    0.60648   0.60841   0.61008   0.61408   0.61418
 Alpha virt. eigenvalues --    0.61736   0.62141   0.62153   0.62262   0.62514
 Alpha virt. eigenvalues --    0.62778   0.62950   0.63064   0.63219   0.63469
 Alpha virt. eigenvalues --    0.63664   0.63882   0.63993   0.64308   0.64654
 Alpha virt. eigenvalues --    0.64830   0.64984   0.65212   0.65326   0.65732
 Alpha virt. eigenvalues --    0.65833   0.66083   0.66318   0.66511   0.66753
 Alpha virt. eigenvalues --    0.67017   0.67246   0.67275   0.67569   0.67888
 Alpha virt. eigenvalues --    0.68081   0.68322   0.68397   0.68743   0.69040
 Alpha virt. eigenvalues --    0.69127   0.69336   0.69546   0.69693   0.69799
 Alpha virt. eigenvalues --    0.69922   0.70036   0.70611   0.70744   0.71028
 Alpha virt. eigenvalues --    0.71304   0.71736   0.71814   0.71899   0.72319
 Alpha virt. eigenvalues --    0.72604   0.72875   0.73010   0.73125   0.73289
 Alpha virt. eigenvalues --    0.73429   0.73578   0.73788   0.73853   0.74102
 Alpha virt. eigenvalues --    0.74133   0.74394   0.74551   0.74619   0.74981
 Alpha virt. eigenvalues --    0.75040   0.75389   0.75599   0.75698   0.75876
 Alpha virt. eigenvalues --    0.76244   0.76317   0.76409   0.76659   0.76692
 Alpha virt. eigenvalues --    0.76947   0.77200   0.77321   0.77594   0.77942
 Alpha virt. eigenvalues --    0.78170   0.78341   0.78414   0.78671   0.78957
 Alpha virt. eigenvalues --    0.79176   0.79286   0.79402   0.79832   0.80198
[...]
 Alpha virt. eigenvalues --    3.77371   3.77936   3.78232   3.78477   3.78909
 Alpha virt. eigenvalues --    3.79470   3.79705   3.80110   3.80612   3.80665
 Alpha virt. eigenvalues --    3.81201   3.81468   3.81619   3.81929   3.82299
 Alpha virt. eigenvalues --    3.82838   3.83369   3.83489   3.83660   3.83869
 Alpha virt. eigenvalues --    3.84407   3.84728   3.84925   3.85554   3.85652
 Alpha virt. eigenvalues --    3.85912   3.85953   3.86441   3.86694   3.87484
 Alpha virt. eigenvalues --    3.87824   3.88069   3.88643   3.88941   3.89294
 Alpha virt. eigenvalues --    3.89799   3.89880   3.90726   3.91039   3.91470
 Alpha virt. eigenvalues --    3.91833   3.92643   3.92945   3.93649   3.93973
 Alpha virt. eigenvalues --    3.94589   3.94917   3.95410   3.95512   3.95930
 Alpha virt. eigenvalues --    3.96213   3.97039   3.97610   3.97887   3.98167
 Alpha virt. eigenvalues --    3.98687   3.99244   4.00258   4.00713   4.01089
 Alpha virt. eigenvalues --    4.01201   4.01425   4.01882   4.02388   4.02817
 Alpha virt. eigenvalues --    4.03118   4.03639   4.03929   4.04414   4.05020
 Alpha virt. eigenvalues --    4.05361   4.05566   4.05698   4.05927   4.06341
 Alpha virt. eigenvalues --    4.06410   4.06901   4.07553   4.07709   4.08116
 Alpha virt. eigenvalues --    4.08506   4.08846   4.09041   4.09338   4.09529
 Alpha virt. eigenvalues --    4.10321   4.10509   4.10645   4.11053   4.11467
 Alpha virt. eigenvalues --    4.11645   4.11685   4.12125   4.12277   4.12520
 Alpha virt. eigenvalues --    4.12875   4.13001   4.13564   4.13830   4.13879
 Alpha virt. eigenvalues --    4.14167   4.14384   4.14494   4.14934   4.15181
 Alpha virt. eigenvalues --    4.15497   4.15611   4.15793   4.16173   4.16429
 Alpha virt. eigenvalues --    4.16618   4.16765   4.17150   4.17391   4.17508
 Alpha virt. eigenvalues --    4.17849   4.18068   4.18635   4.18870   4.19027
 Alpha virt. eigenvalues --    4.19278   4.20008   4.20622   4.20725   4.20983
 Alpha virt. eigenvalues --    4.21261   4.21490   4.21684   4.22020   4.22359
 Alpha virt. eigenvalues --    4.22658   4.22880   4.23346   4.23395   4.24008
 Alpha virt. eigenvalues --    4.24094   4.24442   4.24776   4.24970   4.25129
 Alpha virt. eigenvalues --    4.25890   4.26031   4.26285   4.26493   4.26602
 Alpha virt. eigenvalues --    4.26839   4.26941   4.27429   4.27844   4.28181
 Alpha virt. eigenvalues --    4.28212   4.28604   4.28890   4.29269   4.29604
 Alpha virt. eigenvalues --    4.30343   4.31137   4.31430   4.31650   4.31769
 Alpha virt. eigenvalues --    4.32413   4.32742   4.33327   4.33480   4.34041
 Alpha virt. eigenvalues --    4.34695   4.34856   4.35630   4.35781   4.35997
 Alpha virt. eigenvalues --    4.36320   4.36541   4.37312   4.38417   4.38789
 Alpha virt. eigenvalues --    4.39055   4.40008   4.40692   4.41117   4.41535
 Alpha virt. eigenvalues --    4.42185   4.42540   4.42692   4.42892   4.43204
 Alpha virt. eigenvalues --    4.43797   4.43985   4.44425   4.45356   4.46059
 Alpha virt. eigenvalues --    4.46630   4.47055   4.47079   4.47141   4.47274
 Alpha virt. eigenvalues --    4.47636   4.47983   4.48515   4.48964   4.49226
 Alpha virt. eigenvalues --    4.49586   4.50036   4.50228   4.50563   4.50942
 Alpha virt. eigenvalues --    4.51428   4.51984   4.52007   4.52630   4.53143
 Alpha virt. eigenvalues --    4.53905   4.54319   4.54811   4.55382   4.55590
 Alpha virt. eigenvalues --    4.55658   4.56475   4.56673   4.56958   4.58283
 Alpha virt. eigenvalues --    4.59130   4.59581   4.59901   4.60121   4.60708
 Alpha virt. eigenvalues --    4.61295   4.61527   4.62192   4.62377   4.62775
 Alpha virt. eigenvalues --    4.63106   4.63723   4.63987   4.64414   4.65820
 Alpha virt. eigenvalues --    4.66638   4.67279   4.67357   4.68250   4.69409
 Alpha virt. eigenvalues --    4.69946   4.70902   4.71642   4.71728   4.72244
 Alpha virt. eigenvalues --    4.72861   4.73862   4.74561   4.75497   4.75877
 Alpha virt. eigenvalues --    4.75999   4.76235   4.76759   4.77153   4.77865
 Alpha virt. eigenvalues --    4.78001   4.78508   4.78692   4.79134   4.80024
 Alpha virt. eigenvalues --    4.80473   4.81579   4.82872   4.83058   4.83123
 Alpha virt. eigenvalues --    4.83654   4.84004   4.84865   4.85004   4.85399
 Alpha virt. eigenvalues --    4.85633   4.87188   4.87802   4.88129   4.88304
 Alpha virt. eigenvalues --    4.88718   4.89239   4.89513   4.89948   4.90129
 Alpha virt. eigenvalues --    4.90596   4.91202   4.91331   4.91807   4.92154
 Alpha virt. eigenvalues --    4.92497   4.92637   4.93027   4.93460   4.93601
 Alpha virt. eigenvalues --    4.94235   4.94979   4.95055   4.95399   4.96073
 Alpha virt. eigenvalues --    4.96390   4.96709   4.97663   4.97819   4.98246
 Alpha virt. eigenvalues --    4.98357   4.99047   4.99504   4.99585   5.00607
 Alpha virt. eigenvalues --    5.01765   5.02519   5.02699   5.03049   5.03187
 Alpha virt. eigenvalues --    5.03997   5.04288   5.05881   5.06963   5.07464
 Alpha virt. eigenvalues --    5.08409   5.09074   5.09305   5.09428   5.10287
 Alpha virt. eigenvalues --    5.10517   5.10974   5.11521   5.12653   5.13681
 Alpha virt. eigenvalues --    5.14011   5.15055   5.16031   5.16802   5.18600
 Alpha virt. eigenvalues --    5.19014   5.19664   5.19945   5.20295   5.22710
 Alpha virt. eigenvalues --    5.23037   5.23221   5.23650   5.24313   5.24587
 Alpha virt. eigenvalues --    5.25533   5.26230   5.26871   5.27293   5.27787
 Alpha virt. eigenvalues --    5.28455   5.29352   5.29488   5.29722   5.31060
 Alpha virt. eigenvalues --    5.31412   5.31924   5.32550   5.32777   5.33465
 Alpha virt. eigenvalues --    5.33544   5.34498   5.34899   5.35409   5.36077
 Alpha virt. eigenvalues --    5.36196   5.36301   5.37012   5.37675   5.38149
 Alpha virt. eigenvalues --    5.38675   5.38844   5.39425   5.39787   5.40290
 Alpha virt. eigenvalues --    5.40829   5.41165   5.41282   5.41782   5.42250
 Alpha virt. eigenvalues --    5.43231   5.43515   5.44865   5.45270   5.45445
 Alpha virt. eigenvalues --    5.46263   5.46526   5.46969   5.47427   5.47689
 Alpha virt. eigenvalues --    5.48421   5.49908   5.51056   5.52366   5.53152
 Alpha virt. eigenvalues --    5.53834   5.56562   5.56684   5.59283   5.60290
 Alpha virt. eigenvalues --    5.61250   5.61729   5.62086   5.62834   5.63609
 Alpha virt. eigenvalues --    5.65319   5.65378   5.69960   5.70324   5.70772
 Alpha virt. eigenvalues --    5.71128   5.72255   5.73567   5.75134   5.75585
 Alpha virt. eigenvalues --    5.76505   5.77083   5.78104   5.78876   5.79422
 Alpha virt. eigenvalues --    5.79689   5.82092   5.83572   5.84144   5.85356
 Alpha virt. eigenvalues --    5.91511   5.91711   5.92444   5.93215   5.93439
 Alpha virt. eigenvalues --    5.94315   5.95375   5.95744   5.96696   5.98771
 Alpha virt. eigenvalues --    5.99570   5.99856   6.00438   6.01307   6.04604
 Alpha virt. eigenvalues --    6.07794   6.08270   6.08942   6.13555   6.15295
 Alpha virt. eigenvalues --    6.15890  22.46291  22.46770  22.51455  22.51612
 Alpha virt. eigenvalues --   22.51769  22.52171  22.52257  22.53043  22.53853
 Alpha virt. eigenvalues --   22.53960  22.56831  22.57719  22.58007  22.58353
 Alpha virt. eigenvalues --   22.59689  22.70050  22.70313  22.70946  22.72619
 Alpha virt. eigenvalues --   22.72815  22.75485  22.80188  22.80373  22.81921
 Alpha virt. eigenvalues --   22.85686  22.87624  22.90354  22.90448  22.91198
 Alpha virt. eigenvalues --   22.91576  22.92979  22.94439  22.95450  23.02598
 Alpha virt. eigenvalues --   23.06328  23.08240  23.11657  23.13532  23.14855
 Alpha virt. eigenvalues --   23.15530  23.16094  23.16493  23.17248  23.18556
 Alpha virt. eigenvalues --   23.20193  23.20617  23.22692  23.28547  23.51759
 Alpha virt. eigenvalues --   23.53216  23.53656  32.22180  32.22905  32.27506
 Alpha virt. eigenvalues --   32.71998  32.75808  32.76108  32.77692  32.79052
 Alpha virt. eigenvalues --   32.82903  32.94236  32.95693  32.97541
          Condensed to atoms (all electrons):
 Mulliken charges:
               1
     1  C    0.365894
     2  C   -0.185093
     3  C   -0.385886
     4  C    0.373898
     5  H    0.123154
     6  C   -0.339300
     7  C    0.306381
     8  H    0.170449
     9  C   -0.325758
    10  C   -0.188573
    11  H    0.132930
    12  C   -0.169991
    13  H    0.088431
    14  H    0.086178
    15  H    0.119798
    16  C    0.363615
    17  C   -0.181440
    18  C   -0.352306
    19  C    0.349370
    20  H    0.133982
    21  C   -0.342520
    22  C    0.375663
    23  H    0.145481
    24  C   -0.357691
    25  C   -0.229475
    26  H    0.128755
    27  C   -0.149462
    28  H    0.111223
    29  H    0.089969
    30  H    0.102802
    31  C    0.344022
    32  C   -0.197476
    33  C   -0.392413
    34  C    0.410110
    35  H    0.126753
    36  C   -0.389407
    37  C    0.353752
    38  H    0.117619
    39  C   -0.291900
    40  C   -0.181165
    41  H    0.129647
    42  C   -0.179869
    43  H    0.103952
    44  H    0.090513
    45  H    0.100409
    46  C    0.154948
    47  C   -0.133091
    48  N   -0.550230
    49  N   -0.186794
    50  C    0.155036
    51  C   -0.136543
    52  N   -0.549671
    53  N   -0.191651
    54  C    0.146415
    55  C   -0.124924
    56  N   -0.535862
    57  C   -0.403627
    58  N   -0.193833
    59  C    0.204230
    60  C   -0.177729
    61  N   -0.196966
    62  N   -0.195057
    63  C   -0.400915
    64  C   -0.126101
    65  C    0.183229
    66  N   -0.188006
    67  N   -0.189395
    68  C   -0.364184
    69  C   -0.090782
    70  C    0.147877
    71  N   -0.218549
    72  N   -0.198820
    73  C   -0.362520
    74  H    0.230354
    75  H    0.221531
    76  H    0.223364
    77  H    0.233772
    78  H    0.223953
    79  H    0.231639
    80  H    0.142596
    81  H    0.128963
    82  H    0.121851
    83  H    0.083977
    84  H    0.123381
    85  H    0.084434
    86  H    0.123886
    87  C   -0.386873
    88  H    0.119805
    89  H    0.126976
    90  H    0.133158
    91  H    0.137471
    92  H    0.112343
    93  C   -0.365698
    94  H    0.126884
    95  H    0.131589
    96  H    0.124300
    97  H    0.123958
    98  H    0.136010
    99  H    0.138528
   100  C   -0.372188
   101  C   -0.386972
   102  H    0.090456
   103  H    0.125159
   104  C   -0.429975
   105  H    0.140353
   106  H    0.136017
   107  H    0.143684
   108  H    0.128403
   109  H    0.121737
   110  H    0.128670
   111  H    0.122866
   112  H    0.128271
   113  H    0.127723
   114  C   -0.423058
   115  H    0.135459
   116  H    0.142005
   117  H    0.135131
   118  H    0.098851
   119  H    0.125754
   120  H    0.126075
   121  H    0.118454
   122  H    0.133597
   123  H    0.123368
   124  H    0.081681
   125  C   -0.372381
   126  C   -0.372961
   127  H    0.125287
   128  H    0.121939
   129  H    0.128288
   130  H    0.122349
   131  H    0.127315
   132  H    0.127706
   133  H    0.122840
   134  H    0.125560
   135  H    0.128879
 Sum of Mulliken charges =   0.00000
 Mulliken charges with hydrogens summed into heavy atoms:
               1
     1  C    0.365894
     2  C   -0.098915
     3  C   -0.262732
     4  C    0.373898
     6  C   -0.168851
     7  C    0.306381
     9  C   -0.192828
    10  C   -0.100143
    12  C   -0.050192
    16  C    0.363615
    17  C   -0.091471
    18  C   -0.218325
    19  C    0.349370
    21  C   -0.197038
    22  C    0.375663
    24  C   -0.228936
    25  C   -0.118251
    27  C   -0.046660
    31  C    0.344022
    32  C   -0.106963
    33  C   -0.265660
    34  C    0.410110
    36  C   -0.271788
    37  C    0.353752
    39  C   -0.162254
    40  C   -0.077213
    42  C   -0.079460
    46  C    0.154948
    47  C    0.071958
    48  N   -0.093093
    49  N   -0.186794
    50  C    0.155036
    51  C    0.071777
    52  N   -0.094079
    53  N   -0.191651
    54  C    0.146415
    55  C    0.082433
    56  N   -0.083977
    57  C   -0.010217
    58  N   -0.193833
    59  C    0.204230
    60  C    0.072084
    61  N   -0.196966
    62  N   -0.195057
    63  C   -0.002419
    64  C    0.089515
    65  C    0.183229
    66  N   -0.188006
    67  N   -0.189395
    68  C    0.014626
    69  C    0.133823
    70  C    0.147877
    71  N   -0.218549
    72  N   -0.198820
    73  C    0.016339
    87  C   -0.006934
    93  C    0.017076
   100  C    0.003325
   101  C   -0.008846
   104  C   -0.009922
   114  C   -0.010464
   125  C    0.004898
   126  C    0.004410
 Electronic spatial extent (au):  <R**2>=          65473.6123
 Charge=              0.0000 electrons
 Dipole moment (field-independent basis, Debye):
    X=             -1.0041    Y=              4.2365    Z=              1.2483  Tot=              4.5293
 Quadrupole moment (field-independent basis, Debye-Ang):
   XX=           -318.3736   YY=           -409.0694   ZZ=           -373.9097
   XY=             15.9661   XZ=             -3.2268   YZ=            -13.5899
 Traceless Quadrupole moment (field-independent basis, Debye-Ang):
   XX=             48.7439   YY=            -41.9518   ZZ=             -6.7921
   XY=             15.9661   XZ=             -3.2268   YZ=            -13.5899
 Octapole moment (field-independent basis, Debye-Ang**2):
  XXX=            155.1086  YYY=            163.2511  ZZZ=             34.5407  XYY=             94.6764
  XXY=            149.7544  XXZ=            -25.8654  XZZ=            -78.0522  YZZ=             79.1894
  YYZ=             67.3767  XYZ=              4.1907
 Hexadecapole moment (field-independent basis, Debye-Ang**3):
 XXXX=         -42908.3788 YYYY=         -28468.8824 ZZZZ=         -14525.0943 XXXY=            142.9901
 XXXZ=           -288.7912 YYYX=            -31.1528 YYYZ=           -719.3088 ZZZX=             -9.7205
 ZZZY=            -26.9559 XXYY=         -12879.0051 XXZZ=         -10287.3910 YYZZ=          -7086.5832
 XXYZ=           -494.4842 YYXZ=            281.0674 ZZXY=            131.2311
 N-N= 9.296161201870D+03 E-N=-2.473316988352D+04  KE= 2.629426798864D+03
 Leave Link  601 at Mon Oct 18 19:38:10 2021, MaxMem=  7864320000 cpu:              83.0 elap:               3.1
 (Enter /apps/gaussian/g16-c01-avx/g16/l9999.exe)
 Unable to Open any file for archive entry.
 1\1\GINC-CX3-5-0\SP\RPBE1PBE\def2TZVP\C51H72N12\ROOT\18-Oct-2021\0\\#P
  PBE1PBE/Def2TZVP SP SCF=(YQC,MaxCycle=900) int=(Grid=Superfinegrid) E
 mpiricalDispersion=GD3 SCRF=(PCM,Solvent=Dichloromethane)\\_3_alde1_6_
 ami2_2_opt_dcm\\0,1\C,0,-5.5631,-0.5077,2.1037\C,0,-6.616,-1.2385,2.79
 39\C,0,-4.5745,-1.1862,1.3966\C,0,-3.5588,-0.4897,0.746\H,0,-4.5967,-2
 .2622,1.3449\C,0,-3.538,0.8986,0.8094\C,0,-4.5304,1.5941,1.4994\H,0,-2
 .7624,1.469,0.3202\C,0,-5.5388,0.8857,2.1445\C,0,-4.5126,3.05,1.5157\H
 ,0,-6.3099,1.4207,2.6828\C,0,-2.5395,-1.1962,-0.0242\H,0,-5.3795,3.547
 3,1.9813\H,0,-7.3487,-0.6258,3.3445\H,0,-1.7527,-0.5698,-0.4561\C,0,4.
 7997,-0.9326,-0.0913\C,0,6.1807,-1.3731,-0.2227\C,0,4.4873,0.1505,0.72
 14\C,0,3.166,0.5739,0.868\H,0,5.257,0.6822,1.2602\C,0,2.1534,-0.0936,0
 .1879\C,0,2.4504,-1.189,-0.6246\H,0,1.1243,0.2184,0.2826\C,0,3.7726,-1
 .5984,-0.76\C,0,1.4044,-1.9351,-1.3061\H,0,4.0288,-2.4413,-1.3839\C,0,
 2.8585,1.7249,1.7048\H,0,1.748,-2.8292,-1.8507\H,0,6.9262,-0.7864,0.33
 65\H,0,1.7946,1.9899,1.7858\C,0,1.2267,2.2052,-2.9724\C,0,1.5662,1.383
 2,-4.1236\C,0,-0.0762,2.6652,-2.7803\C,0,-0.3737,3.5366,-1.7379\H,0,-0
 .8387,2.3483,-3.4759\C,0,0.6395,3.929,-0.8673\C,0,1.9374,3.4553,-1.026
 8\H,0,0.4142,4.6054,-0.0596\C,0,2.225,2.5949,-2.0835\C,0,2.9842,3.8237
 ,-0.0812\H,0,3.2344,2.2284,-2.2174\C,0,-1.7315,4.0451,-1.5539\H,0,3.97
 88,3.4195,-0.3097\H,0,2.6364,1.1476,-4.2413\H,0,-2.5073,3.5256,-2.13\C
 ,0,-7.0326,-4.1826,4.4866\C,0,-7.6908,-3.1994,3.4729\N,0,-6.0641,-5.05
 43,3.8464\N,0,-6.6796,-2.4974,2.7611\C,0,7.965,-4.2534,-0.4263\C,0,7.8
 491,-2.8086,-0.9998\N,0,7.0341,-5.1683,-1.0623\N,0,6.4977,-2.3686,-0.9
 303\C,0,0.5526,-1.2091,-5.9967\C,0,1.0765,0.2542,-6.109\N,0,-0.842,-1.
 2654,-5.5933\C,0,1.3788,-1.957,-4.9497\N,0,0.6999,1.0134,-4.9637\C,0,-
 1.6643,-3.2157,-0.9276\C,0,-0.7791,-2.4152,-1.9271\N,0,-2.6048,-2.4454
 ,-0.1722\N,0,0.1881,-1.5953,-1.2785\C,0,-0.7862,-3.9691,0.0803\C,0,-3.
 5205,5.1036,0.9697\C,0,-3.2271,5.568,-0.4823\N,0,-3.5479,3.6844,1.0122
 \N,0,-1.9363,5.0229,-0.7889\C,0,-3.073,7.0929,-0.4957\C,0,3.4431,3.574
 7,2.9732\C,0,3.6548,4.7718,1.9829\N,0,3.7704,2.3645,2.3067\N,0,2.7202,
 4.5415,0.924\C,0,3.2351,6.069,2.6778\H,0,-0.9535,-0.7703,-4.7144\H,0,-
 1.4223,-0.7954,-6.2802\H,0,-6.5139,-5.612,3.128\H,0,-5.3534,-4.4898,3.
 3927\H,0,7.2156,-5.2192,-2.0593\H,0,6.0877,-4.8241,-0.9403\H,0,1.3352,
 -1.4359,-3.9953\H,0,2.4178,-2.0318,-5.2616\H,0,0.9746,-2.9574,-4.8214\
 H,0,2.167,0.2343,-6.269\H,0,0.5975,0.7279,-6.9727\H,0,8.5457,-2.1413,-
 0.4653\H,0,8.1284,-2.8394,-2.0589\C,0,7.6576,-4.2343,1.0723\H,0,8.3803
 ,-3.6213,1.605\H,0,7.6967,-5.248,1.4605\H,0,6.6612,-3.8347,1.2488\H,0,
 -1.4387,-1.7643,-2.5092\H,0,-0.3116,-3.1458,-2.6054\C,0,-2.4952,-4.221
 5,-1.7365\H,0,-3.0649,-3.7057,-2.5057\H,0,-3.1897,-4.7267,-1.0714\H,0,
 -1.8529,-4.9596,-2.2094\H,0,-0.0964,-4.6291,-0.4403\H,0,-1.4163,-4.560
 2,0.7393\H,0,-0.2166,-3.2643,0.6823\C,0,-8.1225,-5.0504,5.1172\C,0,-6.
 304,-3.3843,5.5695\H,0,-4.4531,5.5699,1.3307\H,0,-2.6859,5.434,1.5954\
 C,0,-4.3833,5.1486,-1.3986\H,0,-4.1485,5.3861,-2.4344\H,0,-5.2846,5.68
 69,-1.1152\H,0,-4.5786,4.0818,-1.3118\H,0,-2.2107,7.3797,0.0993\H,0,-3
 .962,7.5728,-0.0942\H,0,-2.9174,7.4377,-1.5151\H,0,3.7799,6.2021,3.608
 8\H,0,2.1693,6.0457,2.8861\H,0,3.439,6.9141,2.025\C,0,5.1312,4.8378,1.
 5761\H,0,5.2547,5.5244,0.7404\H,0,5.4978,3.8551,1.2929\H,0,5.7239,5.19
 54,2.4139\H,0,2.3987,3.6056,3.3161\H,0,4.1228,3.7035,3.8174\H,0,-5.811
 5,-4.0703,6.2526\H,0,-7.0032,-2.7668,6.1281\H,0,-5.5496,-2.7425,5.1196
 \H,0,-8.2518,-3.7919,2.7413\H,0,-8.3917,-2.53,4.0005\C,0,9.3854,-4.767
 6,-0.6638\C,0,0.6897,-1.8924,-7.3578\H,0,-8.6495,-5.6186,4.3535\H,0,-8
 .8424,-4.4365,5.6522\H,0,-7.6671,-5.7497,5.8127\H,0,1.7278,-1.903,-7.6
 798\H,0,0.0981,-1.3732,-8.1089\H,0,0.3303,-2.9151,-7.2846\H,0,10.1124,
 -4.1388,-0.1564\H,0,9.6168,-4.7787,-1.7269\H,0,9.4675,-5.7819,-0.2835\
 \Version=ES64L-G16RevC.01\State=1-A\HF=-2641.6476957\RMSD=1.977e-09\Di
 pole=0.2107505,1.6231532,-0.7044815\Quadrupole=31.7248809,-29.3953965,
 -2.3294844,-8.44964,-13.0242037,15.0186042\PG=C01 [X(C51H72N12)]\\@
 The archive entry for this job was punched.


 NOBODY LOSES ALL THE TIME
 I HAD AN UNCLE NAMED
 SOL WHO WAS A BORN FAILURE AND
 NEARLY EVERYBODY SAID HE SHOULD HAVE GONE
 INTO VAUDEVILLE PERHAPS BECAUSE MY UNCLE SOL COULD
 SING MCCANN HE WAS A DIVER ON XMAS EVE LIKE HELL ITSELF WHICH
 MAY OR MAY NOT ACCOUNT FOR THE FACT THAT MY UNCLE
 SOL INDULGED IN THAT POSSIBLY MOST INEXCUSABLE
 OF ALL TO USE A HIGHFALOOTIN PHRASE
 LUXURIES THAT IS OR TO
 WIT FARMING AND BE
 IT NEEDLESSLY
 ADDED
 MY UNCLE SOL'S FARM     
 FAILED BECAUSE THE CHICKENS
 ATE THE VEGETABLES SO
 MY UNCLE SOL HAD A
 CHICKEN FARM TILL THE
 SKUNKS ATE THE CHICKENS WHEN 
 MY UNCLE SOL
 HAD A SKUNK FARM BUT
 THE SKUNKS CAUGHT COLD AND
 DIED AND SO
 MY UNCLE SOL IMITATED THE
 SKUNKS IN A SUBTLE MANNER
 OR BY DROWNING HIMSELF IN THE WATERTANK
 BUT SOMEBODY WHO'D GIVEN MY UNCLE SOL A VICTOR     
 VICTROLA AND RECORDS WHILE HE LIVED PRESENTED TO
 HIM UPON THE AUSPICIOUS OCCASION OF HIS DECEASE A
 SCRUMPTIOUS NOT TO MENTION SPLENDIFEROUS FUNERAL WITH
 TALL BOYS IN BLACK GLOVES AND FLOWERS AND EVERYTHING AND
 I REMEMBER WE ALL CRIED LIKE THE MISSOURI
 WHEN MY UNCLE SOL'S COFFIN LURCHED BECAUSE     
 SOMEBODY PRESSED A BUTTON
 (AND DOWN WENT
 MY UNCLE
 SOL
 AND STARTED A WORM FARM)
           E. E. CUMMINGS
 Job cpu time:       2 days 16 hours 39 minutes 19.4 seconds.
 Elapsed time:       0 days  2 hours  3 minutes 10.6 seconds.
 File lengths (MBytes):  RWF=   4424 Int=      0 D2E=      0 Chk=    344 Scr=     16
 Normal termination of Gaussian 16 at Mon Oct 18 19:38:10 2021.
