 Entering Gaussian System, Link 0=g16
 Initial command:
 /apps/gaussian/g16-c01-avx/g16/l1.exe "/rds/general/ephemeral/user/atarzia/ephemeral/Gau-3399673.inp" -scrdir="/rds/general/ephemeral/user/atarzia/ephemeral/"
 Entering Link 1 = /apps/gaussian/g16-c01-avx/g16/l1.exe PID=   3399674.
  
 Copyright (c) 1988-2019, Gaussian, Inc.  All Rights Reserved.
  
 This is part of the Gaussian(R) 16 program.  It is based on
 the Gaussian(R) 09 system (copyright 2009, Gaussian, Inc.),
 the Gaussian(R) 03 system (copyright 2003, Gaussian, Inc.),
 the Gaussian(R) 98 system (copyright 1998, Gaussian, Inc.),
 the Gaussian(R) 94 system (copyright 1995, Gaussian, Inc.),
 the Gaussian 92(TM) system (copyright 1992, Gaussian, Inc.),
 the Gaussian 90(TM) system (copyright 1990, Gaussian, Inc.),
 the Gaussian 88(TM) system (copyright 1988, Gaussian, Inc.),
 the Gaussian 86(TM) system (copyright 1986, Carnegie Mellon
 University), and the Gaussian 82(TM) system (copyright 1983,
 Carnegie Mellon University). Gaussian is a federally registered
 trademark of Gaussian, Inc.
  
 This software contains proprietary and confidential information,
 including trade secrets, belonging to Gaussian, Inc.
  
 This software is provided under written license and may be
 used, copied, transmitted, or stored only in accord with that
 written license.
  
 The following legend is applicable only to US Government
 contracts under FAR:
  
                    RESTRICTED RIGHTS LEGEND
  
 Use, reproduction and disclosure by the US Government is
 subject to restrictions as set forth in subparagraphs (a)
 and (c) of the Commercial Computer Software - Restricted
 Rights clause in FAR 52.227-19.
  
 Gaussian, Inc.
 340 Quinnipiac St., Bldg. 40, Wallingford CT 06492
  
  
 ---------------------------------------------------------------
 Warning -- This program may not be used in any manner that
 competes with the business of Gaussian, Inc. or will provide
 assistance to any competitor of Gaussian, Inc.  The licensee
 of this program is prohibited from giving any competitor of
 Gaussian, Inc. access to this program.  By using this program,
 the user acknowledges that Gaussian, Inc. is engaged in the
 business of creating and licensing software in the field of
 computational chemistry and represents and warrants to the
 licensee that it is not a competitor of Gaussian, Inc. and that
 it will not use this program in any manner prohibited above.
 ---------------------------------------------------------------
  

 Cite this work as:
 Gaussian 16, Revision C.01,
 M. J. Frisch, G. W. Trucks, H. B. Schlegel, G. E. Scuseria, 
 M. A. Robb, J. R. Cheeseman, G. Scalmani, V. Barone, 
 G. A. Petersson, H. Nakatsuji, X. Li, M. Caricato, A. V. Marenich, 
 J. Bloino, B. G. Janesko, R. Gomperts, B. Mennucci, H. P. Hratchian, 
 J. V. Ortiz, A. F. Izmaylov, J. L. Sonnenberg, D. Williams-Young, 
 F. Ding, F. Lipparini, F. Egidi, J. Goings, B. Peng, A. Petrone, 
 T. Henderson, D. Ranasinghe, V. G. Zakrzewski, J. Gao, N. Rega, 
 G. Zheng, W. Liang, M. Hada, M. Ehara, K. Toyota, R. Fukuda, 
 J. Hasegawa, M. Ishida, T. Nakajima, Y. Honda, O. Kitao, H. Nakai, 
 T. Vreven, K. Throssell, J. A. Montgomery, Jr., J. E. Peralta, 
 F. Ogliaro, M. J. Bearpark, J. J. Heyd, E. N. Brothers, K. N. Kudin, 
 V. N. Staroverov, T. A. Keith, R. Kobayashi, J. Normand, 
 K. Raghavachari, A. P. Rendell, J. C. Burant, S. S. Iyengar, 
 J. Tomasi, M. Cossi, J. M. Millam, M. Klene, C. Adamo, R. Cammi, 
 J. W. Ochterski, R. L. Martin, K. Morokuma, O. Farkas, 
 J. B. Foresman, and D. J. Fox, Gaussian, Inc., Wallingford CT, 2019.
 
 ******************************************
 Gaussian 16:  ES64L-G16RevC.01  3-Jul-2019
                18-Oct-2021 
 ******************************************
 %chk=_3_alde1_6_ami2_2_opt_gas.chk
 %mem=60000mb
 %nprocshared=32
 Will use up to   32 processors via shared memory.
 ----------------------------------------------------------------------
 #P PBE1PBE/Def2TZVP SP SCF=(YQC,MaxCycle=900) int=(Grid=Superfinegrid)
  EmpiricalDispersion=GD3
 ----------------------------------------------------------------------
 1/38=1,172=1/1;
 2/12=2,17=6,18=5,40=1/2;
 3/5=44,7=101,11=2,25=1,30=1,74=-13,75=-7,124=31/1,2,3;
 4//1;
 5/5=2,7=900,8=4,13=1,38=1/8,2,8;
 6/7=2,8=2,9=2,10=2,28=1/1;
 99/5=1,9=1/99;
 Leave Link    1 at Mon Oct 18 09:39:15 2021, MaxMem=  7864320000 cpu:               4.9 elap:               0.2
 (Enter /apps/gaussian/g16-c01-avx/g16/l101.exe)
 -------------------------
 _3_alde1_6_ami2_2_opt_gas
 -------------------------
 Symbolic Z-matrix:
 Charge =  0 Multiplicity = 1
 C                    -5.5631   -0.5077    2.1037 
 C                    -6.616    -1.2385    2.7939 
 C                    -4.5745   -1.1862    1.3966 
 C                    -3.5588   -0.4897    0.746 
 H                    -4.5967   -2.2622    1.3449 
 C                    -3.538     0.8986    0.8094 
 C                    -4.5304    1.5941    1.4994 
 H                    -2.7624    1.469     0.3202 
 C                    -5.5388    0.8857    2.1445 
 C                    -4.5126    3.05      1.5157 
 H                    -6.3099    1.4207    2.6828 
 C                    -2.5395   -1.1962   -0.0242 
 H                    -5.3795    3.5473    1.9813 
 H                    -7.3487   -0.6258    3.3445 
 H                    -1.7527   -0.5698   -0.4561 
 C                     4.7997   -0.9326   -0.0913 
 C                     6.1807   -1.3731   -0.2227 
 C                     4.4873    0.1505    0.7214 
 C                     3.166     0.5739    0.868 
 H                     5.257     0.6822    1.2602 
 C                     2.1534   -0.0936    0.1879 
 C                     2.4504   -1.189    -0.6246 
 H                     1.1243    0.2184    0.2826 
 C                     3.7726   -1.5984   -0.76 
 C                     1.4044   -1.9351   -1.3061 
 H                     4.0288   -2.4413   -1.3839 
 C                     2.8585    1.7249    1.7048 
 H                     1.748    -2.8292   -1.8507 
 H                     6.9262   -0.7864    0.3365 
 H                     1.7946    1.9899    1.7858 
 C                     1.2267    2.2052   -2.9724 
 C                     1.5662    1.3832   -4.1236 
 C                    -0.0762    2.6652   -2.7803 
 C                    -0.3737    3.5366   -1.7379 
 H                    -0.8387    2.3483   -3.4759 
 C                     0.6395    3.929    -0.8673 
 C                     1.9374    3.4553   -1.0268 
 H                     0.4142    4.6054   -0.0596 
 C                     2.225     2.5949   -2.0835 
 C                     2.9842    3.8237   -0.0812 
 H                     3.2344    2.2284   -2.2174 
 C                    -1.7315    4.0451   -1.5539 
 H                     3.9788    3.4195   -0.3097 
 H                     2.6364    1.1476   -4.2413 
 H                    -2.5073    3.5256   -2.13 
 C                    -7.0326   -4.1826    4.4866 
 C                    -7.6908   -3.1994    3.4729 
 N                    -6.0641   -5.0543    3.8464 
 N                    -6.6796   -2.4974    2.7611 
 C                     7.965    -4.2534   -0.4263 
 C                     7.8491   -2.8086   -0.9998 
 N                     7.0341   -5.1683   -1.0623 
 N                     6.4977   -2.3686   -0.9303 
 C                     0.5526   -1.2091   -5.9967 
 C                     1.0765    0.2542   -6.109 
 N                    -0.842    -1.2654   -5.5933 
 C                     1.3788   -1.957    -4.9497 
 N                     0.6999    1.0134   -4.9637 
 C                    -1.6643   -3.2157   -0.9276 
 C                    -0.7791   -2.4152   -1.9271 
 N                    -2.6048   -2.4454   -0.1722 
 N                     0.1881   -1.5953   -1.2785 
 C                    -0.7862   -3.9691    0.0803 
 C                    -3.5205    5.1036    0.9697 
 C                    -3.2271    5.568    -0.4823 
 N                    -3.5479    3.6844    1.0122 
 N                    -1.9363    5.0229   -0.7889 
 C                    -3.073     7.0929   -0.4957 
 C                     3.4431    3.5747    2.9732 
 C                     3.6548    4.7718    1.9829 
 N                     3.7704    2.3645    2.3067 
 N                     2.7202    4.5415    0.924 
 C                     3.2351    6.069     2.6778 
 H                    -0.9535   -0.7703   -4.7144 
 H                    -1.4223   -0.7954   -6.2802 
 H                    -6.5139   -5.612     3.128 
 H                    -5.3534   -4.4898    3.3927 
 H                     7.2156   -5.2192   -2.0593 
 H                     6.0877   -4.8241   -0.9403 
 H                     1.3352   -1.4359   -3.9953 
 H                     2.4178   -2.0318   -5.2616 
 H                     0.9746   -2.9574   -4.8214 
 H                     2.167     0.2343   -6.269 
 H                     0.5975    0.7279   -6.9727 
 H                     8.5457   -2.1413   -0.4653 
 H                     8.1284   -2.8394   -2.0589 
 C                     7.6576   -4.2343    1.0723 
 H                     8.3803   -3.6213    1.605 
 H                     7.6967   -5.248     1.4605 
 H                     6.6612   -3.8347    1.2488 
 H                    -1.4387   -1.7643   -2.5092 
 H                    -0.3116   -3.1458   -2.6054 
 C                    -2.4952   -4.2215   -1.7365 
 H                    -3.0649   -3.7057   -2.5057 
 H                    -3.1897   -4.7267   -1.0714 
 H                    -1.8529   -4.9596   -2.2094 
 H                    -0.0964   -4.6291   -0.4403 
 H                    -1.4163   -4.5602    0.7393 
 H                    -0.2166   -3.2643    0.6823 
 C                    -8.1225   -5.0504    5.1172 
 C                    -6.304    -3.3843    5.5695 
 H                    -4.4531    5.5699    1.3307 
 H                    -2.6859    5.434     1.5954 
 C                    -4.3833    5.1486   -1.3986 
 H                    -4.1485    5.3861   -2.4344 
 H                    -5.2846    5.6869   -1.1152 
 H                    -4.5786    4.0818   -1.3118 
 H                    -2.2107    7.3797    0.0993 
 H                    -3.962     7.5728   -0.0942 
 H                    -2.9174    7.4377   -1.5151 
 H                     3.7799    6.2021    3.6088 
 H                     2.1693    6.0457    2.8861 
 H                     3.439     6.9141    2.025 
 C                     5.1312    4.8378    1.5761 
 H                     5.2547    5.5244    0.7404 
 H                     5.4978    3.8551    1.2929 
 H                     5.7239    5.1954    2.4139 
 H                     2.3987    3.6056    3.3161 
 H                     4.1228    3.7035    3.8174 
 H                    -5.8115   -4.0703    6.2526 
 H                    -7.0032   -2.7668    6.1281 
 H                    -5.5496   -2.7425    5.1196 
 H                    -8.2518   -3.7919    2.7413 
 H                    -8.3917   -2.53      4.0005 
 C                     9.3854   -4.7676   -0.6638 
 C                     0.6897   -1.8924   -7.3578 
 H                    -8.6495   -5.6186    4.3535 
 H                    -8.8424   -4.4365    5.6522 
 H                    -7.6671   -5.7497    5.8127 
 H                     1.7278   -1.903    -7.6798 
 H                     0.0981   -1.3732   -8.1089 
 H                     0.3303   -2.9151   -7.2846 
 H                     10.1124  -4.1388   -0.1564 
 H                     9.6168   -4.7787   -1.7269 
 H                     9.4675   -5.7819   -0.2835 
 
 ITRead=  0  0  0  0  0  0  0  0  0  0  0  0  0  0  0  0  0  0  0  0
 ITRead=  0  0  0  0  0  0  0  0  0  0  0  0  0  0  0  0  0  0  0  0
 ITRead=  0  0  0  0  0  0  0  0  0  0  0  0  0  0  0  0  0  0  0  0
 ITRead=  0  0  0  0  0  0  0  0  0  0  0  0  0  0  0  0  0  0  0  0
 ITRead=  0  0  0  0  0  0  0  0  0  0  0  0  0  0  0  0  0  0  0  0
 ITRead=  0  0  0  0  0  0  0  0  0  0  0  0  0  0  0  0  0  0  0  0
 ITRead=  0  0  0  0  0  0  0  0  0  0  0  0  0  0  0
 MicOpt= -1 -1 -1 -1 -1 -1 -1 -1 -1 -1 -1 -1 -1 -1 -1 -1 -1 -1 -1 -1
 MicOpt= -1 -1 -1 -1 -1 -1 -1 -1 -1 -1 -1 -1 -1 -1 -1 -1 -1 -1 -1 -1
 MicOpt= -1 -1 -1 -1 -1 -1 -1 -1 -1 -1 -1 -1 -1 -1 -1 -1 -1 -1 -1 -1
 MicOpt= -1 -1 -1 -1 -1 -1 -1 -1 -1 -1 -1 -1 -1 -1 -1 -1 -1 -1 -1 -1
 MicOpt= -1 -1 -1 -1 -1 -1 -1 -1 -1 -1 -1 -1 -1 -1 -1 -1 -1 -1 -1 -1
 MicOpt= -1 -1 -1 -1 -1 -1 -1 -1 -1 -1 -1 -1 -1 -1 -1 -1 -1 -1 -1 -1
 MicOpt= -1 -1 -1 -1 -1 -1 -1 -1 -1 -1 -1 -1 -1 -1 -1
 NAtoms=    135 NQM=      135 NQMF=       0 NMMI=      0 NMMIF=      0
                NMic=       0 NMicF=      0.
                    Isotopes and Nuclear Properties:
 (Nuclear quadrupole moments (NQMom) in fm**2, nuclear magnetic moments (NMagM)
  in nuclear magnetons)

  Atom         1           2           3           4           5           6           7           8           9          10
 IAtWgt=          12          12          12          12           1          12          12           1          12          12
 AtmWgt=  12.0000000  12.0000000  12.0000000  12.0000000   1.0078250  12.0000000  12.0000000   1.0078250  12.0000000  12.0000000
 NucSpn=           0           0           0           0           1           0           0           1           0           0
 AtZEff=  -0.0000000  -0.0000000  -0.0000000  -0.0000000  -0.0000000  -0.0000000  -0.0000000  -0.0000000  -0.0000000  -0.0000000
 NQMom=    0.0000000   0.0000000   0.0000000   0.0000000   0.0000000   0.0000000   0.0000000   0.0000000   0.0000000   0.0000000
 NMagM=    0.0000000   0.0000000   0.0000000   0.0000000   2.7928460   0.0000000   0.0000000   2.7928460   0.0000000   0.0000000
 AtZNuc=   6.0000000   6.0000000   6.0000000   6.0000000   1.0000000   6.0000000   6.0000000   1.0000000   6.0000000   6.0000000

  Atom        11          12          13          14          15          16          17          18          19          20
 IAtWgt=           1          12           1           1           1          12          12          12          12           1
 AtmWgt=   1.0078250  12.0000000   1.0078250   1.0078250   1.0078250  12.0000000  12.0000000  12.0000000  12.0000000   1.0078250
 NucSpn=           1           0           1           1           1           0           0           0           0           1
 AtZEff=  -0.0000000  -0.0000000  -0.0000000  -0.0000000  -0.0000000  -0.0000000  -0.0000000  -0.0000000  -0.0000000  -0.0000000
 NQMom=    0.0000000   0.0000000   0.0000000   0.0000000   0.0000000   0.0000000   0.0000000   0.0000000   0.0000000   0.0000000
 NMagM=    2.7928460   0.0000000   2.7928460   2.7928460   2.7928460   0.0000000   0.0000000   0.0000000   0.0000000   2.7928460
 AtZNuc=   1.0000000   6.0000000   1.0000000   1.0000000   1.0000000   6.0000000   6.0000000   6.0000000   6.0000000   1.0000000

  Atom        21          22          23          24          25          26          27          28          29          30
 IAtWgt=          12          12           1          12          12           1          12           1           1           1
 AtmWgt=  12.0000000  12.0000000   1.0078250  12.0000000  12.0000000   1.0078250  12.0000000   1.0078250   1.0078250   1.0078250
 NucSpn=           0           0           1           0           0           1           0           1           1           1
 AtZEff=  -0.0000000  -0.0000000  -0.0000000  -0.0000000  -0.0000000  -0.0000000  -0.0000000  -0.0000000  -0.0000000  -0.0000000
 NQMom=    0.0000000   0.0000000   0.0000000   0.0000000   0.0000000   0.0000000   0.0000000   0.0000000   0.0000000   0.0000000
 NMagM=    0.0000000   0.0000000   2.7928460   0.0000000   0.0000000   2.7928460   0.0000000   2.7928460   2.7928460   2.7928460
 AtZNuc=   6.0000000   6.0000000   1.0000000   6.0000000   6.0000000   1.0000000   6.0000000   1.0000000   1.0000000   1.0000000

  Atom        31          32          33          34          35          36          37          38          39          40
 IAtWgt=          12          12          12          12           1          12          12           1          12          12
 AtmWgt=  12.0000000  12.0000000  12.0000000  12.0000000   1.0078250  12.0000000  12.0000000   1.0078250  12.0000000  12.0000000
 NucSpn=           0           0           0           0           1           0           0           1           0           0
 AtZEff=  -0.0000000  -0.0000000  -0.0000000  -0.0000000  -0.0000000  -0.0000000  -0.0000000  -0.0000000  -0.0000000  -0.0000000
 NQMom=    0.0000000   0.0000000   0.0000000   0.0000000   0.0000000   0.0000000   0.0000000   0.0000000   0.0000000   0.0000000
 NMagM=    0.0000000   0.0000000   0.0000000   0.0000000   2.7928460   0.0000000   0.0000000   2.7928460   0.0000000   0.0000000
 AtZNuc=   6.0000000   6.0000000   6.0000000   6.0000000   1.0000000   6.0000000   6.0000000   1.0000000   6.0000000   6.0000000

  Atom        41          42          43          44          45          46          47          48          49          50
 IAtWgt=           1          12           1           1           1          12          12          14          14          12
 AtmWgt=   1.0078250  12.0000000   1.0078250   1.0078250   1.0078250  12.0000000  12.0000000  14.0030740  14.0030740  12.0000000
 NucSpn=           1           0           1           1           1           0           0           2           2           0
 AtZEff=  -0.0000000  -0.0000000  -0.0000000  -0.0000000  -0.0000000  -0.0000000  -0.0000000  -0.0000000  -0.0000000  -0.0000000
 NQMom=    0.0000000   0.0000000   0.0000000   0.0000000   0.0000000   0.0000000   0.0000000   2.0440000   2.0440000   0.0000000
 NMagM=    2.7928460   0.0000000   2.7928460   2.7928460   2.7928460   0.0000000   0.0000000   0.4037610   0.4037610   0.0000000
 AtZNuc=   1.0000000   6.0000000   1.0000000   1.0000000   1.0000000   6.0000000   6.0000000   7.0000000   7.0000000   6.0000000

  Atom        51          52          53          54          55          56          57          58          59          60
 IAtWgt=          12          14          14          12          12          14          12          14          12          12
 AtmWgt=  12.0000000  14.0030740  14.0030740  12.0000000  12.0000000  14.0030740  12.0000000  14.0030740  12.0000000  12.0000000
 NucSpn=           0           2           2           0           0           2           0           2           0           0
 AtZEff=  -0.0000000  -0.0000000  -0.0000000  -0.0000000  -0.0000000  -0.0000000  -0.0000000  -0.0000000  -0.0000000  -0.0000000
 NQMom=    0.0000000   2.0440000   2.0440000   0.0000000   0.0000000   2.0440000   0.0000000   2.0440000   0.0000000   0.0000000
 NMagM=    0.0000000   0.4037610   0.4037610   0.0000000   0.0000000   0.4037610   0.0000000   0.4037610   0.0000000   0.0000000
 AtZNuc=   6.0000000   7.0000000   7.0000000   6.0000000   6.0000000   7.0000000   6.0000000   7.0000000   6.0000000   6.0000000

  Atom        61          62          63          64          65          66          67          68          69          70
 IAtWgt=          14          14          12          12          12          14          14          12          12          12
 AtmWgt=  14.0030740  14.0030740  12.0000000  12.0000000  12.0000000  14.0030740  14.0030740  12.0000000  12.0000000  12.0000000
 NucSpn=           2           2           0           0           0           2           2           0           0           0
 AtZEff=  -0.0000000  -0.0000000  -0.0000000  -0.0000000  -0.0000000  -0.0000000  -0.0000000  -0.0000000  -0.0000000  -0.0000000
 NQMom=    2.0440000   2.0440000   0.0000000   0.0000000   0.0000000   2.0440000   2.0440000   0.0000000   0.0000000   0.0000000
 NMagM=    0.4037610   0.4037610   0.0000000   0.0000000   0.0000000   0.4037610   0.4037610   0.0000000   0.0000000   0.0000000
 AtZNuc=   7.0000000   7.0000000   6.0000000   6.0000000   6.0000000   7.0000000   7.0000000   6.0000000   6.0000000   6.0000000

  Atom        71          72          73          74          75          76          77          78          79          80
 IAtWgt=          14          14          12           1           1           1           1           1           1           1
 AtmWgt=  14.0030740  14.0030740  12.0000000   1.0078250   1.0078250   1.0078250   1.0078250   1.0078250   1.0078250   1.0078250
 NucSpn=           2           2           0           1           1           1           1           1           1           1
 AtZEff=  -0.0000000  -0.0000000  -0.0000000  -0.0000000  -0.0000000  -0.0000000  -0.0000000  -0.0000000  -0.0000000  -0.0000000
 NQMom=    2.0440000   2.0440000   0.0000000   0.0000000   0.0000000   0.0000000   0.0000000   0.0000000   0.0000000   0.0000000
 NMagM=    0.4037610   0.4037610   0.0000000   2.7928460   2.7928460   2.7928460   2.7928460   2.7928460   2.7928460   2.7928460
 AtZNuc=   7.0000000   7.0000000   6.0000000   1.0000000   1.0000000   1.0000000   1.0000000   1.0000000   1.0000000   1.0000000

  Atom        81          82          83          84          85          86          87          88          89          90
 IAtWgt=           1           1           1           1           1           1          12           1           1           1
 AtmWgt=   1.0078250   1.0078250   1.0078250   1.0078250   1.0078250   1.0078250  12.0000000   1.0078250   1.0078250   1.0078250
 NucSpn=           1           1           1           1           1           1           0           1           1           1
 AtZEff=  -0.0000000  -0.0000000  -0.0000000  -0.0000000  -0.0000000  -0.0000000  -0.0000000  -0.0000000  -0.0000000  -0.0000000
 NQMom=    0.0000000   0.0000000   0.0000000   0.0000000   0.0000000   0.0000000   0.0000000   0.0000000   0.0000000   0.0000000
 NMagM=    2.7928460   2.7928460   2.7928460   2.7928460   2.7928460   2.7928460   0.0000000   2.7928460   2.7928460   2.7928460
 AtZNuc=   1.0000000   1.0000000   1.0000000   1.0000000   1.0000000   1.0000000   6.0000000   1.0000000   1.0000000   1.0000000

  Atom        91          92          93          94          95          96          97          98          99         100
 IAtWgt=           1           1          12           1           1           1           1           1           1          12
 AtmWgt=   1.0078250   1.0078250  12.0000000   1.0078250   1.0078250   1.0078250   1.0078250   1.0078250   1.0078250  12.0000000
 NucSpn=           1           1           0           1           1           1           1           1           1           0
 AtZEff=  -0.0000000  -0.0000000  -0.0000000  -0.0000000  -0.0000000  -0.0000000  -0.0000000  -0.0000000  -0.0000000  -0.0000000
 NQMom=    0.0000000   0.0000000   0.0000000   0.0000000   0.0000000   0.0000000   0.0000000   0.0000000   0.0000000   0.0000000
 NMagM=    2.7928460   2.7928460   0.0000000   2.7928460   2.7928460   2.7928460   2.7928460   2.7928460   2.7928460   0.0000000
 AtZNuc=   1.0000000   1.0000000   6.0000000   1.0000000   1.0000000   1.0000000   1.0000000   1.0000000   1.0000000   6.0000000

  Atom       101         102         103         104         105         106         107         108         109         110
 IAtWgt=          12           1           1          12           1           1           1           1           1           1
 AtmWgt=  12.0000000   1.0078250   1.0078250  12.0000000   1.0078250   1.0078250   1.0078250   1.0078250   1.0078250   1.0078250
 NucSpn=           0           1           1           0           1           1           1           1           1           1
 AtZEff=  -0.0000000  -0.0000000  -0.0000000  -0.0000000  -0.0000000  -0.0000000  -0.0000000  -0.0000000  -0.0000000  -0.0000000
 NQMom=    0.0000000   0.0000000   0.0000000   0.0000000   0.0000000   0.0000000   0.0000000   0.0000000   0.0000000   0.0000000
 NMagM=    0.0000000   2.7928460   2.7928460   0.0000000   2.7928460   2.7928460   2.7928460   2.7928460   2.7928460   2.7928460
 AtZNuc=   6.0000000   1.0000000   1.0000000   6.0000000   1.0000000   1.0000000   1.0000000   1.0000000   1.0000000   1.0000000

  Atom       111         112         113         114         115         116         117         118         119         120
 IAtWgt=           1           1           1          12           1           1           1           1           1           1
 AtmWgt=   1.0078250   1.0078250   1.0078250  12.0000000   1.0078250   1.0078250   1.0078250   1.0078250   1.0078250   1.0078250
 NucSpn=           1           1           1           0           1           1           1           1           1           1
 AtZEff=  -0.0000000  -0.0000000  -0.0000000  -0.0000000  -0.0000000  -0.0000000  -0.0000000  -0.0000000  -0.0000000  -0.0000000
 NQMom=    0.0000000   0.0000000   0.0000000   0.0000000   0.0000000   0.0000000   0.0000000   0.0000000   0.0000000   0.0000000
 NMagM=    2.7928460   2.7928460   2.7928460   0.0000000   2.7928460   2.7928460   2.7928460   2.7928460   2.7928460   2.7928460
 AtZNuc=   1.0000000   1.0000000   1.0000000   6.0000000   1.0000000   1.0000000   1.0000000   1.0000000   1.0000000   1.0000000

  Atom       121         122         123         124         125         126         127         128         129         130
 IAtWgt=           1           1           1           1          12          12           1           1           1           1
 AtmWgt=   1.0078250   1.0078250   1.0078250   1.0078250  12.0000000  12.0000000   1.0078250   1.0078250   1.0078250   1.0078250
 NucSpn=           1           1           1           1           0           0           1           1           1           1
 AtZEff=  -0.0000000  -0.0000000  -0.0000000  -0.0000000  -0.0000000  -0.0000000  -0.0000000  -0.0000000  -0.0000000  -0.0000000
 NQMom=    0.0000000   0.0000000   0.0000000   0.0000000   0.0000000   0.0000000   0.0000000   0.0000000   0.0000000   0.0000000
 NMagM=    2.7928460   2.7928460   2.7928460   2.7928460   0.0000000   0.0000000   2.7928460   2.7928460   2.7928460   2.7928460
 AtZNuc=   1.0000000   1.0000000   1.0000000   1.0000000   6.0000000   6.0000000   1.0000000   1.0000000   1.0000000   1.0000000

  Atom       131         132         133         134         135
 IAtWgt=           1           1           1           1           1
 AtmWgt=   1.0078250   1.0078250   1.0078250   1.0078250   1.0078250
 NucSpn=           1           1           1           1           1
 AtZEff=  -0.0000000  -0.0000000  -0.0000000  -0.0000000  -0.0000000
 NQMom=    0.0000000   0.0000000   0.0000000   0.0000000   0.0000000
 NMagM=    2.7928460   2.7928460   2.7928460   2.7928460   2.7928460
 AtZNuc=   1.0000000   1.0000000   1.0000000   1.0000000   1.0000000
 Leave Link  101 at Mon Oct 18 09:39:16 2021, MaxMem=  7864320000 cpu:               3.0 elap:               0.1
 (Enter /apps/gaussian/g16-c01-avx/g16/l202.exe)
 Stoichiometry    C51H72N12
 Framework group  C1[X(C51H72N12)]
 Deg. of freedom   399
 Full point group                 C1      NOp   1
 Largest Abelian subgroup         C1      NOp   1
 Largest concise Abelian subgroup C1      NOp   1
                         Standard orientation:                         
 ---------------------------------------------------------------------
 Center     Atomic      Atomic             Coordinates (Angstroms)
 Number     Number       Type             X           Y           Z
 ---------------------------------------------------------------------
      1          6           0        6.007506   -0.696158   -0.526610
      2          6           0        7.210270   -1.458970   -0.827473
      3          6           0        4.852591   -1.336495   -0.086355
      4          6           0        3.696662   -0.610201    0.189984
      5          1           0        4.852174   -2.405385    0.049349
      6          6           0        3.703755    0.769288    0.020310
      7          6           0        4.857475    1.427884   -0.403788
      8          1           0        2.823513    1.361778    0.221202
      9          6           0        6.004753    0.690011   -0.676098
     10          6           0        4.854261    2.878267   -0.532656
     11          1           0        6.901791    1.196193   -1.007290
     12          6           0        2.493958   -1.274332    0.683699
     13          1           0        5.821784    3.353639   -0.764014
     14          1           0        8.074585   -0.876796   -1.187256
     15          1           0        1.619892   -0.630352    0.822500
     16          6           0       -4.550098   -1.120169   -1.388822
     17          6           0       -5.912933   -1.571234   -1.629007
     18          6           0       -4.009526   -0.094527   -2.154996
     19          6           0       -2.699563    0.337452   -1.945271
     20          1           0       -4.587479    0.384479   -2.930864
     21          6           0       -1.930722   -0.262910   -0.954363
     22          6           0       -2.456570   -1.300594   -0.183024
     23          1           0       -0.916190    0.057243   -0.771102
     24          6           0       -3.764072   -1.719443   -0.404740
     25          6           0       -1.656650   -1.978718    0.824695
     26          1           0       -4.194811   -2.518455    0.179567
     27          6           0       -2.156297    1.428971   -2.740909
     28          1           0       -2.148482   -2.835924    1.311895
     29          1           0       -6.461482   -1.038494   -2.421455
     30          1           0       -1.112699    1.703793   -2.531040
     31          6           0       -1.941813    2.274347    2.158989
     32          6           0       -2.604452    1.533349    3.221080
     33          6           0       -0.636096    2.739221    2.317251
     34          6           0       -0.044778    3.536767    1.343236
     35          1           0       -0.108974    2.485742    3.224765
     36          6           0       -0.760901    3.848891    0.190742
     37          6           0       -2.052502    3.368054    0.003819
     38          1           0       -0.307707    4.467981   -0.565564
     39          6           0       -2.638402    2.582674    0.993523
     40          6           0       -2.779283    3.650254   -1.228180
     41          1           0       -3.645737    2.211337    0.857415
     42          6           0        1.311462    4.051447    1.521464
     43          1           0       -3.800005    3.248452   -1.266912
     44          1           0       -3.664496    1.290425    3.042243
     45          1           0        1.884560    3.587422    2.333792
     46          6           0        8.079515   -4.511892   -2.104420
     47          6           0        8.423061   -3.447302   -1.019929
     48          7           0        6.961954   -5.349460   -1.707876
     49          7           0        7.253801   -2.710989   -0.684279
     50          6           0       -7.698009   -4.456283   -1.735321
     51          6           0       -7.743625   -2.971880   -1.261772
     52          7           0       -6.996199   -5.307838   -0.791695
     53          7           0       -6.427008   -2.517257   -0.970998
     54          6           0       -2.191245   -0.899422    5.494138
     55          6           0       -2.716077    0.559887    5.341497
     56          7           0       -0.739949   -0.963403    5.515504
     57          6           0       -2.684538   -1.734396    4.311916
     58          7           0       -2.020017    1.239264    4.300406
     59          6           0        1.382519   -3.235863    1.443691
     60          6           0        0.251417   -2.378389    2.083008
     61          7           0        2.505908   -2.508249    0.936634
     62          7           0       -0.482102   -1.623051    1.123942
     63          6           0        0.828212   -4.074273    0.284232
     64          6           0        3.759635    4.950619   -0.450195
     65          6           0        3.062319    5.515094    0.816759
     66          7           0        3.789251    3.532694   -0.377415
     67          7           0        1.734586    4.973896    0.777612
     68          6           0        2.920470    7.034341    0.671799
     69          6           0       -2.338078    3.172056   -4.257803
     70          6           0       -2.819251    4.434780   -3.462465
     71          7           0       -2.851489    2.008774   -3.626047
     72          7           0       -2.231742    4.296823   -2.164934
     73          6           0       -2.208632    5.684179   -4.101142
     74          1           0       -0.376277   -0.532063    4.671875
     75          1           0       -0.379818   -0.435627    6.303690
     76          1           0        7.181614   -5.846245   -0.850904
     77          1           0        6.154061   -4.764439   -1.521715
     78          1           0       -7.458211   -5.288684    0.111477
     79          1           0       -6.052755   -4.958846   -0.660743
     80          1           0       -2.363905   -1.283686    3.374696
     81          1           0       -3.769790   -1.802320    4.315516
     82          1           0       -2.266783   -2.735113    4.380361
     83          1           0       -3.806421    0.534834    5.181159
     84          1           0       -2.503963    1.102680    6.268963
     85          1           0       -8.251987   -2.356206   -2.022525
     86          1           0       -8.317076   -2.929666   -0.329022
     87          6           0       -6.970803   -4.541786   -3.078646
     88          1           0       -7.505013   -3.980534   -3.841175
     89          1           0       -6.902475   -5.581585   -3.385185
     90          1           0       -5.963404   -4.140750   -2.989414
     91          1           0        0.718867   -1.676633    2.780585
     92          1           0       -0.396621   -3.064716    2.649953
     93          6           0        1.938090   -4.167001    2.530278
     94          1           0        2.264592   -3.587713    3.390568
     95          1           0        2.791897   -4.708557    2.133233
     96          1           0        1.181976   -4.878495    2.851282
     97          1           0        0.013336   -4.705140    0.631267
     98          1           0        1.618065   -4.702042   -0.119183
     99          1           0        0.461164   -3.424162   -0.507110
    100          6           0        9.299632   -5.406403   -2.327537
    101          6           0        7.699714   -3.806078   -3.407644
    102          1           0        4.759655    5.403725   -0.560447
    103          1           0        3.143384    5.221543   -1.312783
    104          6           0        3.901978    5.181593    2.056133
    105          1           0        3.379540    5.490348    2.959542
    106          1           0        4.850073    5.711673    2.005581
    107          1           0        4.107338    4.114454    2.108872
    108          1           0        2.268561    7.263597   -0.166232
    109          1           0        3.890530    7.497380    0.509299
    110          1           0        2.479264    7.450128    1.574425
    111          1           0       -2.460503    5.740568   -5.156919
    112          1           0       -1.128257    5.662247   -3.990826
    113          1           0       -2.587072    6.571385   -3.599580
    114          6           0       -4.349781    4.507416   -3.504901
    115          1           0       -4.705062    5.251149   -2.793774
    116          1           0       -4.788695    3.542434   -3.267287
    117          1           0       -4.673020    4.793737   -4.502206
    118          1           0       -1.238979    3.194025   -4.286177
    119          1           0       -2.744194    3.228401   -5.269312
    120          1           0        7.421189   -4.547617   -4.150828
    121          1           0        8.534297   -3.220219   -3.785085
    122          1           0        6.851565   -3.144926   -3.243459
    123          1           0        8.745151   -3.976106   -0.115695
    124          1           0        9.250644   -2.807400   -1.371143
    125          6           0       -9.129668   -4.973713   -1.880111
    126          6           0       -2.719862   -1.483663    6.804678
    127          1           0        9.580053   -5.909159   -1.404272
    128          1           0       10.147194   -4.822092   -2.676210
    129          1           0        9.060124   -6.161534   -3.070868
    130          1           0       -3.806766   -1.486815    6.813409
    131          1           0       -2.367145   -0.901966    7.653754
    132          1           0       -2.361049   -2.503293    6.914457
    133          1           0       -9.675201   -4.394926   -2.620902
    134          1           0       -9.658292   -4.910822   -0.931189
    135          1           0       -9.104792   -6.014200   -2.191466
 ---------------------------------------------------------------------
 Rotational constants (GHZ):           0.0338280           0.0222086           0.0186131
 Leave Link  202 at Mon Oct 18 09:39:16 2021, MaxMem=  7864320000 cpu:               0.1 elap:               0.0
 (Enter /apps/gaussian/g16-c01-avx/g16/l301.exe)
 Standard basis: def2TZVP (5D, 7F)
 Ernie: Thresh=  0.10000D-02 Tol=  0.10000D-05 Strict=F.
 There are  2700 symmetry adapted cartesian basis functions of A   symmetry.
 There are  2385 symmetry adapted basis functions of A   symmetry.
  2385 basis functions,  3789 primitive gaussians,  2700 cartesian basis functions
   231 alpha electrons      231 beta electrons
       nuclear repulsion energy      9296.2703680302 Hartrees.
 IExCor= 1009 DFT=T Ex+Corr=PBE1PBE ExCW=0 ScaHFX=  0.250000
 ScaDFX=  0.750000  0.750000  1.000000  1.000000 ScalE2=  1.000000  1.000000
 IRadAn=      7 IRanWt=     -1 IRanGd=            0 ICorTp=0 IEmpDi=131
 NAtoms=  135 NActive=  135 NUniq=  135 SFac= 1.00D+00 NAtFMM=   60 NAOKFM=T Big=T
 Integral buffers will be    131072 words long.
 Raffenetti 2 integral format.
 Two-electron integral symmetry is turned on.
 R6Disp:  Grimme-D3 Dispersion energy=       -0.1091661604 Hartrees.
 Nuclear repulsion after empirical dispersion term =     9296.1612018698 Hartrees.
 Leave Link  301 at Mon Oct 18 09:39:16 2021, MaxMem=  7864320000 cpu:               0.9 elap:               0.0
 (Enter /apps/gaussian/g16-c01-avx/g16/l302.exe)
 NPDir=0 NMtPBC=     1 NCelOv=     1 NCel=       1 NClECP=     1 NCelD=      1
         NCelK=      1 NCelE2=     1 NClLst=     1 CellRange=     0.0.
 One-electron integrals computed using PRISM.
 One-electron integral symmetry used in STVInt
   1 Symmetry operations used in ECPInt.
 ECPInt:  NShTT=  481671 NPrTT= 1433880 LenC2=  284773 LenP2D=  538208.
 LDataN:  DoStor=T MaxTD1= 6 Len=  172
 Number of processors reduced to  31 by ecpmxn.
 NBasis=  2385 RedAO= T EigKep=  4.69D-06  NBF=  2385
 NBsUse=  2385 1.00D-06 EigRej= -1.00D+00 NBFU=  2385
 Precomputing XC quadrature grid using
 IXCGrd= 4 IRadAn=           7 IRanWt=          -1 IRanGd=           0 AccXCQ= 0.00D+00.
 Generated NRdTot=       0 NPtTot=           0 NUsed=           0 NTot=          32
 NSgBfM=  2368  2368  2368  2368  2368 MxSgAt=   135 MxSgA2=   135.
 Leave Link  302 at Mon Oct 18 09:39:29 2021, MaxMem=  7864320000 cpu:             413.4 elap:              13.0
 (Enter /apps/gaussian/g16-c01-avx/g16/l303.exe)
 DipDrv:  MaxL=1.
 Leave Link  303 at Mon Oct 18 09:39:29 2021, MaxMem=  7864320000 cpu:              18.4 elap:               0.7
 (Enter /apps/gaussian/g16-c01-avx/g16/l401.exe)
 ExpMin= 9.52D-02 ExpMax= 1.97D+04 ExpMxC= 6.73D+02 IAcc=3 IRadAn=         7 AccDes= 0.00D+00
 Harris functional with IExCor= 1009 and IRadAn=       7 diagonalized for initial guess.
 HarFok:  IExCor= 1009 AccDes= 0.00D+00 IRadAn=         7 IDoV= 1 UseB2=F ITyADJ=14
 ICtDFT=  3500011 ScaDFX=  1.000000  1.000000  1.000000  1.000000
 FoFCou: FMM=F IPFlag=           0 FMFlag=      100000 FMFlg1=        2001
         NFxFlg=           0 DoJE=T BraDBF=F KetDBF=T FulRan=T
         wScrn=  0.000000 ICntrl=       500 IOpCl=  0 I1Cent=   200000004 NGrid=           0
         NMat0=    1 NMatS0=      1 NMatT0=    0 NMatD0=    1 NMtDS0=    0 NMtDT0=    0
 Petite list used in FoFCou.
 Harris En= -2642.51082567666    
 JPrj=0 DoOrth=F DoCkMO=F.
 Leave Link  401 at Mon Oct 18 09:40:02 2021, MaxMem=  7864320000 cpu:            1037.8 elap:              32.7
 (Enter /apps/gaussian/g16-c01-avx/g16/l508.exe)
 Integral symmetry usage will be decided dynamically.
 Tight linear equation convergence will be used.
 RPBE1PBE wavefunction.
 Linear searches until partial convergence.
 Full line searches.
 Fock matrices will be formed incrementally for  20 cycles.
 FoFJK:  IHMeth= 1 ICntrl=       0 DoSepK=F KAlg= 0 I1Cent=           0 FoldK=F
 IRaf= 540000000 NMat=       1 IRICut=       1 DoRegI=T DoRafI=F ISym2E= 1 IDoP0=0 IntGTp=1.
 FoFCou: FMM=T IPFlag=           0 FMFlag=      100000 FMFlg1=        2001
         NFxFlg=           0 DoJE=F BraDBF=F KetDBF=F FulRan=T
         wScrn=  0.000000 ICntrl=         0 IOpCl=  0 I1Cent=           0 NGrid=           0
         NMat0=    1 NMatS0=      1 NMatT0=    0 NMatD0=    1 NMtDS0=    0 NMtDT0=    0
 Petite list used in FoFCou.
 FMM levels:  10  Number of levels for PrismC:   9
 Iteration   1 EE= -2640.01543359868                                    Grad=1.885D+00 Max rot=    2.4399 deg.
 Gradient too large for Newton-Raphson -- use scaled steepest descent instead.
 Alpha Gap=     0.176 HL deriv= 5.31D-03
     ILin= 1 X=0.000D+00 Y=-2.640015433599D+03 DE= 0.00D+00 F= -7.02D+00
 RMSU=  5.14D-04    CP:  1.00D+00
     ILin= 2 X=3.000D-01 Y=-2.641394040198D+03 DE=-1.38D+00 F= -2.16D+00 OKLS=F
 RMSU=  8.68D-05    CP:  1.00D+00  1.75D+00
     ILin= 3 X=5.000D-01 Y=-2.641498327463D+03 DE=-1.48D+00 F=  1.11D+00
     Accept linear search using points  2 and  3.
     An  expanding polynomial of degree  3 produced  0.3935
 RMSU=  5.33D-08    CP:  1.00D+00  1.34D+00  3.68D-01
 Iteration   2 EE= -2641.52424851961     Delta-E=       -1.508814920930 Grad=5.620D-01 Max rot=    1.7447 deg.
 Gradient too large for Newton-Raphson -- use scaled steepest descent instead.
 Alpha Gap=     0.196 HL deriv= 5.71D-03
     ILin= 1 X=0.000D+00 Y=-2.641524248520D+03 DE= 0.00D+00 F= -2.91D-01
 RMSU=  8.79D-05    CP:  1.00D+00  1.55D+00  6.60D-01 -3.00D+00
     ILin= 2 X=3.000D-01 Y=-2.641589437113D+03 DE=-6.52D-02 F= -1.44D-01 OKLS=F
 RMSU=  7.61D-06    CP:  1.00D+00  1.76D+00  1.07D+00 -3.00D+00  2.01D+00
     ILin= 3 X=6.000D-01 Y=-2.641610639659D+03 DE=-8.64D-02 F=  2.48D-03
 RMSU=  9.46D-05    CP:  1.00D+00  2.21D+00  2.22D+00 -3.00D+00  3.00D+00
                    CP:  3.00D+00
     ILin= 4 X=1.200D+00 Y=-2.641521716879D+03 DE= 2.53D-03 F=  2.93D-01
     An  expanding polynomial of degree  4 produced  0.5949
     Minimum is close to point  3 DX= -5.05D-03 DF= -6.21D-06 DXR=  8.49D-03 DFR=  7.19D-05 which will be used.
 Iteration   3 EE= -2641.61063965912     Delta-E=       -0.086391139517 Grad=2.217D-01 Max rot=    0.6468 deg.
 Gradient too large for Newton-Raphson -- use scaled steepest descent instead.
 Alpha Gap=     0.176 HL deriv= 5.54D-03
     ILin= 1 X=0.000D+00 Y=-2.641610639659D+03 DE= 0.00D+00 F= -6.40D-02
 RMSU=  7.77D-05    CP:  1.00D+00  1.95D+00  1.54D+00 -3.00D+00  2.46D+00
                    CP:  1.19D+00 -2.47D-04
     ILin= 2 X=5.000D-01 Y=-2.641620614205D+03 DE=-9.97D-03 F=  2.41D-02 OKLS=T
     Accept linear search using points  1 and  2.
     An  expanding polynomial of degree  2 produced  0.2809
 RMSU=  6.45D-07    CP:  1.00D+00  1.86D+00  1.32D+00 -3.00D+00  2.26D+00
                    CP:  1.06D+00 -1.35D-04  5.60D-01
 Iteration   4 EE= -2641.62166690110     Delta-E=       -0.011027241979 Grad=1.312D-01 Max rot=    0.4298 deg.
 Gradient too large for Newton-Raphson -- use scaled steepest descent instead.
 Alpha Gap=     0.187 HL deriv= 1.38D-04
     ILin= 1 X=0.000D+00 Y=-2.641621666901D+03 DE= 0.00D+00 F= -9.08D-03
 RMSU=  2.45D-05    CP:  1.00D+00  1.96D+00  1.57D+00 -3.00D+00  2.75D+00
                    CP:  1.41D+00  3.80D-04  9.47D-01  3.00D+00
     ILin= 2 X=6.000D-01 Y=-2.641625218107D+03 DE=-3.55D-03 F= -2.76D-03 OKLS=F
 RMSU=  5.16D-06    CP:  1.00D+00  2.06D+00  1.85D+00 -3.00D+00  3.00D+00
                    CP:  2.03D+00  2.12D-01  1.34D+00  3.00D+00  2.01D+00
     ILin= 3 X=1.200D+00 Y=-2.641624981063D+03 DE=-3.31D-03 F=  3.55D-03
     An  expanding polynomial of degree  3 produced  0.8625
 RMSU=  4.77D-07    CP:  1.00D+00  2.00D+00  1.69D+00 -3.00D+00  2.96D+00
                    CP:  1.65D+00  6.06D-04  1.12D+00  3.00D+00  1.44D+00
                    CP:  2.50D-02
 Iteration   5 EE= -2641.62558039929     Delta-E=       -0.003913498189 Grad=2.401D-02 Max rot=    0.0519 deg.
 Gradient too large for Newton-Raphson -- use scaled steepest descent instead.
 Alpha Gap=     0.188 HL deriv= 5.40D-04
     ILin= 1 X=0.000D+00 Y=-2.641625580399D+03 DE= 0.00D+00 F= -9.38D-04
 RMSU=  1.24D-05    CP:  1.00D+00  2.03D+00  1.78D+00 -3.00D+00  3.00D+00
                    CP:  1.81D+00  4.84D-02  1.16D+00  3.00D+00  1.66D+00
                    CP:  2.13D-01 -5.91D-01
     ILin= 2 X=5.000D-01 Y=-2.641625793965D+03 DE=-2.14D-04 F=  8.33D-05 OKLS=T
     Accept linear search using points  1 and  2.
     An  expanding polynomial of degree  2 produced  0.3290
 RMSU=  2.37D-08    CP:  1.00D+00  2.02D+00  1.75D+00 -3.00D+00  3.00D+00
                    CP:  1.76D+00  1.99D-02  1.14D+00  3.00D+00  1.58D+00
                    CP:  9.54D-02  9.71D-02  6.58D-01
 Iteration   6 EE= -2641.62577836905     Delta-E=       -0.000197969763 Grad=1.179D-02 Max rot=    0.0256 deg.
 Gradient too large for Newton-Raphson -- use scaled steepest descent instead.
 Alpha Gap=     0.188 HL deriv= 1.28D-04
     ILin= 1 X=0.000D+00 Y=-2.641625778369D+03 DE= 0.00D+00 F= -1.24D-04
 RMSU=  1.92D-06    CP:  1.00D+00  2.04D+00  1.80D+00 -3.00D+00  3.00D+00
                    CP:  1.82D+00  6.71D-02  1.19D+00  3.00D+00  1.80D+00
                    CP:  3.04D-01 -5.22D-01  1.16D+00 -3.00D+00
     ILin= 2 X=5.000D-01 Y=-2.641625819838D+03 DE=-4.15D-05 F= -4.22D-05 OKLS=F
 RMSU=  1.39D-07    CP:  1.00D+00  2.06D+00  1.87D+00 -3.00D+00  3.00D+00
                    CP:  1.91D+00  1.24D-01  1.25D+00  3.00D+00  2.06D+00
                    CP:  5.57D-01 -1.19D+00  1.77D+00 -3.00D+00  2.20D+00
     ILin= 3 X=1.100D+00 Y=-2.641625815834D+03 DE=-3.75D-05 F=  5.56D-05
     An  expanding polynomial of degree  3 produced  0.7590
 RMSU=  9.13D-09    CP:  1.00D+00  2.05D+00  1.83D+00 -3.00D+00  3.00D+00
                    CP:  1.86D+00  9.15D-02  1.22D+00  3.00D+00  1.91D+00
                    CP:  4.13D-01 -8.21D-01  1.43D+00 -3.00D+00  1.52D+00
                    CP:  3.86D-01
 Iteration   7 EE= -2641.62582530491     Delta-E=       -0.000046935851 Grad=4.178D-03 Max rot=    0.0059 deg.
 SCF Done:  E(RPBE1PBE) =  -2641.62582530     a.u. after    7 cycles
            Convg  =    0.4178D-02                    17 Fock formations.
              S**2 =  0.0000                  -V/T =  2.0047
 Leave Link  508 at Mon Oct 18 10:31:36 2021, MaxMem=  7864320000 cpu:           98080.7 elap:            3093.7
 (Enter /apps/gaussian/g16-c01-avx/g16/l502.exe)
 Integral symmetry usage will be decided dynamically.
 Closed shell SCF:
 Using DIIS extrapolation, IDIIS=  1040.
 NGot=  7864320000 LenX=  7849626578 LenY=  7842333878
 Requested convergence on RMS density matrix=1.00D-08 within 128 cycles.
 Requested convergence on MAX density matrix=1.00D-06.
 Requested convergence on             energy=1.00D-06.
 No special actions if energy rises.
 Fock matrices will be formed incrementally for  20 cycles.

 Cycle   1  Pass 1  IDiag  1:
 FoFJK:  IHMeth= 1 ICntrl=       0 DoSepK=F KAlg= 0 I1Cent=           0 FoldK=F
 IRaf= 540000000 NMat=       1 IRICut=       1 DoRegI=T DoRafI=F ISym2E= 0 IDoP0=0 IntGTp=1.
 FoFCou: FMM=T IPFlag=           0 FMFlag=      100000 FMFlg1=        2001
         NFxFlg=           0 DoJE=F BraDBF=F KetDBF=F FulRan=T
         wScrn=  0.000000 ICntrl=         0 IOpCl=  0 I1Cent=           0 NGrid=           0
         NMat0=    1 NMatS0=      1 NMatT0=    0 NMatD0=    1 NMtDS0=    0 NMtDT0=    0
 Symmetry not used in FoFCou.
 FMM levels:  10  Number of levels for PrismC:   9
 E= -2641.62582530494    
 DIIS: error= 2.11D-05 at cycle   1 NSaved=   1.
 NSaved= 1 IEnMin= 1 EnMin= -2641.62582530494     IErMin= 1 ErrMin= 2.11D-05
 ErrMax= 2.11D-05  0.00D+00 EMaxC= 1.00D-01 BMatC= 8.73D-06 BMatP= 8.73D-06
 IDIUse=1 WtCom= 1.00D+00 WtEn= 0.00D+00
 Coeff-Com:  0.100D+01
 Coeff:      0.100D+01
 Gap=     0.188 Goal=   None    Shift=    0.000
 RMSDP=9.41D-06 MaxDP=1.63D-03              OVMax= 5.53D-04

 Cycle   2  Pass 1  IDiag  1:
 RMSU=  9.35D-06    CP:  1.00D+00
 E= -2641.62582832994     Delta-E=       -0.000003025003 Rises=F Damp=F
 DIIS: error= 2.09D-05 at cycle   2 NSaved=   2.
 NSaved= 2 IEnMin= 2 EnMin= -2641.62582832994     IErMin= 2 ErrMin= 2.09D-05
 ErrMax= 2.09D-05  0.00D+00 EMaxC= 1.00D-01 BMatC= 6.01D-06 BMatP= 8.73D-06
 IDIUse=1 WtCom= 1.00D+00 WtEn= 0.00D+00
 Coeff-Com:  0.443D+00 0.557D+00
 Coeff:      0.443D+00 0.557D+00
 Gap=     0.173 Goal=   None    Shift=    0.000
 RMSDP=3.69D-06 MaxDP=1.17D-03 DE=-3.03D-06 OVMax= 4.34D-04

 Cycle   3  Pass 1  IDiag  1:
 RMSU=  3.51D-06    CP:  1.00D+00  1.03D+00
 E= -2641.62583311832     Delta-E=       -0.000004788379 Rises=F Damp=F
 DIIS: error= 1.24D-05 at cycle   3 NSaved=   3.
 NSaved= 3 IEnMin= 3 EnMin= -2641.62583311832     IErMin= 3 ErrMin= 1.24D-05
 ErrMax= 1.24D-05  0.00D+00 EMaxC= 1.00D-01 BMatC= 1.15D-06 BMatP= 6.01D-06
 IDIUse=1 WtCom= 1.00D+00 WtEn= 0.00D+00
 Coeff-Com:  0.768D-01 0.306D+00 0.617D+00
 Coeff:      0.768D-01 0.306D+00 0.617D+00
 Gap=     0.173 Goal=   None    Shift=    0.000
 RMSDP=1.10D-06 MaxDP=4.59D-04 DE=-4.79D-06 OVMax= 2.36D-04

 Cycle   4  Pass 1  IDiag  1:
 RMSU=  6.51D-07    CP:  1.00D+00  1.08D+00  7.85D-01
 E= -2641.62583387279     Delta-E=       -0.000000754471 Rises=F Damp=F
 DIIS: error= 8.18D-06 at cycle   4 NSaved=   4.
 NSaved= 4 IEnMin= 4 EnMin= -2641.62583387279     IErMin= 4 ErrMin= 8.18D-06
 ErrMax= 8.18D-06  0.00D+00 EMaxC= 1.00D-01 BMatC= 3.38D-07 BMatP= 1.15D-06
 IDIUse=1 WtCom= 1.00D+00 WtEn= 0.00D+00
 Coeff-Com: -0.104D-01 0.133D+00 0.423D+00 0.454D+00
 Coeff:     -0.104D-01 0.133D+00 0.423D+00 0.454D+00
 Gap=     0.173 Goal=   None    Shift=    0.000
 RMSDP=4.04D-07 MaxDP=1.19D-04 DE=-7.54D-07 OVMax= 9.36D-05

 Cycle   5  Pass 1  IDiag  1:
 RMSU=  1.79D-07    CP:  1.00D+00  1.08D+00  7.99D-01  4.56D-01
 E= -2641.62583418892     Delta-E=       -0.000000316128 Rises=F Damp=F
 DIIS: error= 1.51D-06 at cycle   5 NSaved=   5.
 NSaved= 5 IEnMin= 5 EnMin= -2641.62583418892     IErMin= 5 ErrMin= 1.51D-06
 ErrMax= 1.51D-06  0.00D+00 EMaxC= 1.00D-01 BMatC= 1.15D-08 BMatP= 3.38D-07
 IDIUse=1 WtCom= 1.00D+00 WtEn= 0.00D+00
 Coeff-Com: -0.107D-01 0.574D-01 0.204D+00 0.254D+00 0.495D+00
 Coeff:     -0.107D-01 0.574D-01 0.204D+00 0.254D+00 0.495D+00
 Gap=     0.173 Goal=   None    Shift=    0.000
 RMSDP=9.87D-08 MaxDP=2.88D-05 DE=-3.16D-07 OVMax= 1.28D-05

 Cycle   6  Pass 1  IDiag  1:
 RMSU=  7.24D-08    CP:  1.00D+00  1.08D+00  7.85D-01  4.85D-01  8.79D-01
 E= -2641.62583419913     Delta-E=       -0.000000010212 Rises=F Damp=F
 DIIS: error= 2.04D-07 at cycle   6 NSaved=   6.
 NSaved= 6 IEnMin= 6 EnMin= -2641.62583419913     IErMin= 6 ErrMin= 2.04D-07
 ErrMax= 2.04D-07  0.00D+00 EMaxC= 1.00D-01 BMatC= 3.32D-10 BMatP= 1.15D-08
 IDIUse=1 WtCom= 1.00D+00 WtEn= 0.00D+00
 Coeff-Com: -0.183D-02 0.400D-02 0.206D-01 0.323D-01 0.163D+00 0.782D+00
 Coeff:     -0.183D-02 0.400D-02 0.206D-01 0.323D-01 0.163D+00 0.782D+00
 Gap=     0.173 Goal=   None    Shift=    0.000
 RMSDP=2.62D-08 MaxDP=6.90D-06 DE=-1.02D-08 OVMax= 5.88D-06

 Cycle   7  Pass 1  IDiag  1:
 RMSU=  1.89D-08    CP:  1.00D+00  1.08D+00  7.87D-01  4.92D-01  9.38D-01
                    CP:  9.46D-01
 E= -2641.62583419952     Delta-E=       -0.000000000387 Rises=F Damp=F
 DIIS: error= 1.70D-07 at cycle   7 NSaved=   7.
 NSaved= 7 IEnMin= 7 EnMin= -2641.62583419952     IErMin= 7 ErrMin= 1.70D-07
 ErrMax= 1.70D-07  0.00D+00 EMaxC= 1.00D-01 BMatC= 1.95D-10 BMatP= 3.32D-10
 IDIUse=1 WtCom= 1.00D+00 WtEn= 0.00D+00
 Coeff-Com: -0.156D-03-0.296D-02-0.616D-02-0.351D-02 0.601D-01 0.521D+00
 Coeff-Com:  0.432D+00
 Coeff:     -0.156D-03-0.296D-02-0.616D-02-0.351D-02 0.601D-01 0.521D+00
 Coeff:      0.432D+00
 Gap=     0.173 Goal=   None    Shift=    0.000
 RMSDP=1.15D-08 MaxDP=4.45D-06 DE=-3.87D-10 OVMax= 2.89D-06

 Cycle   8  Pass 1  IDiag  1:
 RMSU=  6.59D-09    CP:  1.00D+00  1.08D+00  7.88D-01  4.89D-01  9.43D-01
                    CP:  9.72D-01  5.25D-01
 E= -2641.62583419954     Delta-E=       -0.000000000020 Rises=F Damp=F
 DIIS: error= 4.15D-08 at cycle   8 NSaved=   8.
 NSaved= 8 IEnMin= 8 EnMin= -2641.62583419954     IErMin= 8 ErrMin= 4.15D-08
 ErrMax= 4.15D-08  0.00D+00 EMaxC= 1.00D-01 BMatC= 1.02D-11 BMatP= 1.95D-10
 IDIUse=1 WtCom= 1.00D+00 WtEn= 0.00D+00
 Coeff-Com:  0.948D-04-0.188D-02-0.514D-02-0.537D-02 0.115D-01 0.177D+00
 Coeff-Com:  0.230D+00 0.594D+00
 Coeff:      0.948D-04-0.188D-02-0.514D-02-0.537D-02 0.115D-01 0.177D+00
 Coeff:      0.230D+00 0.594D+00
 Gap=     0.173 Goal=   None    Shift=    0.000
 RMSDP=3.65D-09 MaxDP=1.26D-06 DE=-2.00D-11 OVMax= 8.25D-07

 Cycle   9  Pass 1  IDiag  1:
 RMSU=  2.48D-09    CP:  1.00D+00  1.08D+00  7.87D-01  4.89D-01  9.49D-01
                    CP:  9.76D-01  5.93D-01  7.34D-01
 E= -2641.62583419963     Delta-E=       -0.000000000095 Rises=F Damp=F
 DIIS: error= 1.15D-08 at cycle   9 NSaved=   9.
 NSaved= 9 IEnMin= 9 EnMin= -2641.62583419963     IErMin= 9 ErrMin= 1.15D-08
 ErrMax= 1.15D-08  0.00D+00 EMaxC= 1.00D-01 BMatC= 1.13D-12 BMatP= 1.02D-11
 IDIUse=1 WtCom= 1.00D+00 WtEn= 0.00D+00
 Coeff-Com:  0.654D-04-0.370D-03-0.136D-02-0.205D-02-0.578D-02-0.529D-02
 Coeff-Com:  0.381D-01 0.284D+00 0.692D+00
 Coeff:      0.654D-04-0.370D-03-0.136D-02-0.205D-02-0.578D-02-0.529D-02
 Coeff:      0.381D-01 0.284D+00 0.692D+00
 Gap=     0.173 Goal=   None    Shift=    0.000
 RMSDP=1.40D-09 MaxDP=3.64D-07 DE=-9.46D-11 OVMax= 4.10D-07

 SCF Done:  E(RPBE1PBE) =  -2641.62583420     A.U. after    9 cycles
            NFock=  9  Conv=0.14D-08     -V/T= 2.0046
 KE= 2.629411299831D+03 PE=-2.473206771571D+04 EE= 1.016486937980D+04
 Leave Link  502 at Mon Oct 18 10:57:27 2021, MaxMem=  7864320000 cpu:           49160.8 elap:            1551.2
 (Enter /apps/gaussian/g16-c01-avx/g16/l508.exe)
 QCSCF skips out because SCF is already converged.
 Leave Link  508 at Mon Oct 18 10:57:27 2021, MaxMem=  7864320000 cpu:               0.0 elap:               0.0
 (Enter /apps/gaussian/g16-c01-avx/g16/l601.exe)
 Copying SCF densities to generalized density rwf, IOpCl= 0 IROHF=0.
 Hyperfine terms turned off by default for NAtoms > 100.

 **********************************************************************

            Population analysis using the SCF Density.

 **********************************************************************

 Orbital symmetries:
       Occupied  (A) (A) (A) (A) (A) (A) (A) (A) (A) (A) (A) (A)
                 (A) (A) (A) (A) (A) (A) (A) (A) (A) (A) (A) (A)
                 (A) (A) (A) (A) (A) (A) (A) (A) (A) (A) (A) (A)
                 (A) (A) (A) (A) (A) (A) (A) (A) (A) (A) (A) (A)
                 (A) (A) (A) (A) (A) (A) (A) (A) (A) (A) (A) (A)
                 (A) (A) (A) (A) (A) (A) (A) (A) (A) (A) (A) (A)
                 (A) (A) (A) (A) (A) (A) (A) (A) (A) (A) (A) (A)
                 (A) (A) (A) (A) (A) (A) (A) (A) (A) (A) (A) (A)
                 (A) (A) (A) (A) (A) (A) (A) (A) (A) (A) (A) (A)
                 (A) (A) (A) (A) (A) (A) (A) (A) (A) (A) (A) (A)
                 (A) (A) (A) (A) (A) (A) (A) (A) (A) (A) (A) (A)
                 (A) (A) (A) (A) (A) (A) (A) (A) (A) (A) (A) (A)
                 (A) (A) (A) (A) (A) (A) (A) (A) (A) (A) (A) (A)
                 (A) (A) (A) (A) (A) (A) (A) (A) (A) (A) (A) (A)
                 (A) (A) (A) (A) (A) (A) (A) (A) (A) (A) (A) (A)
                 (A) (A) (A) (A) (A) (A) (A) (A) (A) (A) (A) (A)
                 (A) (A) (A) (A) (A) (A) (A) (A) (A) (A) (A) (A)
                 (A) (A) (A) (A) (A) (A) (A) (A) (A) (A) (A) (A)
                 (A) (A) (A) (A) (A) (A) (A) (A) (A) (A) (A) (A)
                 (A) (A) (A)
       Virtual   (A) (A) (A) (A) (A) (A) (A) (A) (A) (A) (A) (A)
                 (A) (A) (A) (A) (A) (A) (A) (A) (A) (A) (A) (A)
                 (A) (A) (A) (A) (A) (A) (A) (A) (A) (A) (A) (A)
                 (A) (A) (A) (A) (A) (A) (A) (A) (A) (A) (A) (A)
                 (A) (A) (A) (A) (A) (A) (A) (A) (A) (A) (A) (A)
                 (A) (A) (A) (A) (A) (A) (A) (A) (A) (A) (A) (A)
                 (A) (A) (A) (A) (A) (A) (A) (A) (A) (A) (A) (A)
                 (A) (A) (A) (A) (A) (A) (A) (A) (A) (A) (A) (A)
                 (A) (A) (A) (A) (A) (A) (A) (A) (A) (A) (A) (A)
                 (A) (A) (A) (A) (A) (A) (A) (A) (A) (A) (A) (A)
                 (A) (A) (A) (A) (A) (A) (A) (A) (A) (A) (A) (A)
                 (A) (A) (A) (A) (A) (A) (A) (A) (A) (A) (A) (A)
                 (A) (A) (A) (A) (A) (A) (A) (A) (A) (A) (A) (A)
                 (A) (A) (A) (A) (A) (A) (A) (A) (A) (A) (A) (A)
                 (A) (A) (A) (A) (A) (A) (A) (A) (A) (A) (A) (A)
                 (A) (A) (A) (A) (A) (A) (A) (A) (A) (A) (A) (A)
                 (A) (A) (A) (A) (A) (A) (A) (A) (A) (A) (A) (A)
                 (A) (A) (A) (A) (A) (A) (A) (A) (A) (A) (A) (A)
                 (A) (A) (A) (A) (A) (A) (A) (A) (A) (A) (A) (A)
                 (A) (A) (A) (A) (A) (A) (A) (A) (A) (A) (A) (A)
                 (A) (A) (A) (A) (A) (A) (A) (A) (A) (A) (A) (A)
                 (A) (A) (A) (A) (A) (A) (A) (A) (A) (A) (A) (A)
                 (A) (A) (A) (A) (A) (A) (A) (A) (A) (A) (A) (A)
                 (A) (A) (A) (A) (A) (A) (A) (A) (A) (A) (A) (A)
                 (A) (A) (A) (A) (A) (A) (A) (A) (A) (A) (A) (A)
                 (A) (A) (A) (A) (A) (A) (A) (A) (A) (A) (A) (A)
                 (A) (A) (A) (A) (A) (A) (A) (A) (A) (A) (A) (A)
                 (A) (A) (A) (A) (A) (A) (A) (A) (A) (A) (A) (A)
                 (A) (A) (A) (A) (A) (A) (A) (A) (A) (A) (A) (A)
                 (A) (A) (A) (A) (A) (A) (A) (A) (A) (A) (A) (A)
                 (A) (A) (A) (A) (A) (A) (A) (A) (A) (A) (A) (A)
                 (A) (A) (A) (A) (A) (A) (A) (A) (A) (A) (A) (A)
                 (A) (A) (A) (A) (A) (A) (A) (A) (A) (A) (A) (A)
                 (A) (A) (A) (A) (A) (A) (A) (A) (A) (A) (A) (A)
                 (A) (A) (A) (A) (A) (A) (A) (A) (A) (A) (A) (A)
                 (A) (A) (A) (A) (A) (A) (A) (A) (A) (A) (A) (A)
                 (A) (A) (A) (A) (A) (A) (A) (A) (A) (A) (A) (A)
                 (A) (A) (A) (A) (A) (A) (A) (A) (A) (A) (A) (A)
                 (A) (A) (A) (A) (A) (A) (A) (A) (A) (A) (A) (A)
                 (A) (A) (A) (A) (A) (A) (A) (A) (A) (A) (A) (A)
                 (A) (A) (A) (A) (A) (A) (A) (A) (A) (A) (A) (A)
                 (A) (A) (A) (A) (A) (A) (A) (A) (A) (A) (A) (A)
                 (A) (A) (A) (A) (A) (A) (A) (A) (A) (A) (A) (A)
                 (A) (A) (A) (A) (A) (A) (A) (A) (A) (A) (A) (A)
                 (A) (A) (A) (A) (A) (A) (A) (A) (A) (A) (A) (A)
                 (A) (A) (A) (A) (A) (A) (A) (A) (A) (A) (A) (A)
                 (A) (A) (A) (A) (A) (A) (A) (A) (A) (A) (A) (A)
                 (A) (A) (A) (A) (A) (A) (A) (A) (A) (A) (A) (A)
                 (A) (A) (A) (A) (A) (A) (A) (A) (A) (A) (A) (A)
                 (A) (A) (A) (A) (A) (A) (A) (A) (A) (A) (A) (A)
                 (A) (A) (A) (A) (A) (A) (A) (A) (A) (A) (A) (A)
                 (A) (A) (A) (A) (A) (A) (A) (A) (A) (A) (A) (A)
                 (A) (A) (A) (A) (A) (A) (A) (A) (A) (A) (A) (A)
                 (A) (A) (A) (A) (A) (A) (A) (A) (A) (A) (A) (A)
                 (A) (A) (A) (A) (A) (A) (A) (A) (A) (A) (A) (A)
                 (A) (A) (A) (A) (A) (A) (A) (A) (A) (A) (A) (A)
                 (A) (A) (A) (A) (A) (A) (A) (A) (A) (A) (A) (A)
                 (A) (A) (A) (A) (A) (A) (A) (A) (A) (A) (A) (A)
                 (A) (A) (A) (A) (A) (A) (A) (A) (A) (A) (A) (A)
                 (A) (A) (A) (A) (A) (A) (A) (A) (A) (A) (A) (A)
                 (A) (A) (A) (A) (A) (A) (A) (A) (A) (A) (A) (A)
                 (A) (A) (A) (A) (A) (A) (A) (A) (A) (A) (A) (A)
                 (A) (A) (A) (A) (A) (A) (A) (A) (A) (A) (A) (A)
                 (A) (A) (A) (A) (A) (A) (A) (A) (A) (A) (A) (A)
                 (A) (A) (A) (A) (A) (A) (A) (A) (A) (A) (A) (A)
                 (A) (A) (A) (A) (A) (A) (A) (A) (A) (A) (A) (A)
                 (A) (A) (A) (A) (A) (A) (A) (A) (A) (A) (A) (A)
                 (A) (A) (A) (A) (A) (A) (A) (A) (A) (A) (A) (A)
                 (A) (A) (A) (A) (A) (A) (A) (A) (A) (A) (A) (A)
                 (A) (A) (A) (A) (A) (A) (A) (A) (A) (A) (A) (A)
                 (A) (A) (A) (A) (A) (A) (A) (A) (A) (A) (A) (A)
                 (A) (A) (A) (A) (A) (A) (A) (A) (A) (A) (A) (A)
                 (A) (A) (A) (A) (A) (A) (A) (A) (A) (A) (A) (A)
                 (A) (A) (A) (A) (A) (A) (A) (A) (A) (A) (A) (A)
                 (A) (A) (A) (A) (A) (A) (A) (A) (A) (A) (A) (A)
                 (A) (A) (A) (A) (A) (A) (A) (A) (A) (A) (A) (A)
                 (A) (A) (A) (A) (A) (A) (A) (A) (A) (A) (A) (A)
                 (A) (A) (A) (A) (A) (A) (A) (A) (A) (A) (A) (A)
                 (A) (A) (A) (A) (A) (A) (A) (A) (A) (A) (A) (A)
                 (A) (A) (A) (A) (A) (A) (A) (A) (A) (A) (A) (A)
                 (A) (A) (A) (A) (A) (A) (A) (A) (A) (A) (A) (A)
                 (A) (A) (A) (A) (A) (A) (A) (A) (A) (A) (A) (A)
                 (A) (A) (A) (A) (A) (A) (A) (A) (A) (A) (A) (A)
                 (A) (A) (A) (A) (A) (A) (A) (A) (A) (A) (A) (A)
                 (A) (A) (A) (A) (A) (A) (A) (A) (A) (A) (A) (A)
                 (A) (A) (A) (A) (A) (A) (A) (A) (A) (A) (A) (A)
                 (A) (A) (A) (A) (A) (A) (A) (A) (A) (A) (A) (A)
                 (A) (A) (A) (A) (A) (A) (A) (A) (A) (A) (A) (A)
                 (A) (A) (A) (A) (A) (A) (A) (A) (A) (A) (A) (A)
                 (A) (A) (A) (A) (A) (A) (A) (A) (A) (A) (A) (A)
                 (A) (A) (A) (A) (A) (A) (A) (A) (A) (A) (A) (A)
                 (A) (A) (A) (A) (A) (A) (A) (A) (A) (A) (A) (A)
                 (A) (A) (A) (A) (A) (A) (A) (A) (A) (A) (A) (A)
                 (A) (A) (A) (A) (A) (A) (A) (A) (A) (A) (A) (A)
                 (A) (A) (A) (A) (A) (A) (A) (A) (A) (A) (A) (A)
                 (A) (A) (A) (A) (A) (A) (A) (A) (A) (A) (A) (A)
                 (A) (A) (A) (A) (A) (A) (A) (A) (A) (A) (A) (A)
                 (A) (A) (A) (A) (A) (A) (A) (A) (A) (A) (A) (A)
                 (A) (A) (A) (A) (A) (A) (A) (A) (A) (A) (A) (A)
                 (A) (A) (A) (A) (A) (A) (A) (A) (A) (A) (A) (A)
                 (A) (A) (A) (A) (A) (A) (A) (A) (A) (A) (A) (A)
                 (A) (A) (A) (A) (A) (A) (A) (A) (A) (A) (A) (A)
                 (A) (A) (A) (A) (A) (A) (A) (A) (A) (A) (A) (A)
                 (A) (A) (A) (A) (A) (A) (A) (A) (A) (A) (A) (A)
                 (A) (A) (A) (A) (A) (A) (A) (A) (A) (A) (A) (A)
                 (A) (A) (A) (A) (A) (A) (A) (A) (A) (A) (A) (A)
                 (A) (A) (A) (A) (A) (A) (A) (A) (A) (A) (A) (A)
                 (A) (A) (A) (A) (A) (A) (A) (A) (A) (A) (A) (A)
                 (A) (A) (A) (A) (A) (A) (A) (A) (A) (A) (A) (A)
                 (A) (A) (A) (A) (A) (A) (A) (A) (A) (A) (A) (A)
                 (A) (A) (A) (A) (A) (A) (A) (A) (A) (A) (A) (A)
                 (A) (A) (A) (A) (A) (A) (A) (A) (A) (A) (A) (A)
                 (A) (A) (A) (A) (A) (A) (A) (A) (A) (A) (A) (A)
                 (A) (A) (A) (A) (A) (A) (A) (A) (A) (A) (A) (A)
                 (A) (A) (A) (A) (A) (A) (A) (A) (A) (A) (A) (A)
                 (A) (A) (A) (A) (A) (A) (A) (A) (A) (A) (A) (A)
                 (A) (A) (A) (A) (A) (A) (A) (A) (A) (A) (A) (A)
                 (A) (A) (A) (A) (A) (A) (A) (A) (A) (A) (A) (A)
                 (A) (A) (A) (A) (A) (A) (A) (A) (A) (A) (A) (A)
                 (A) (A) (A) (A) (A) (A) (A) (A) (A) (A) (A) (A)
                 (A) (A) (A) (A) (A) (A) (A) (A) (A) (A) (A) (A)
                 (A) (A) (A) (A) (A) (A) (A) (A) (A) (A) (A) (A)
                 (A) (A) (A) (A) (A) (A) (A) (A) (A) (A) (A) (A)
                 (A) (A) (A) (A) (A) (A) (A) (A) (A) (A) (A) (A)
                 (A) (A) (A) (A) (A) (A) (A) (A) (A) (A) (A) (A)
                 (A) (A) (A) (A) (A) (A) (A) (A) (A) (A) (A) (A)
                 (A) (A) (A) (A) (A) (A) (A) (A) (A) (A) (A) (A)
                 (A) (A) (A) (A) (A) (A) (A) (A) (A) (A) (A) (A)
                 (A) (A) (A) (A) (A) (A) (A) (A) (A) (A) (A) (A)
                 (A) (A) (A) (A) (A) (A) (A) (A) (A) (A) (A) (A)
                 (A) (A) (A) (A) (A) (A) (A) (A) (A) (A) (A) (A)
                 (A) (A) (A) (A) (A) (A) (A) (A) (A) (A) (A) (A)
                 (A) (A) (A) (A) (A) (A) (A) (A) (A) (A) (A) (A)
                 (A) (A) (A) (A) (A) (A) (A) (A) (A) (A) (A) (A)
                 (A) (A) (A) (A) (A) (A) (A) (A) (A) (A) (A) (A)
                 (A) (A) (A) (A) (A) (A) (A) (A) (A) (A) (A) (A)
                 (A) (A) (A) (A) (A) (A) (A) (A) (A) (A) (A) (A)
                 (A) (A) (A) (A) (A) (A) (A) (A) (A) (A) (A) (A)
                 (A) (A) (A) (A) (A) (A) (A) (A) (A) (A) (A) (A)
                 (A) (A) (A) (A) (A) (A) (A) (A) (A) (A) (A) (A)
                 (A) (A) (A) (A) (A) (A) (A) (A) (A) (A) (A) (A)
                 (A) (A) (A) (A) (A) (A) (A) (A) (A) (A) (A) (A)
                 (A) (A) (A) (A) (A) (A) (A) (A) (A) (A) (A) (A)
                 (A) (A) (A) (A) (A) (A) (A) (A) (A) (A) (A) (A)
                 (A) (A) (A) (A) (A) (A) (A) (A) (A) (A) (A) (A)
                 (A) (A) (A) (A) (A) (A) (A) (A) (A) (A) (A) (A)
                 (A) (A) (A) (A) (A) (A) (A) (A) (A) (A) (A) (A)
                 (A) (A) (A) (A) (A) (A) (A) (A) (A) (A) (A) (A)
                 (A) (A) (A) (A) (A) (A) (A) (A) (A) (A) (A) (A)
                 (A) (A) (A) (A) (A) (A) (A) (A) (A) (A) (A) (A)
                 (A) (A) (A) (A) (A) (A) (A) (A) (A) (A) (A) (A)
                 (A) (A) (A) (A) (A) (A) (A) (A) (A) (A) (A) (A)
                 (A) (A) (A) (A) (A) (A) (A) (A) (A) (A) (A) (A)
                 (A) (A) (A) (A) (A) (A) (A) (A) (A) (A) (A) (A)
                 (A) (A) (A) (A) (A) (A) (A) (A) (A) (A) (A) (A)
                 (A) (A) (A) (A) (A) (A) (A) (A) (A) (A) (A) (A)
                 (A) (A) (A) (A) (A) (A) (A) (A) (A) (A) (A) (A)
                 (A) (A) (A) (A) (A) (A) (A) (A) (A) (A) (A) (A)
                 (A) (A) (A) (A) (A) (A) (A) (A) (A) (A) (A) (A)
                 (A) (A) (A) (A) (A) (A) (A) (A) (A) (A) (A) (A)
                 (A) (A) (A) (A) (A) (A) (A) (A) (A) (A) (A) (A)
                 (A) (A) (A) (A) (A) (A) (A) (A) (A) (A) (A) (A)
                 (A) (A) (A) (A) (A) (A) (A) (A) (A) (A) (A) (A)
                 (A) (A) (A) (A) (A) (A) (A) (A) (A) (A) (A) (A)
                 (A) (A) (A) (A) (A) (A) (A) (A) (A) (A) (A) (A)
                 (A) (A) (A) (A) (A) (A) (A) (A) (A) (A) (A) (A)
                 (A) (A) (A) (A) (A) (A) (A) (A) (A) (A) (A) (A)
                 (A) (A) (A) (A) (A) (A) (A) (A) (A) (A) (A) (A)
                 (A) (A) (A) (A) (A) (A) (A) (A) (A) (A) (A) (A)
                 (A) (A) (A) (A) (A) (A) (A) (A) (A) (A) (A) (A)
                 (A) (A) (A) (A) (A) (A) (A) (A) (A) (A) (A) (A)
                 (A) (A) (A) (A) (A) (A) (A) (A) (A) (A) (A) (A)
                 (A) (A) (A) (A) (A) (A) (A) (A) (A) (A) (A) (A)
                 (A) (A) (A) (A) (A) (A) (A) (A) (A) (A) (A) (A)
                 (A) (A) (A) (A) (A) (A) (A) (A) (A) (A) (A) (A)
                 (A) (A) (A) (A) (A) (A) (A) (A) (A) (A) (A) (A)
                 (A) (A) (A) (A) (A) (A) (A) (A) (A) (A) (A) (A)
                 (A) (A) (A) (A) (A) (A) (A) (A) (A) (A) (A) (A)
                 (A) (A) (A) (A) (A) (A) (A) (A) (A) (A) (A) (A)
                 (A) (A) (A) (A) (A) (A)
 The electronic state is 1-A.
 Alpha  occ. eigenvalues --  -14.38314 -14.38148 -14.37802 -14.37781 -14.37656
 Alpha  occ. eigenvalues --  -14.37623 -14.37005 -14.36953 -14.36852 -14.35347
 Alpha  occ. eigenvalues --  -14.35222 -14.34573 -10.27206 -10.27003 -10.26898
 Alpha  occ. eigenvalues --  -10.26874 -10.26861 -10.26607 -10.26597 -10.26483
 Alpha  occ. eigenvalues --  -10.26407 -10.26257 -10.26061 -10.26013 -10.25956
 Alpha  occ. eigenvalues --  -10.25527 -10.25392 -10.24852 -10.24838 -10.24735
 Alpha  occ. eigenvalues --  -10.24730 -10.24620 -10.24511 -10.24456 -10.24285
 Alpha  occ. eigenvalues --  -10.24251 -10.24243 -10.24183 -10.24164 -10.24124
 Alpha  occ. eigenvalues --  -10.24089 -10.24037 -10.24014 -10.23970 -10.23852
 Alpha  occ. eigenvalues --  -10.23800 -10.23655 -10.23527 -10.23325 -10.22871
 Alpha  occ. eigenvalues --  -10.22787 -10.20954 -10.20755 -10.20736 -10.20668
 Alpha  occ. eigenvalues --  -10.20644 -10.20584 -10.20500 -10.20493 -10.20265
 Alpha  occ. eigenvalues --  -10.20259 -10.20222 -10.19797  -0.98078  -0.97436
 Alpha  occ. eigenvalues --   -0.97339  -0.97035  -0.96658  -0.96415  -0.95131
 Alpha  occ. eigenvalues --   -0.94997  -0.94572  -0.91741  -0.91675  -0.91130
 Alpha  occ. eigenvalues --   -0.90170  -0.89572  -0.89368  -0.83705  -0.83344
 Alpha  occ. eigenvalues --   -0.82763  -0.81291  -0.80862  -0.80539  -0.79514
 Alpha  occ. eigenvalues --   -0.78663  -0.78328  -0.78144  -0.77913  -0.77592
 Alpha  occ. eigenvalues --   -0.73111  -0.72828  -0.72400  -0.72192  -0.72132
 Alpha  occ. eigenvalues --   -0.71694  -0.71414  -0.71355  -0.71271  -0.71107
 Alpha  occ. eigenvalues --   -0.70781  -0.70643  -0.67988  -0.67745  -0.67333
 Alpha  occ. eigenvalues --   -0.66271  -0.66039  -0.65963  -0.64421  -0.63174
 Alpha  occ. eigenvalues --   -0.62493  -0.60153  -0.59768  -0.59038  -0.57486
 Alpha  occ. eigenvalues --   -0.57023  -0.56887  -0.56817  -0.56506  -0.56318
 Alpha  occ. eigenvalues --   -0.56031  -0.54693  -0.54361  -0.54032  -0.52887
 Alpha  occ. eigenvalues --   -0.52829  -0.52351  -0.52211  -0.51397  -0.50934
 Alpha  occ. eigenvalues --   -0.50679  -0.50534  -0.50374  -0.50166  -0.49813
 Alpha  occ. eigenvalues --   -0.49709  -0.49432  -0.49356  -0.49081  -0.48959
 Alpha  occ. eigenvalues --   -0.48580  -0.47990  -0.47913  -0.47799  -0.47476
 Alpha  occ. eigenvalues --   -0.47431  -0.47291  -0.46899  -0.46652  -0.46304
 Alpha  occ. eigenvalues --   -0.45943  -0.45522  -0.45330  -0.45164  -0.44998
 Alpha  occ. eigenvalues --   -0.44784  -0.44513  -0.44305  -0.43967  -0.43365
 Alpha  occ. eigenvalues --   -0.43037  -0.42590  -0.42288  -0.42139  -0.42061
 Alpha  occ. eigenvalues --   -0.41705  -0.41437  -0.41327  -0.40986  -0.40585
 Alpha  occ. eigenvalues --   -0.40455  -0.39811  -0.39642  -0.39439  -0.39346
 Alpha  occ. eigenvalues --   -0.39222  -0.39170  -0.39153  -0.39080  -0.38967
 Alpha  occ. eigenvalues --   -0.38703  -0.38688  -0.38619  -0.38517  -0.38348
 Alpha  occ. eigenvalues --   -0.38335  -0.37971  -0.37707  -0.37538  -0.37263
 Alpha  occ. eigenvalues --   -0.37116  -0.36985  -0.36905  -0.36807  -0.36657
 Alpha  occ. eigenvalues --   -0.36590  -0.36439  -0.36261  -0.35867  -0.35478
 Alpha  occ. eigenvalues --   -0.35438  -0.34847  -0.34756  -0.34516  -0.34361
 Alpha  occ. eigenvalues --   -0.34233  -0.33967  -0.33884  -0.33581  -0.33447
 Alpha  occ. eigenvalues --   -0.31030  -0.30495  -0.30011  -0.28018  -0.27584
 Alpha  occ. eigenvalues --   -0.27206  -0.27110  -0.26959  -0.26790  -0.26665
 Alpha  occ. eigenvalues --   -0.26427  -0.26005  -0.25904  -0.25822  -0.25705
 Alpha  occ. eigenvalues --   -0.25523  -0.25141  -0.24681  -0.24544  -0.24271
 Alpha  occ. eigenvalues --   -0.23984
 Alpha virt. eigenvalues --   -0.06672  -0.06471  -0.06346  -0.06045  -0.04867
 Alpha virt. eigenvalues --   -0.04777  -0.02619  -0.01915  -0.01525   0.03155
 Alpha virt. eigenvalues --    0.03684   0.04084   0.04240   0.04354   0.04674
 Alpha virt. eigenvalues --    0.04807   0.04930   0.05186   0.05477   0.05625
 Alpha virt. eigenvalues --    0.05784   0.05912   0.06106   0.06445   0.06686
 Alpha virt. eigenvalues --    0.06902   0.07132   0.07273   0.07598   0.07890
 Alpha virt. eigenvalues --    0.07964   0.08132   0.08271   0.08657   0.08948
 Alpha virt. eigenvalues --    0.09033   0.09200   0.09350   0.09392   0.09480
 Alpha virt. eigenvalues --    0.09680   0.09705   0.09884   0.10119   0.10251
 Alpha virt. eigenvalues --    0.10343   0.10789   0.10970   0.10997   0.11154
 Alpha virt. eigenvalues --    0.11313   0.11481   0.11718   0.11855   0.11943
 Alpha virt. eigenvalues --    0.12030   0.12185   0.12323   0.12696   0.12881
 Alpha virt. eigenvalues --    0.13040   0.13334   0.13418   0.13597   0.13719
 Alpha virt. eigenvalues --    0.13927   0.14045   0.14059   0.14452   0.14547
 Alpha virt. eigenvalues --    0.14716   0.14875   0.14999   0.15022   0.15223
 Alpha virt. eigenvalues --    0.15295   0.15422   0.15736   0.15792   0.15832
 Alpha virt. eigenvalues --    0.15845   0.15978   0.16128   0.16263   0.16338
 Alpha virt. eigenvalues --    0.16349   0.16499   0.16587   0.16746   0.16875
 Alpha virt. eigenvalues --    0.16920   0.17047   0.17075   0.17338   0.17338
 Alpha virt. eigenvalues --    0.17512   0.17584   0.17737   0.17801   0.17941
 Alpha virt. eigenvalues --    0.17975   0.18433   0.18621   0.18825   0.18908
 Alpha virt. eigenvalues --    0.19174   0.19245   0.19607   0.19724   0.19837
 Alpha virt. eigenvalues --    0.19935   0.20194   0.20346   0.20543   0.20758
 Alpha virt. eigenvalues --    0.20809   0.21001   0.21143   0.21283   0.21293
 Alpha virt. eigenvalues --    0.21514   0.21757   0.21850   0.22175   0.22507
 Alpha virt. eigenvalues --    0.22572   0.22985   0.23172   0.23237   0.23482
 Alpha virt. eigenvalues --    0.23488   0.23586   0.23791   0.23939   0.23986
 Alpha virt. eigenvalues --    0.24346   0.24499   0.24591   0.24628   0.24944
 Alpha virt. eigenvalues --    0.25354   0.25499   0.25669   0.25785   0.25865
 Alpha virt. eigenvalues --    0.26111   0.26268   0.26418   0.26817   0.26960
 Alpha virt. eigenvalues --    0.27007   0.27217   0.27355   0.27527   0.27760
 Alpha virt. eigenvalues --    0.27966   0.28225   0.28290   0.28509   0.28720
 Alpha virt. eigenvalues --    0.28791   0.28989   0.29120   0.29235   0.29386
 Alpha virt. eigenvalues --    0.29614   0.29741   0.29860   0.30092   0.30259
 Alpha virt. eigenvalues --    0.30474   0.30801   0.30849   0.30996   0.31184
 Alpha virt. eigenvalues --    0.31279   0.31360   0.31609   0.31706   0.31981
 Alpha virt. eigenvalues --    0.32050   0.32150   0.32196   0.32249   0.32406
 Alpha virt. eigenvalues --    0.32572   0.32927   0.32999   0.33152   0.33321
 Alpha virt. eigenvalues --    0.33490   0.33602   0.33733   0.33814   0.33862
 Alpha virt. eigenvalues --    0.34237   0.34317   0.34559   0.34643   0.34676
 Alpha virt. eigenvalues --    0.34822   0.35076   0.35091   0.35276   0.35441
 Alpha virt. eigenvalues --    0.35542   0.35753   0.36043   0.36181   0.36547
 Alpha virt. eigenvalues --    0.36766   0.36952   0.36987   0.37118   0.37370
 Alpha virt. eigenvalues --    0.37517   0.37684   0.37969   0.38102   0.38221
 Alpha virt. eigenvalues --    0.38315   0.38483   0.38663   0.38725   0.38866
 Alpha virt. eigenvalues --    0.38986   0.39224   0.39379   0.39534   0.39723
 Alpha virt. eigenvalues --    0.39910   0.40182   0.40574   0.40680   0.40803
 Alpha virt. eigenvalues --    0.40944   0.41045   0.41132   0.41362   0.41522
 Alpha virt. eigenvalues --    0.41617   0.41788   0.41868   0.42032   0.42208
 Alpha virt. eigenvalues --    0.42295   0.42566   0.42726   0.42754   0.42917
 Alpha virt. eigenvalues --    0.42971   0.43073   0.43318   0.43413   0.43582
 Alpha virt. eigenvalues --    0.43835   0.43967   0.44098   0.44125   0.44274
 Alpha virt. eigenvalues --    0.44421   0.44635   0.44760   0.44898   0.44988
 Alpha virt. eigenvalues --    0.45032   0.45275   0.45360   0.45538   0.45667
 Alpha virt. eigenvalues --    0.45763   0.45981   0.46149   0.46197   0.46278
 Alpha virt. eigenvalues --    0.46300   0.46451   0.46497   0.46524   0.46694
 Alpha virt. eigenvalues --    0.46816   0.46870   0.46919   0.46937   0.47199
 Alpha virt. eigenvalues --    0.47369   0.47435   0.47462   0.47606   0.47681
 Alpha virt. eigenvalues --    0.47791   0.47816   0.48004   0.48224   0.48308
 Alpha virt. eigenvalues --    0.48397   0.48537   0.48657   0.48690   0.48739
 Alpha virt. eigenvalues --    0.48833   0.48905   0.49066   0.49126   0.49287
 Alpha virt. eigenvalues --    0.49426   0.49590   0.49776   0.49906   0.50048
 Alpha virt. eigenvalues --    0.50103   0.50128   0.50469   0.50770   0.50953
 Alpha virt. eigenvalues --    0.51212   0.51276   0.51436   0.51650   0.51840
 Alpha virt. eigenvalues --    0.52130   0.52492   0.52551   0.52614   0.52752
 Alpha virt. eigenvalues --    0.52942   0.53056   0.53126   0.53423   0.53444
 Alpha virt. eigenvalues --    0.53524   0.53633   0.53781   0.53824   0.54030
 Alpha virt. eigenvalues --    0.54174   0.54453   0.54646   0.54873   0.55068
 Alpha virt. eigenvalues --    0.55173   0.55308   0.55471   0.55677   0.56000
 Alpha virt. eigenvalues --    0.56271   0.56447   0.56607   0.56779   0.56851
 Alpha virt. eigenvalues --    0.57027   0.57297   0.57445   0.57607   0.57643
 Alpha virt. eigenvalues --    0.57987   0.58244   0.58313   0.58511   0.58683
 Alpha virt. eigenvalues --    0.58955   0.59116   0.59172   0.59424   0.59519
 Alpha virt. eigenvalues --    0.59598   0.59693   0.59949   0.60328   0.60499
 Alpha virt. eigenvalues --    0.60764   0.60954   0.61132   0.61524   0.61603
 Alpha virt. eigenvalues --    0.61878   0.62203   0.62332   0.62419   0.62691
 Alpha virt. eigenvalues --    0.62880   0.63115   0.63183   0.63433   0.63589
 Alpha virt. eigenvalues --    0.63741   0.63953   0.64183   0.64482   0.64791
 Alpha virt. eigenvalues --    0.65002   0.65156   0.65375   0.65495   0.65982
 Alpha virt. eigenvalues --    0.66124   0.66266   0.66545   0.66681   0.66874
 Alpha virt. eigenvalues --    0.67137   0.67341   0.67466   0.67757   0.68124
 Alpha virt. eigenvalues --    0.68344   0.68465   0.68582   0.68886   0.69278
 Alpha virt. eigenvalues --    0.69337   0.69531   0.69716   0.69834   0.69950
 Alpha virt. eigenvalues --    0.70160   0.70295   0.70796   0.70869   0.71212
 Alpha virt. eigenvalues --    0.71464   0.71918   0.71987   0.72102   0.72450
 Alpha virt. eigenvalues --    0.72809   0.73012   0.73134   0.73179   0.73508
 Alpha virt. eigenvalues --    0.73594   0.73762   0.73960   0.74056   0.74253
 Alpha virt. eigenvalues --    0.74276   0.74546   0.74735   0.74814   0.75108
 Alpha virt. eigenvalues --    0.75256   0.75609   0.75708   0.75860   0.76041
 Alpha virt. eigenvalues --    0.76431   0.76497   0.76587   0.76792   0.76936
 Alpha virt. eigenvalues --    0.77139   0.77404   0.77534   0.77779   0.78046
 Alpha virt. eigenvalues --    0.78388   0.78578   0.78654   0.78904   0.79117
 Alpha virt. eigenvalues --    0.79340   0.79509   0.79564   0.80063   0.80374
 Alpha virt. eigenvalues --    0.80564   0.80836   0.81119   0.81239   0.81552
 Alpha virt. eigenvalues --    0.81600   0.81855   0.82093   0.82279   0.82505
 Alpha virt. eigenvalues --    0.82823   0.83166   0.83205   0.83495   0.83742
 Alpha virt. eigenvalues --    0.84081   0.84313   0.84457   0.84603   0.84830
 Alpha virt. eigenvalues --    0.85009   0.85088   0.85248   0.85515   0.85665
 Alpha virt. eigenvalues --    0.85944   0.86074   0.86177   0.86236   0.86574
 Alpha virt. eigenvalues --    0.86715   0.86825   0.87109   0.87192   0.87262
 Alpha virt. eigenvalues --    0.87408   0.87729   0.87851   0.88163   0.88342
 Alpha virt. eigenvalues --    0.88496   0.88893   0.89080   0.89174   0.89193
 Alpha virt. eigenvalues --    0.89500   0.89782   0.90426   0.90493   0.90625
 Alpha virt. eigenvalues --    0.90826   0.91007   0.91197   0.91405   0.91552
[...]
 Alpha virt. eigenvalues --    3.54306   3.54713   3.54881   3.55113   3.55364
 Alpha virt. eigenvalues --    3.55568   3.56058   3.56464   3.56677   3.56814
 Alpha virt. eigenvalues --    3.57372   3.57691   3.57989   3.58053   3.58713
 Alpha virt. eigenvalues --    3.58906   3.59099   3.59359   3.59533   3.60345
 Alpha virt. eigenvalues --    3.60527   3.60714   3.61021   3.61528   3.61710
 Alpha virt. eigenvalues --    3.61796   3.62204   3.62363   3.62665   3.62899
 Alpha virt. eigenvalues --    3.63257   3.63369   3.63601   3.63704   3.64181
 Alpha virt. eigenvalues --    3.64333   3.64715   3.65258   3.65592   3.65923
 Alpha virt. eigenvalues --    3.66775   3.67029   3.67335   3.67437   3.67799
 Alpha virt. eigenvalues --    3.68233   3.68317   3.68477   3.68783   3.68979
 Alpha virt. eigenvalues --    3.69038   3.69444   3.69584   3.69971   3.70141
 Alpha virt. eigenvalues --    3.70279   3.70468   3.70615   3.70987   3.71140
 Alpha virt. eigenvalues --    3.72310   3.72767   3.73056   3.73292   3.73573
 Alpha virt. eigenvalues --    3.73993   3.74183   3.74343   3.75214   3.75352
 Alpha virt. eigenvalues --    3.75730   3.75962   3.76159   3.76531   3.76969
 Alpha virt. eigenvalues --    3.77486   3.78045   3.78420   3.78602   3.79112
 Alpha virt. eigenvalues --    3.79656   3.79911   3.80236   3.80762   3.80874
 Alpha virt. eigenvalues --    3.81310   3.81522   3.81824   3.81938   3.82443
 Alpha virt. eigenvalues --    3.82862   3.83462   3.83631   3.83734   3.83962
 Alpha virt. eigenvalues --    3.84564   3.84706   3.85211   3.85643   3.85719
 Alpha virt. eigenvalues --    3.85976   3.86084   3.86526   3.86800   3.87619
 Alpha virt. eigenvalues --    3.87884   3.88153   3.88703   3.89065   3.89501
 Alpha virt. eigenvalues --    3.89931   3.89990   3.90846   3.91188   3.91602
 Alpha virt. eigenvalues --    3.91894   3.92907   3.93094   3.93721   3.94070
 Alpha virt. eigenvalues --    3.94744   3.95013   3.95562   3.95686   3.95938
 Alpha virt. eigenvalues --    3.96336   3.97092   3.97658   3.97919   3.98273
 Alpha virt. eigenvalues --    3.98917   3.99312   4.00379   4.00767   4.01159
 Alpha virt. eigenvalues --    4.01276   4.01552   4.02042   4.02463   4.02913
 Alpha virt. eigenvalues --    4.03271   4.03805   4.04052   4.04488   4.05103
 Alpha virt. eigenvalues --    4.05449   4.05599   4.05803   4.06113   4.06468
 Alpha virt. eigenvalues --    4.06495   4.07063   4.07635   4.07863   4.08121
 Alpha virt. eigenvalues --    4.08668   4.08969   4.09258   4.09461   4.09599
 Alpha virt. eigenvalues --    4.10378   4.10551   4.10729   4.11053   4.11580
 Alpha virt. eigenvalues --    4.11763   4.11827   4.12376   4.12400   4.12676
 Alpha virt. eigenvalues --    4.12951   4.13078   4.13614   4.13912   4.14057
 Alpha virt. eigenvalues --    4.14306   4.14472   4.14633   4.15051   4.15240
 Alpha virt. eigenvalues --    4.15567   4.15749   4.15919   4.16339   4.16396
 Alpha virt. eigenvalues --    4.16648   4.16861   4.17244   4.17534   4.17578
 Alpha virt. eigenvalues --    4.17962   4.18194   4.18824   4.18928   4.19191
 Alpha virt. eigenvalues --    4.19413   4.20140   4.20741   4.20923   4.21042
 Alpha virt. eigenvalues --    4.21446   4.21658   4.21810   4.22128   4.22576
 Alpha virt. eigenvalues --    4.22721   4.22958   4.23434   4.23503   4.24072
 Alpha virt. eigenvalues --    4.24304   4.24635   4.24924   4.25089   4.25293
 Alpha virt. eigenvalues --    4.25943   4.26245   4.26385   4.26594   4.26811
 Alpha virt. eigenvalues --    4.27026   4.27129   4.27560   4.27993   4.28291
 Alpha virt. eigenvalues --    4.28349   4.28831   4.28947   4.29335   4.29679
 Alpha virt. eigenvalues --    4.30538   4.31085   4.31631   4.31712   4.31922
 Alpha virt. eigenvalues --    4.32564   4.32792   4.33448   4.33638   4.34218
 Alpha virt. eigenvalues --    4.35004   4.35023   4.35737   4.36005   4.36464
 Alpha virt. eigenvalues --    4.36596   4.36808   4.37541   4.38606   4.38922
 Alpha virt. eigenvalues --    4.39173   4.40128   4.40770   4.41263   4.41636
 Alpha virt. eigenvalues --    4.42155   4.42493   4.42899   4.42971   4.43192
 Alpha virt. eigenvalues --    4.43866   4.44087   4.44548   4.45345   4.46196
 Alpha virt. eigenvalues --    4.46687   4.46969   4.47201   4.47308   4.47410
 Alpha virt. eigenvalues --    4.47684   4.47863   4.48604   4.48960   4.49238
 Alpha virt. eigenvalues --    4.49761   4.50053   4.50420   4.50617   4.50967
 Alpha virt. eigenvalues --    4.51551   4.51955   4.52185   4.52803   4.53218
 Alpha virt. eigenvalues --    4.53964   4.54503   4.54930   4.55533   4.55637
 Alpha virt. eigenvalues --    4.55803   4.56508   4.56792   4.56950   4.58381
 Alpha virt. eigenvalues --    4.59208   4.59921   4.60035   4.60213   4.60872
 Alpha virt. eigenvalues --    4.61423   4.61556   4.62263   4.62374   4.63109
 Alpha virt. eigenvalues --    4.63248   4.63875   4.64052   4.64601   4.65991
 Alpha virt. eigenvalues --    4.66727   4.67291   4.67491   4.68354   4.69532
 Alpha virt. eigenvalues --    4.70134   4.71081   4.71817   4.71986   4.72416
 Alpha virt. eigenvalues --    4.73072   4.74087   4.74688   4.75679   4.75940
 Alpha virt. eigenvalues --    4.76245   4.76504   4.76898   4.77239   4.77979
 Alpha virt. eigenvalues --    4.78161   4.78662   4.78763   4.79460   4.80269
 Alpha virt. eigenvalues --    4.80625   4.81795   4.83138   4.83204   4.83256
 Alpha virt. eigenvalues --    4.83764   4.84292   4.85084   4.85296   4.85544
 Alpha virt. eigenvalues --    4.85935   4.87443   4.87950   4.88344   4.88496
 Alpha virt. eigenvalues --    4.88899   4.89387   4.89719   4.90205   4.90455
 Alpha virt. eigenvalues --    4.90680   4.91347   4.91505   4.92132   4.92351
 Alpha virt. eigenvalues --    4.92650   4.92800   4.93168   4.93660   4.93697
 Alpha virt. eigenvalues --    4.94483   4.95241   4.95533   4.95683   4.96292
 Alpha virt. eigenvalues --    4.96641   4.96868   4.97895   4.98124   4.98508
 Alpha virt. eigenvalues --    4.98540   4.99105   4.99663   4.99803   5.00741
 Alpha virt. eigenvalues --    5.01960   5.02576   5.02986   5.03074   5.03543
 Alpha virt. eigenvalues --    5.04020   5.04486   5.06160   5.07172   5.07562
 Alpha virt. eigenvalues --    5.08605   5.09187   5.09338   5.09557   5.10562
 Alpha virt. eigenvalues --    5.10676   5.11100   5.11700   5.12834   5.13845
 Alpha virt. eigenvalues --    5.14303   5.15236   5.16248   5.17033   5.18803
 Alpha virt. eigenvalues --    5.19270   5.19940   5.20243   5.20571   5.22978
 Alpha virt. eigenvalues --    5.23340   5.23411   5.23854   5.24679   5.24894
 Alpha virt. eigenvalues --    5.25830   5.26363   5.27027   5.27561   5.27990
 Alpha virt. eigenvalues --    5.28680   5.29512   5.29964   5.30011   5.31330
 Alpha virt. eigenvalues --    5.31589   5.32092   5.32769   5.33029   5.33499
 Alpha virt. eigenvalues --    5.33845   5.34730   5.35208   5.35759   5.36251
 Alpha virt. eigenvalues --    5.36416   5.36681   5.37443   5.37718   5.38322
 Alpha virt. eigenvalues --    5.38842   5.39114   5.39658   5.39946   5.40472
 Alpha virt. eigenvalues --    5.41240   5.41365   5.41455   5.42008   5.42503
 Alpha virt. eigenvalues --    5.43468   5.43759   5.45027   5.45497   5.45827
 Alpha virt. eigenvalues --    5.46513   5.46672   5.47187   5.47686   5.47819
 Alpha virt. eigenvalues --    5.48606   5.49969   5.51118   5.52498   5.53480
 Alpha virt. eigenvalues --    5.54124   5.56834   5.56872   5.59494   5.60555
 Alpha virt. eigenvalues --    5.61514   5.61985   5.62318   5.63489   5.63800
 Alpha virt. eigenvalues --    5.65364   5.65590   5.69964   5.70583   5.70888
 Alpha virt. eigenvalues --    5.71191   5.72452   5.73704   5.75254   5.75811
 Alpha virt. eigenvalues --    5.76686   5.77328   5.78383   5.79103   5.79604
 Alpha virt. eigenvalues --    5.79963   5.82389   5.83747   5.84485   5.85614
 Alpha virt. eigenvalues --    5.91888   5.91990   5.92626   5.93537   5.93681
 Alpha virt. eigenvalues --    5.94730   5.95548   5.95822   5.96844   5.98975
 Alpha virt. eigenvalues --    5.99576   5.99902   6.00584   6.01434   6.04837
 Alpha virt. eigenvalues --    6.08021   6.08602   6.09241   6.13607   6.15667
 Alpha virt. eigenvalues --    6.16222  22.46466  22.47063  22.51428  22.51457
 Alpha virt. eigenvalues --   22.51943  22.51969  22.52195  22.53307  22.53806
 Alpha virt. eigenvalues --   22.54258  22.56881  22.57611  22.57948  22.58249
 Alpha virt. eigenvalues --   22.59674  22.69761  22.70393  22.70771  22.72508
 Alpha virt. eigenvalues --   22.72753  22.75532  22.80141  22.80702  22.81864
 Alpha virt. eigenvalues --   22.85864  22.87760  22.90427  22.90553  22.91436
 Alpha virt. eigenvalues --   22.91622  22.93051  22.94699  22.95585  23.02925
 Alpha virt. eigenvalues --   23.06392  23.08328  23.11764  23.13634  23.15204
 Alpha virt. eigenvalues --   23.15619  23.16225  23.16755  23.17427  23.18785
 Alpha virt. eigenvalues --   23.20257  23.20619  23.22993  23.28744  23.52087
 Alpha virt. eigenvalues --   23.53250  23.53927  32.22480  32.23652  32.27775
 Alpha virt. eigenvalues --   32.72000  32.76053  32.76223  32.77727  32.79206
 Alpha virt. eigenvalues --   32.82948  32.94557  32.96235  32.97876
          Condensed to atoms (all electrons):
 Mulliken charges:
               1
     1  C    0.378807
     2  C   -0.185276
     3  C   -0.373130
     4  C    0.393189
     5  H    0.135397
     6  C   -0.338407
     7  C    0.309627
     8  H    0.171150
     9  C   -0.315140
    10  C   -0.189807
    11  H    0.107894
    12  C   -0.181977
    13  H    0.063377
    14  H    0.060887
    15  H    0.118040
    16  C    0.371521
    17  C   -0.180004
    18  C   -0.351906
    19  C    0.347414
    20  H    0.133670
    21  C   -0.327069
    22  C    0.381359
    23  H    0.137205
    24  C   -0.351682
    25  C   -0.226536
    26  H    0.122900
    27  C   -0.146635
    28  H    0.089773
    29  H    0.069974
    30  H    0.093972
    31  C    0.348632
    32  C   -0.194896
    33  C   -0.380938
    34  C    0.421796
    35  H    0.122227
    36  C   -0.377236
    37  C    0.353748
    38  H    0.131038
    39  C   -0.283206
    40  C   -0.177343
    41  H    0.110166
    42  C   -0.172601
    43  H    0.086009
    44  H    0.068234
    45  H    0.083715
    46  C    0.139205
    47  C   -0.122721
    48  N   -0.497627
    49  N   -0.165437
    50  C    0.138920
    51  C   -0.127878
    52  N   -0.496047
    53  N   -0.173145
    54  C    0.136778
    55  C   -0.117483
    56  N   -0.489464
    57  C   -0.401080
    58  N   -0.175690
    59  C    0.186768
    60  C   -0.169616
    61  N   -0.175749
    62  N   -0.177187
    63  C   -0.386259
    64  C   -0.109543
    65  C    0.167325
    66  N   -0.172837
    67  N   -0.169509
    68  C   -0.342383
    69  C   -0.081316
    70  C    0.134144
    71  N   -0.204404
    72  N   -0.180661
    73  C   -0.340850
    74  H    0.220561
    75  H    0.203285
    76  H    0.203576
    77  H    0.225544
    78  H    0.204141
    79  H    0.220201
    80  H    0.143565
    81  H    0.118831
    82  H    0.120699
    83  H    0.069390
    84  H    0.113652
    85  H    0.070220
    86  H    0.112244
    87  C   -0.377398
    88  H    0.108212
    89  H    0.132442
    90  H    0.129779
    91  H    0.127377
    92  H    0.101465
    93  C   -0.341282
    94  H    0.123241
    95  H    0.131605
    96  H    0.111642
    97  H    0.109605
    98  H    0.135075
    99  H    0.137617
   100  C   -0.354477
   101  C   -0.377605
   102  H    0.071984
   103  H    0.118616
   104  C   -0.421235
   105  H    0.134251
   106  H    0.124750
   107  H    0.144139
   108  H    0.130963
   109  H    0.109002
   110  H    0.121759
   111  H    0.110559
   112  H    0.128963
   113  H    0.121483
   114  C   -0.408807
   115  H    0.130319
   116  H    0.140477
   117  H    0.124074
   118  H    0.090077
   119  H    0.113198
   120  H    0.130443
   121  H    0.105285
   122  H    0.131374
   123  H    0.111703
   124  H    0.065423
   125  C   -0.354672
   126  C   -0.355465
   127  H    0.111588
   128  H    0.110844
   129  H    0.133177
   130  H    0.112212
   131  H    0.114790
   132  H    0.132015
   133  H    0.112734
   134  H    0.111970
   135  H    0.134616
 Sum of Mulliken charges =  -0.00000
 Mulliken charges with hydrogens summed into heavy atoms:
               1
     1  C    0.378807
     2  C   -0.124389
     3  C   -0.237733
     4  C    0.393189
     6  C   -0.167256
     7  C    0.309627
     9  C   -0.207247
    10  C   -0.126431
    12  C   -0.063937
    16  C    0.371521
    17  C   -0.110030
    18  C   -0.218236
    19  C    0.347414
    21  C   -0.189864
    22  C    0.381359
    24  C   -0.228782
    25  C   -0.136763
    27  C   -0.052663
    31  C    0.348632
    32  C   -0.126662
    33  C   -0.258711
    34  C    0.421796
    36  C   -0.246198
    37  C    0.353748
    39  C   -0.173039
    40  C   -0.091334
    42  C   -0.088885
    46  C    0.139205
    47  C    0.054404
    48  N   -0.068507
    49  N   -0.165437
    50  C    0.138920
    51  C    0.054587
    52  N   -0.071705
    53  N   -0.173145
    54  C    0.136778
    55  C    0.065558
    56  N   -0.065618
    57  C   -0.017985
    58  N   -0.175690
    59  C    0.186768
    60  C    0.059225
    61  N   -0.175749
    62  N   -0.177187
    63  C   -0.003961
    64  C    0.081057
    65  C    0.167325
    66  N   -0.172837
    67  N   -0.169509
    68  C    0.019340
    69  C    0.121959
    70  C    0.134144
    71  N   -0.204404
    72  N   -0.180661
    73  C    0.020155
    87  C   -0.006965
    93  C    0.025205
   100  C    0.001132
   101  C   -0.010503
   104  C   -0.018094
   114  C   -0.013937
   125  C    0.004647
   126  C    0.003551
 Electronic spatial extent (au):  <R**2>=          65486.7885
 Charge=             -0.0000 electrons
 Dipole moment (field-independent basis, Debye):
    X=             -0.7085    Y=              3.3067    Z=              0.9894  Tot=              3.5235
 Quadrupole moment (field-independent basis, Debye-Ang):
   XX=           -339.7651   YY=           -402.6944   ZZ=           -376.6157
   XY=             11.6363   XZ=             -1.5248   YZ=            -11.5545
 Traceless Quadrupole moment (field-independent basis, Debye-Ang):
   XX=             33.2600   YY=            -29.6693   ZZ=             -3.5906
   XY=             11.6363   XZ=             -1.5248   YZ=            -11.5545
 Octapole moment (field-independent basis, Debye-Ang**2):
  XXX=             93.9061  YYY=            126.3474  ZZZ=             29.4489  XYY=             73.5115
  XXY=            109.6645  XXZ=            -13.4481  XZZ=            -59.0560  YZZ=             60.5072
  YYZ=             52.4661  XYZ=              0.9907
 Hexadecapole moment (field-independent basis, Debye-Ang**3):
 XXXX=         -44766.2551 YYYY=         -28217.4548 ZZZZ=         -14660.6396 XXXY=            150.8677
 XXXZ=           -196.8753 YYYX=            -65.0421 YYYZ=           -591.5081 ZZZX=             17.8624
 ZZZY=             -7.0873 XXYY=         -12861.2114 XXZZ=         -10408.5535 YYZZ=          -7077.5577
 XXYZ=           -416.6884 YYXZ=            237.4800 ZZXY=            113.6150
 N-N= 9.296161201870D+03 E-N=-2.473206771031D+04  KE= 2.629411299831D+03
 Leave Link  601 at Mon Oct 18 10:57:29 2021, MaxMem=  7864320000 cpu:              35.6 elap:               1.5
 (Enter /apps/gaussian/g16-c01-avx/g16/l9999.exe)
 Unable to Open any file for archive entry.
 1\1\GINC-CX3-6-18\SP\RPBE1PBE\def2TZVP\C51H72N12\ATARZIA\18-Oct-2021\0
 \\#P PBE1PBE/Def2TZVP SP SCF=(YQC,MaxCycle=900) int=(Grid=Superfinegri
 d) EmpiricalDispersion=GD3\\_3_alde1_6_ami2_2_opt_gas\\0,1\C,0,-5.5631
 ,-0.5077,2.1037\C,0,-6.616,-1.2385,2.7939\C,0,-4.5745,-1.1862,1.3966\C
 ,0,-3.5588,-0.4897,0.746\H,0,-4.5967,-2.2622,1.3449\C,0,-3.538,0.8986,
 0.8094\C,0,-4.5304,1.5941,1.4994\H,0,-2.7624,1.469,0.3202\C,0,-5.5388,
 0.8857,2.1445\C,0,-4.5126,3.05,1.5157\H,0,-6.3099,1.4207,2.6828\C,0,-2
 .5395,-1.1962,-0.0242\H,0,-5.3795,3.5473,1.9813\H,0,-7.3487,-0.6258,3.
 3445\H,0,-1.7527,-0.5698,-0.4561\C,0,4.7997,-0.9326,-0.0913\C,0,6.1807
 ,-1.3731,-0.2227\C,0,4.4873,0.1505,0.7214\C,0,3.166,0.5739,0.868\H,0,5
 .257,0.6822,1.2602\C,0,2.1534,-0.0936,0.1879\C,0,2.4504,-1.189,-0.6246
 \H,0,1.1243,0.2184,0.2826\C,0,3.7726,-1.5984,-0.76\C,0,1.4044,-1.9351,
 -1.3061\H,0,4.0288,-2.4413,-1.3839\C,0,2.8585,1.7249,1.7048\H,0,1.748,
 -2.8292,-1.8507\H,0,6.9262,-0.7864,0.3365\H,0,1.7946,1.9899,1.7858\C,0
 ,1.2267,2.2052,-2.9724\C,0,1.5662,1.3832,-4.1236\C,0,-0.0762,2.6652,-2
 .7803\C,0,-0.3737,3.5366,-1.7379\H,0,-0.8387,2.3483,-3.4759\C,0,0.6395
 ,3.929,-0.8673\C,0,1.9374,3.4553,-1.0268\H,0,0.4142,4.6054,-0.0596\C,0
 ,2.225,2.5949,-2.0835\C,0,2.9842,3.8237,-0.0812\H,0,3.2344,2.2284,-2.2
 174\C,0,-1.7315,4.0451,-1.5539\H,0,3.9788,3.4195,-0.3097\H,0,2.6364,1.
 1476,-4.2413\H,0,-2.5073,3.5256,-2.13\C,0,-7.0326,-4.1826,4.4866\C,0,-
 7.6908,-3.1994,3.4729\N,0,-6.0641,-5.0543,3.8464\N,0,-6.6796,-2.4974,2
 .7611\C,0,7.965,-4.2534,-0.4263\C,0,7.8491,-2.8086,-0.9998\N,0,7.0341,
 -5.1683,-1.0623\N,0,6.4977,-2.3686,-0.9303\C,0,0.5526,-1.2091,-5.9967\
 C,0,1.0765,0.2542,-6.109\N,0,-0.842,-1.2654,-5.5933\C,0,1.3788,-1.957,
 -4.9497\N,0,0.6999,1.0134,-4.9637\C,0,-1.6643,-3.2157,-0.9276\C,0,-0.7
 791,-2.4152,-1.9271\N,0,-2.6048,-2.4454,-0.1722\N,0,0.1881,-1.5953,-1.
 2785\C,0,-0.7862,-3.9691,0.0803\C,0,-3.5205,5.1036,0.9697\C,0,-3.2271,
 5.568,-0.4823\N,0,-3.5479,3.6844,1.0122\N,0,-1.9363,5.0229,-0.7889\C,0
 ,-3.073,7.0929,-0.4957\C,0,3.4431,3.5747,2.9732\C,0,3.6548,4.7718,1.98
 29\N,0,3.7704,2.3645,2.3067\N,0,2.7202,4.5415,0.924\C,0,3.2351,6.069,2
 .6778\H,0,-0.9535,-0.7703,-4.7144\H,0,-1.4223,-0.7954,-6.2802\H,0,-6.5
 139,-5.612,3.128\H,0,-5.3534,-4.4898,3.3927\H,0,7.2156,-5.2192,-2.0593
 \H,0,6.0877,-4.8241,-0.9403\H,0,1.3352,-1.4359,-3.9953\H,0,2.4178,-2.0
 318,-5.2616\H,0,0.9746,-2.9574,-4.8214\H,0,2.167,0.2343,-6.269\H,0,0.5
 975,0.7279,-6.9727\H,0,8.5457,-2.1413,-0.4653\H,0,8.1284,-2.8394,-2.05
 89\C,0,7.6576,-4.2343,1.0723\H,0,8.3803,-3.6213,1.605\H,0,7.6967,-5.24
 8,1.4605\H,0,6.6612,-3.8347,1.2488\H,0,-1.4387,-1.7643,-2.5092\H,0,-0.
 3116,-3.1458,-2.6054\C,0,-2.4952,-4.2215,-1.7365\H,0,-3.0649,-3.7057,-
 2.5057\H,0,-3.1897,-4.7267,-1.0714\H,0,-1.8529,-4.9596,-2.2094\H,0,-0.
 0964,-4.6291,-0.4403\H,0,-1.4163,-4.5602,0.7393\H,0,-0.2166,-3.2643,0.
 6823\C,0,-8.1225,-5.0504,5.1172\C,0,-6.304,-3.3843,5.5695\H,0,-4.4531,
 5.5699,1.3307\H,0,-2.6859,5.434,1.5954\C,0,-4.3833,5.1486,-1.3986\H,0,
 -4.1485,5.3861,-2.4344\H,0,-5.2846,5.6869,-1.1152\H,0,-4.5786,4.0818,-
 1.3118\H,0,-2.2107,7.3797,0.0993\H,0,-3.962,7.5728,-0.0942\H,0,-2.9174
 ,7.4377,-1.5151\H,0,3.7799,6.2021,3.6088\H,0,2.1693,6.0457,2.8861\H,0,
 3.439,6.9141,2.025\C,0,5.1312,4.8378,1.5761\H,0,5.2547,5.5244,0.7404\H
 ,0,5.4978,3.8551,1.2929\H,0,5.7239,5.1954,2.4139\H,0,2.3987,3.6056,3.3
 161\H,0,4.1228,3.7035,3.8174\H,0,-5.8115,-4.0703,6.2526\H,0,-7.0032,-2
 .7668,6.1281\H,0,-5.5496,-2.7425,5.1196\H,0,-8.2518,-3.7919,2.7413\H,0
 ,-8.3917,-2.53,4.0005\C,0,9.3854,-4.7676,-0.6638\C,0,0.6897,-1.8924,-7
 .3578\H,0,-8.6495,-5.6186,4.3535\H,0,-8.8424,-4.4365,5.6522\H,0,-7.667
 1,-5.7497,5.8127\H,0,1.7278,-1.903,-7.6798\H,0,0.0981,-1.3732,-8.1089\
 H,0,0.3303,-2.9151,-7.2846\H,0,10.1124,-4.1388,-0.1564\H,0,9.6168,-4.7
 787,-1.7269\H,0,9.4675,-5.7819,-0.2835\\Version=ES64L-G16RevC.01\State
 =1-A\HF=-2641.6258342\RMSD=1.400e-09\Dipole=0.1344566,1.2666484,-0.547
 0018\Quadrupole=21.9907614,-20.5673894,-1.423372,-5.742735,-8.2807241,
 12.1096865\PG=C01 [X(C51H72N12)]\\@
 The archive entry for this job was punched.


 IF IT HAPPENS, IT MUST BE POSSIBLE.

 -- THE UNNAMED LAW FROM PAUL DICKSON'S 
    "THE OFFICIAL RULES"
 Job cpu time:       1 days 17 hours 19 minutes 22.8 seconds.
 Elapsed time:       0 days  1 hours 18 minutes 13.4 seconds.
 File lengths (MBytes):  RWF=   3304 Int=      0 D2E=      0 Chk=    336 Scr=     16
 Normal termination of Gaussian 16 at Mon Oct 18 10:57:29 2021.
