 Entering Gaussian System, Link 0=g16
 Initial command:
 /apps/gaussian/g16-c01-avx/g16/l1.exe "/rds/general/ephemeral/user/atarzia/ephemeral/Gau-2824669.inp" -scrdir="/rds/general/ephemeral/user/atarzia/ephemeral/"
 Entering Link 1 = /apps/gaussian/g16-c01-avx/g16/l1.exe PID=   2824670.
  
 Copyright (c) 1988-2019, Gaussian, Inc.  All Rights Reserved.
  
 This is part of the Gaussian(R) 16 program.  It is based on
 the Gaussian(R) 09 system (copyright 2009, Gaussian, Inc.),
 the Gaussian(R) 03 system (copyright 2003, Gaussian, Inc.),
 the Gaussian(R) 98 system (copyright 1998, Gaussian, Inc.),
 the Gaussian(R) 94 system (copyright 1995, Gaussian, Inc.),
 the Gaussian 92(TM) system (copyright 1992, Gaussian, Inc.),
 the Gaussian 90(TM) system (copyright 1990, Gaussian, Inc.),
 the Gaussian 88(TM) system (copyright 1988, Gaussian, Inc.),
 the Gaussian 86(TM) system (copyright 1986, Carnegie Mellon
 University), and the Gaussian 82(TM) system (copyright 1983,
 Carnegie Mellon University). Gaussian is a federally registered
 trademark of Gaussian, Inc.
  
 This software contains proprietary and confidential information,
 including trade secrets, belonging to Gaussian, Inc.
  
 This software is provided under written license and may be
 used, copied, transmitted, or stored only in accord with that
 written license.
  
 The following legend is applicable only to US Government
 contracts under FAR:
  
                    RESTRICTED RIGHTS LEGEND
  
 Use, reproduction and disclosure by the US Government is
 subject to restrictions as set forth in subparagraphs (a)
 and (c) of the Commercial Computer Software - Restricted
 Rights clause in FAR 52.227-19.
  
 Gaussian, Inc.
 340 Quinnipiac St., Bldg. 40, Wallingford CT 06492
  
  
 ---------------------------------------------------------------
 Warning -- This program may not be used in any manner that
 competes with the business of Gaussian, Inc. or will provide
 assistance to any competitor of Gaussian, Inc.  The licensee
 of this program is prohibited from giving any competitor of
 Gaussian, Inc. access to this program.  By using this program,
 the user acknowledges that Gaussian, Inc. is engaged in the
 business of creating and licensing software in the field of
 computational chemistry and represents and warrants to the
 licensee that it is not a competitor of Gaussian, Inc. and that
 it will not use this program in any manner prohibited above.
 ---------------------------------------------------------------
  

 Cite this work as:
 Gaussian 16, Revision C.01,
 M. J. Frisch, G. W. Trucks, H. B. Schlegel, G. E. Scuseria, 
 M. A. Robb, J. R. Cheeseman, G. Scalmani, V. Barone, 
 G. A. Petersson, H. Nakatsuji, X. Li, M. Caricato, A. V. Marenich, 
 J. Bloino, B. G. Janesko, R. Gomperts, B. Mennucci, H. P. Hratchian, 
 J. V. Ortiz, A. F. Izmaylov, J. L. Sonnenberg, D. Williams-Young, 
 F. Ding, F. Lipparini, F. Egidi, J. Goings, B. Peng, A. Petrone, 
 T. Henderson, D. Ranasinghe, V. G. Zakrzewski, J. Gao, N. Rega, 
 G. Zheng, W. Liang, M. Hada, M. Ehara, K. Toyota, R. Fukuda, 
 J. Hasegawa, M. Ishida, T. Nakajima, Y. Honda, O. Kitao, H. Nakai, 
 T. Vreven, K. Throssell, J. A. Montgomery, Jr., J. E. Peralta, 
 F. Ogliaro, M. J. Bearpark, J. J. Heyd, E. N. Brothers, K. N. Kudin, 
 V. N. Staroverov, T. A. Keith, R. Kobayashi, J. Normand, 
 K. Raghavachari, A. P. Rendell, J. C. Burant, S. S. Iyengar, 
 J. Tomasi, M. Cossi, J. M. Millam, M. Klene, C. Adamo, R. Cammi, 
 J. W. Ochterski, R. L. Martin, K. Morokuma, O. Farkas, 
 J. B. Foresman, and D. J. Fox, Gaussian, Inc., Wallingford CT, 2019.
 
 ******************************************
 Gaussian 16:  ES64L-G16RevC.01  3-Jul-2019
                18-Oct-2021 
 ******************************************
 %chk=_3_alde1_6_ami1_1_opt_dcm.chk
 %mem=60000mb
 %nprocshared=32
 Will use up to   32 processors via shared memory.
 ----------------------------------------------------------------------
 #P PBE1PBE/Def2TZVP SP SCF=(YQC,MaxCycle=900) int=(Grid=Superfinegrid)
  EmpiricalDispersion=GD3 SCRF=(PCM,Solvent=Dichloromethane)
 ----------------------------------------------------------------------
 1/38=1,172=1/1;
 2/12=2,17=6,18=5,40=1/2;
 3/5=44,7=101,11=2,25=1,30=1,70=2201,72=9,74=-13,75=-7,124=31/1,2,3;
 4//1;
 5/5=2,7=900,8=4,13=1,38=1,53=9/8,2,8;
 6/7=2,8=2,9=2,10=2,28=1/1;
 99/5=1,9=1/99;
 Leave Link    1 at Mon Oct 18 19:38:10 2021, MaxMem=  7864320000 cpu:               8.6 elap:               0.3
 (Enter /apps/gaussian/g16-c01-avx/g16/l101.exe)
 -------------------------
 _3_alde1_6_ami1_1_opt_dcm
 -------------------------
 Symbolic Z-matrix:
 Charge =  0 Multiplicity = 1
 C                    -2.8508   -2.1294   -0.3838 
 C                    -2.8718   -3.1333   -1.505 
 C                    -2.5694   -2.583     0.894 
 C                    -2.5464   -1.7136    1.9811 
 H                    -2.3436   -3.623     1.0593 
 C                    -2.8053   -0.3651    1.7745 
 C                    -3.1051    0.1056    0.4981 
 H                    -2.8027    0.3374    2.5936 
 C                    -3.1173   -0.7828   -0.5781 
 C                    -3.4604    1.5035    0.2943 
 H                    -3.3581   -0.4169   -1.5668 
 C                    -2.2394   -2.239     3.3046 
 H                    -3.5578    1.8316   -0.753 
 H                    -1.8475   -1.517     4.0376 
 C                     1.9178   -2.06     -0.1443 
 C                     1.9376   -2.0602   -1.653 
 C                     2.6812   -1.1536    0.5727 
 C                     2.6623   -1.1525    1.9674 
 H                     3.287    -0.4209    0.0657 
 C                     1.863    -2.0641    2.6413 
 C                     1.102    -2.9897    1.931 
 H                     1.8274   -2.0875    3.7197 
 C                     1.1298   -2.9788    0.5378 
 C                     0.2626   -3.9471    2.6315 
 H                     0.5227   -3.6801   -0.0156 
 C                     3.4807   -0.1984    2.7051 
 H                    -0.3337   -4.6124    1.99 
 H                     3.1179    0.0707    3.7102 
 C                     1.3012    3.9989   -1.9841 
 C                     1.184     4.4086   -3.4273 
 C                     0.2215    4.1076   -1.1261 
 C                     0.3395    3.7493    0.2181 
 H                    -0.7327    4.469    -1.4764 
 C                     1.5641    3.3024    0.6989 
 C                     2.6593    3.195    -0.154 
 H                     1.6905    3.0316    1.736 
 C                     2.5143    3.529    -1.4978 
 C                     3.9564    2.7647    0.3492 
 H                     3.3487    3.4301   -2.1772 
 C                    -0.8051    3.8678    1.1101 
 H                     4.6658    2.3974   -0.4098 
 H                    -0.66      3.4912    2.1346 
 C                    -1.9551   -5.1592   -2.2207 
 C                    -3.4658   -5.365    -1.9191 
 N                    -1.6565   -3.9383   -1.4868 
 H                    -1.3552   -5.9717   -1.7951 
 C                    -1.6214   -5.0752   -3.7288 
 N                    -3.9489   -4.0975   -1.3624 
 H                    -4.0074   -5.5162   -2.8611 
 C                    -3.8046   -6.5506   -0.9963 
 H                    -2.1466   -4.2075   -4.1448 
 C                    -2.0465   -6.3241   -4.4983 
 C                    -0.1154   -4.8848   -3.9195 
 H                    -4.8788   -6.4685   -0.7874 
 C                    -3.0603   -6.5203    0.3385 
 C                    -3.5647   -7.8864   -1.6964 
 H                     0.4197   -5.7571   -3.5471 
 H                     0.2488   -4.0091   -3.3904 
 H                     0.1175   -4.7678   -4.9764 
 H                    -1.5702   -7.2072   -4.0781 
 H                    -1.7406   -6.2362   -5.5391 
 H                    -3.1221   -6.4712   -4.4782 
 H                    -4.1185   -7.9391   -2.6304 
 H                    -3.8919   -8.7055   -1.0596 
 H                    -2.5087   -8.0254   -1.913 
 H                    -1.9853   -6.5817    0.1897 
 H                    -3.3693   -7.3668    0.9486 
 H                    -3.2767   -5.6134    0.8979 
 C                     2.3782   -0.799    -3.5697 
 C                     0.8733   -1.1922   -3.5438 
 N                     2.7826   -1.0077   -2.192 
 H                     2.5072    0.2662   -3.8023 
 C                     3.1703   -1.62     -4.614 
 N                     0.6239   -1.7931   -2.2285 
 H                     0.7081   -1.982    -4.2884 
 C                    -0.0709   -0.0284   -3.8839 
 H                     2.958    -2.6832   -4.4493 
 C                     4.6767   -1.3937   -4.4784 
 C                     2.7399   -1.2423   -6.0299 
 H                     0.3521    0.4614   -4.7699 
 C                    -0.1688    1.0007   -2.7572 
 C                    -1.4568   -0.5523   -4.2519 
 H                     3.243    -1.8753   -6.7575 
 H                     3.009    -0.2085   -6.2357 
 H                     1.6677   -1.3547   -6.168 
 H                     5.0698   -1.8126   -3.5542 
 H                     4.9012   -0.3289   -4.5004 
 H                     5.1992   -1.8728   -5.3035 
 H                    -1.8637   -1.1291   -3.4262 
 H                    -1.4076   -1.1943   -5.1292 
 H                    -2.1312    0.2737   -4.4685 
 H                     0.8147    1.2434   -2.3611 
 H                    -0.79      0.6365   -1.9401 
 H                    -0.6267    1.917    -3.1235 
 C                     2.2511    4.2371   -5.5194 
 C                     2.0662    5.7251   -5.0991 
 N                     1.9215    3.4985   -4.3086 
 H                     3.3087    4.0445   -5.7502 
 C                     1.4421    3.8631   -6.7801 
 N                     1.7844    5.7071   -3.6683 
 H                     1.1644    6.1137   -5.5904 
 C                     3.2336    6.6409   -5.4886 
 H                     1.6491    4.64     -7.5258 
 C                    -0.0664    3.8115   -6.542 
 C                     1.9201    2.5233   -7.3388 
 H                     3.4339    6.4565   -6.551 
 C                     4.5147    6.3602   -4.702 
 C                     2.8265    8.1028   -5.3133 
 H                     2.9838    2.5563   -7.5647 
 H                     1.3829    2.2772   -8.252 
 H                     1.7472    1.7261   -6.6182 
 H                    -0.4393    4.7537   -6.1478 
 H                    -0.3245    3.0176   -5.8428 
 H                    -0.5803    3.6097   -7.4795 
 H                     1.9925    8.3509   -5.9656 
 H                     3.6585    8.7611   -5.5526 
 H                     2.5211    8.2799   -4.2852 
 H                     4.436     6.7378   -3.6845 
 H                     5.3544    6.8623   -5.1773 
 H                     4.7329    5.2954   -4.6641 
 C                    -1.9814   -3.9842    4.8338 
 C                    -0.7462   -4.8754    4.5063 
 N                    -2.4126   -3.4575    3.5762 
 H                    -1.6428   -3.1775    5.5073 
 C                    -3.1418   -4.743     5.5028 
 N                     0.2102   -4.0042    3.8913 
 H                    -1.0879   -5.6476    3.7959 
 C                    -0.1112   -5.5572    5.7293 
 H                    -2.7736   -5.1736    6.4392 
 C                    -3.6873   -5.8563    4.6133 
 C                    -4.2539   -3.7494    5.8403 
 H                    -0.8613   -6.2069    6.1913 
 C                     0.383    -4.5431    6.7565 
 C                     1.0505   -6.4304    5.2539 
 H                    -4.651    -3.309     4.9283 
 H                    -3.8778   -2.949     6.4745 
 H                    -5.0635   -4.2514    6.3653 
 H                    -4.5889   -6.2766    5.0536 
 H                    -2.9624   -6.6573    4.4953 
 H                    -3.9288   -5.454     3.6336 
 H                     1.8124   -5.81      4.7876 
 H                     0.7092   -7.1633    4.5253 
 H                     1.4957   -6.9606    6.0927 
 H                     0.9613   -5.0452    7.5291 
 H                    -0.4476   -4.0301    7.2344 
 H                     1.0145   -3.8087    6.265 
 C                    -4.115     3.619     1.0562 
 C                    -2.9931    4.5266    1.6203 
 N                    -3.6918    2.2689    1.2676 
 H                    -4.215     3.845    -0.0206 
 C                    -5.4893    3.8013    1.7336 
 N                    -1.8845    4.3918    0.7263 
 H                    -2.743     4.1575    2.631 
 C                    -3.3608    6.0219    1.7117 
 H                    -5.7984    4.8426    1.6039 
 C                    -5.4368    3.4693    3.2219 
 C                    -6.5201    2.9146    1.0344 
 H                    -4.2316    6.1211    2.3666 
 C                    -3.6854    6.6118    0.3425 
 C                    -2.2019    6.7876    2.3506 
 H                    -6.2619    1.8652    1.1585 
 H                    -6.5615    3.1364   -0.0304 
 H                    -7.508     3.0807    1.4578 
 H                    -6.4364    3.5136    3.6492 
 H                    -4.8045    4.171     3.7592 
 H                    -5.0401    2.4672    3.3578 
 H                    -1.3191    6.732     1.7176 
 H                    -1.9547    6.3715    3.3254 
 H                    -2.4692    7.8338    2.4819 
 H                    -3.8451    7.6847    0.4274 
 H                    -4.5836    6.1653   -0.0756 
 H                    -2.8571    6.4323   -0.3369 
 C                     5.3148    1.2212    2.9639 
 C                     5.5523    2.4149    2.0093 
 N                     4.5427    0.2705    2.2191 
 H                     4.7502    1.5834    3.8401 
 C                     6.6126    0.5535    3.4668 
 N                     4.2576    2.8444    1.5693 
 H                     6.1505    2.0482    1.1565 
 C                     6.2908    3.6056    2.6527 
 H                     7.2145    1.3223    3.9618 
 C                     7.421    -0.0638    2.3288 
 C                     6.2684   -0.5154    4.5039 
 H                     7.2614    3.2481    3.0116 
 C                     5.5096    4.2039    3.8192 
 C                     6.5443    4.6748    1.5896 
 H                     5.6823   -1.3108    4.0484 
 H                     5.6947   -0.0883    5.3243 
 H                     7.1783   -0.9489    4.9128 
 H                     6.7854   -0.7232    1.7439 
 H                     8.2514   -0.6396    2.7321 
 H                     7.8276    0.7024    1.6742 
 H                     7.1262    5.4929    2.0082 
 H                     5.5997    5.0721    1.2249 
 H                     7.0938    4.2594    0.7468 
 H                     5.9808    5.1275    4.1484 
 H                     5.4787    3.5207    4.6638 
 H                     4.4925    4.4195    3.5038 
 H                     3.769    -1.2032   -2.0901 
 H                     2.248    -3.0697   -2.0027 
 H                     0.1487   -1.124    -1.6308 
 H                     2.6558    5.7556   -3.1492 
 H                     1.4152    2.6423   -4.4899 
 H                     0.1148    4.4867   -3.6995 
 H                    -4.1737   -4.2091   -0.38 
 H                    -0.8593   -3.4218   -1.8457 
 H                    -3.0255   -2.6152   -2.4733 
 
 ITRead=  0  0  0  0  0  0  0  0  0  0  0  0  0  0  0  0  0  0  0  0
 ITRead=  0  0  0  0  0  0  0  0  0  0  0  0  0  0  0  0  0  0  0  0
 ITRead=  0  0  0  0  0  0  0  0  0  0  0  0  0  0  0  0  0  0  0  0
 ITRead=  0  0  0  0  0  0  0  0  0  0  0  0  0  0  0  0  0  0  0  0
 ITRead=  0  0  0  0  0  0  0  0  0  0  0  0  0  0  0  0  0  0  0  0
 ITRead=  0  0  0  0  0  0  0  0  0  0  0  0  0  0  0  0  0  0  0  0
 ITRead=  0  0  0  0  0  0  0  0  0  0  0  0  0  0  0  0  0  0  0  0
 ITRead=  0  0  0  0  0  0  0  0  0  0  0  0  0  0  0  0  0  0  0  0
 ITRead=  0  0  0  0  0  0  0  0  0  0  0  0  0  0  0  0  0  0  0  0
 ITRead=  0  0  0  0  0  0  0  0  0  0  0  0  0  0  0  0  0  0  0  0
 ITRead=  0  0  0  0  0  0  0
 MicOpt= -1 -1 -1 -1 -1 -1 -1 -1 -1 -1 -1 -1 -1 -1 -1 -1 -1 -1 -1 -1
 MicOpt= -1 -1 -1 -1 -1 -1 -1 -1 -1 -1 -1 -1 -1 -1 -1 -1 -1 -1 -1 -1
 MicOpt= -1 -1 -1 -1 -1 -1 -1 -1 -1 -1 -1 -1 -1 -1 -1 -1 -1 -1 -1 -1
 MicOpt= -1 -1 -1 -1 -1 -1 -1 -1 -1 -1 -1 -1 -1 -1 -1 -1 -1 -1 -1 -1
 MicOpt= -1 -1 -1 -1 -1 -1 -1 -1 -1 -1 -1 -1 -1 -1 -1 -1 -1 -1 -1 -1
 MicOpt= -1 -1 -1 -1 -1 -1 -1 -1 -1 -1 -1 -1 -1 -1 -1 -1 -1 -1 -1 -1
 MicOpt= -1 -1 -1 -1 -1 -1 -1 -1 -1 -1 -1 -1 -1 -1 -1 -1 -1 -1 -1 -1
 MicOpt= -1 -1 -1 -1 -1 -1 -1 -1 -1 -1 -1 -1 -1 -1 -1 -1 -1 -1 -1 -1
 MicOpt= -1 -1 -1 -1 -1 -1 -1 -1 -1 -1 -1 -1 -1 -1 -1 -1 -1 -1 -1 -1
 MicOpt= -1 -1 -1 -1 -1 -1 -1 -1 -1 -1 -1 -1 -1 -1 -1 -1 -1 -1 -1 -1
 MicOpt= -1 -1 -1 -1 -1 -1 -1
 NAtoms=    207 NQM=      207 NQMF=       0 NMMI=      0 NMMIF=      0
                NMic=       0 NMicF=      0.
                    Isotopes and Nuclear Properties:
 (Nuclear quadrupole moments (NQMom) in fm**2, nuclear magnetic moments (NMagM)
  in nuclear magnetons)

  Atom         1           2           3           4           5           6           7           8           9          10
 IAtWgt=          12          12          12          12           1          12          12           1          12          12
 AtmWgt=  12.0000000  12.0000000  12.0000000  12.0000000   1.0078250  12.0000000  12.0000000   1.0078250  12.0000000  12.0000000
 NucSpn=           0           0           0           0           1           0           0           1           0           0
 AtZEff=  -0.0000000  -0.0000000  -0.0000000  -0.0000000  -0.0000000  -0.0000000  -0.0000000  -0.0000000  -0.0000000  -0.0000000
 NQMom=    0.0000000   0.0000000   0.0000000   0.0000000   0.0000000   0.0000000   0.0000000   0.0000000   0.0000000   0.0000000
 NMagM=    0.0000000   0.0000000   0.0000000   0.0000000   2.7928460   0.0000000   0.0000000   2.7928460   0.0000000   0.0000000
 AtZNuc=   6.0000000   6.0000000   6.0000000   6.0000000   1.0000000   6.0000000   6.0000000   1.0000000   6.0000000   6.0000000

  Atom        11          12          13          14          15          16          17          18          19          20
 IAtWgt=           1          12           1           1          12          12          12          12           1          12
 AtmWgt=   1.0078250  12.0000000   1.0078250   1.0078250  12.0000000  12.0000000  12.0000000  12.0000000   1.0078250  12.0000000
 NucSpn=           1           0           1           1           0           0           0           0           1           0
 AtZEff=  -0.0000000  -0.0000000  -0.0000000  -0.0000000  -0.0000000  -0.0000000  -0.0000000  -0.0000000  -0.0000000  -0.0000000
 NQMom=    0.0000000   0.0000000   0.0000000   0.0000000   0.0000000   0.0000000   0.0000000   0.0000000   0.0000000   0.0000000
 NMagM=    2.7928460   0.0000000   2.7928460   2.7928460   0.0000000   0.0000000   0.0000000   0.0000000   2.7928460   0.0000000
 AtZNuc=   1.0000000   6.0000000   1.0000000   1.0000000   6.0000000   6.0000000   6.0000000   6.0000000   1.0000000   6.0000000

  Atom        21          22          23          24          25          26          27          28          29          30
 IAtWgt=          12           1          12          12           1          12           1           1          12          12
 AtmWgt=  12.0000000   1.0078250  12.0000000  12.0000000   1.0078250  12.0000000   1.0078250   1.0078250  12.0000000  12.0000000
 NucSpn=           0           1           0           0           1           0           1           1           0           0
 AtZEff=  -0.0000000  -0.0000000  -0.0000000  -0.0000000  -0.0000000  -0.0000000  -0.0000000  -0.0000000  -0.0000000  -0.0000000
 NQMom=    0.0000000   0.0000000   0.0000000   0.0000000   0.0000000   0.0000000   0.0000000   0.0000000   0.0000000   0.0000000
 NMagM=    0.0000000   2.7928460   0.0000000   0.0000000   2.7928460   0.0000000   2.7928460   2.7928460   0.0000000   0.0000000
 AtZNuc=   6.0000000   1.0000000   6.0000000   6.0000000   1.0000000   6.0000000   1.0000000   1.0000000   6.0000000   6.0000000

  Atom        31          32          33          34          35          36          37          38          39          40
 IAtWgt=          12          12           1          12          12           1          12          12           1          12
 AtmWgt=  12.0000000  12.0000000   1.0078250  12.0000000  12.0000000   1.0078250  12.0000000  12.0000000   1.0078250  12.0000000
 NucSpn=           0           0           1           0           0           1           0           0           1           0
 AtZEff=  -0.0000000  -0.0000000  -0.0000000  -0.0000000  -0.0000000  -0.0000000  -0.0000000  -0.0000000  -0.0000000  -0.0000000
 NQMom=    0.0000000   0.0000000   0.0000000   0.0000000   0.0000000   0.0000000   0.0000000   0.0000000   0.0000000   0.0000000
 NMagM=    0.0000000   0.0000000   2.7928460   0.0000000   0.0000000   2.7928460   0.0000000   0.0000000   2.7928460   0.0000000
 AtZNuc=   6.0000000   6.0000000   1.0000000   6.0000000   6.0000000   1.0000000   6.0000000   6.0000000   1.0000000   6.0000000

  Atom        41          42          43          44          45          46          47          48          49          50
 IAtWgt=           1           1          12          12          14           1          12          14           1          12
 AtmWgt=   1.0078250   1.0078250  12.0000000  12.0000000  14.0030740   1.0078250  12.0000000  14.0030740   1.0078250  12.0000000
 NucSpn=           1           1           0           0           2           1           0           2           1           0
 AtZEff=  -0.0000000  -0.0000000  -0.0000000  -0.0000000  -0.0000000  -0.0000000  -0.0000000  -0.0000000  -0.0000000  -0.0000000
 NQMom=    0.0000000   0.0000000   0.0000000   0.0000000   2.0440000   0.0000000   0.0000000   2.0440000   0.0000000   0.0000000
 NMagM=    2.7928460   2.7928460   0.0000000   0.0000000   0.4037610   2.7928460   0.0000000   0.4037610   2.7928460   0.0000000
 AtZNuc=   1.0000000   1.0000000   6.0000000   6.0000000   7.0000000   1.0000000   6.0000000   7.0000000   1.0000000   6.0000000

  Atom        51          52          53          54          55          56          57          58          59          60
 IAtWgt=           1          12          12           1          12          12           1           1           1           1
 AtmWgt=   1.0078250  12.0000000  12.0000000   1.0078250  12.0000000  12.0000000   1.0078250   1.0078250   1.0078250   1.0078250
 NucSpn=           1           0           0           1           0           0           1           1           1           1
 AtZEff=  -0.0000000  -0.0000000  -0.0000000  -0.0000000  -0.0000000  -0.0000000  -0.0000000  -0.0000000  -0.0000000  -0.0000000
 NQMom=    0.0000000   0.0000000   0.0000000   0.0000000   0.0000000   0.0000000   0.0000000   0.0000000   0.0000000   0.0000000
 NMagM=    2.7928460   0.0000000   0.0000000   2.7928460   0.0000000   0.0000000   2.7928460   2.7928460   2.7928460   2.7928460
 AtZNuc=   1.0000000   6.0000000   6.0000000   1.0000000   6.0000000   6.0000000   1.0000000   1.0000000   1.0000000   1.0000000

  Atom        61          62          63          64          65          66          67          68          69          70
 IAtWgt=           1           1           1           1           1           1           1           1          12          12
 AtmWgt=   1.0078250   1.0078250   1.0078250   1.0078250   1.0078250   1.0078250   1.0078250   1.0078250  12.0000000  12.0000000
 NucSpn=           1           1           1           1           1           1           1           1           0           0
 AtZEff=  -0.0000000  -0.0000000  -0.0000000  -0.0000000  -0.0000000  -0.0000000  -0.0000000  -0.0000000  -0.0000000  -0.0000000
 NQMom=    0.0000000   0.0000000   0.0000000   0.0000000   0.0000000   0.0000000   0.0000000   0.0000000   0.0000000   0.0000000
 NMagM=    2.7928460   2.7928460   2.7928460   2.7928460   2.7928460   2.7928460   2.7928460   2.7928460   0.0000000   0.0000000
 AtZNuc=   1.0000000   1.0000000   1.0000000   1.0000000   1.0000000   1.0000000   1.0000000   1.0000000   6.0000000   6.0000000

  Atom        71          72          73          74          75          76          77          78          79          80
 IAtWgt=          14           1          12          14           1          12           1          12          12           1
 AtmWgt=  14.0030740   1.0078250  12.0000000  14.0030740   1.0078250  12.0000000   1.0078250  12.0000000  12.0000000   1.0078250
 NucSpn=           2           1           0           2           1           0           1           0           0           1
 AtZEff=  -0.0000000  -0.0000000  -0.0000000  -0.0000000  -0.0000000  -0.0000000  -0.0000000  -0.0000000  -0.0000000  -0.0000000
 NQMom=    2.0440000   0.0000000   0.0000000   2.0440000   0.0000000   0.0000000   0.0000000   0.0000000   0.0000000   0.0000000
 NMagM=    0.4037610   2.7928460   0.0000000   0.4037610   2.7928460   0.0000000   2.7928460   0.0000000   0.0000000   2.7928460
 AtZNuc=   7.0000000   1.0000000   6.0000000   7.0000000   1.0000000   6.0000000   1.0000000   6.0000000   6.0000000   1.0000000

  Atom        81          82          83          84          85          86          87          88          89          90
 IAtWgt=          12          12           1           1           1           1           1           1           1           1
 AtmWgt=  12.0000000  12.0000000   1.0078250   1.0078250   1.0078250   1.0078250   1.0078250   1.0078250   1.0078250   1.0078250
 NucSpn=           0           0           1           1           1           1           1           1           1           1
 AtZEff=  -0.0000000  -0.0000000  -0.0000000  -0.0000000  -0.0000000  -0.0000000  -0.0000000  -0.0000000  -0.0000000  -0.0000000
 NQMom=    0.0000000   0.0000000   0.0000000   0.0000000   0.0000000   0.0000000   0.0000000   0.0000000   0.0000000   0.0000000
 NMagM=    0.0000000   0.0000000   2.7928460   2.7928460   2.7928460   2.7928460   2.7928460   2.7928460   2.7928460   2.7928460
 AtZNuc=   6.0000000   6.0000000   1.0000000   1.0000000   1.0000000   1.0000000   1.0000000   1.0000000   1.0000000   1.0000000

  Atom        91          92          93          94          95          96          97          98          99         100
 IAtWgt=           1           1           1           1          12          12          14           1          12          14
 AtmWgt=   1.0078250   1.0078250   1.0078250   1.0078250  12.0000000  12.0000000  14.0030740   1.0078250  12.0000000  14.0030740
 NucSpn=           1           1           1           1           0           0           2           1           0           2
 AtZEff=  -0.0000000  -0.0000000  -0.0000000  -0.0000000  -0.0000000  -0.0000000  -0.0000000  -0.0000000  -0.0000000  -0.0000000
 NQMom=    0.0000000   0.0000000   0.0000000   0.0000000   0.0000000   0.0000000   2.0440000   0.0000000   0.0000000   2.0440000
 NMagM=    2.7928460   2.7928460   2.7928460   2.7928460   0.0000000   0.0000000   0.4037610   2.7928460   0.0000000   0.4037610
 AtZNuc=   1.0000000   1.0000000   1.0000000   1.0000000   6.0000000   6.0000000   7.0000000   1.0000000   6.0000000   7.0000000

  Atom       101         102         103         104         105         106         107         108         109         110
 IAtWgt=           1          12           1          12          12           1          12          12           1           1
 AtmWgt=   1.0078250  12.0000000   1.0078250  12.0000000  12.0000000   1.0078250  12.0000000  12.0000000   1.0078250   1.0078250
 NucSpn=           1           0           1           0           0           1           0           0           1           1
 AtZEff=  -0.0000000  -0.0000000  -0.0000000  -0.0000000  -0.0000000  -0.0000000  -0.0000000  -0.0000000  -0.0000000  -0.0000000
 NQMom=    0.0000000   0.0000000   0.0000000   0.0000000   0.0000000   0.0000000   0.0000000   0.0000000   0.0000000   0.0000000
 NMagM=    2.7928460   0.0000000   2.7928460   0.0000000   0.0000000   2.7928460   0.0000000   0.0000000   2.7928460   2.7928460
 AtZNuc=   1.0000000   6.0000000   1.0000000   6.0000000   6.0000000   1.0000000   6.0000000   6.0000000   1.0000000   1.0000000

  Atom       111         112         113         114         115         116         117         118         119         120
 IAtWgt=           1           1           1           1           1           1           1           1           1           1
 AtmWgt=   1.0078250   1.0078250   1.0078250   1.0078250   1.0078250   1.0078250   1.0078250   1.0078250   1.0078250   1.0078250
 NucSpn=           1           1           1           1           1           1           1           1           1           1
 AtZEff=  -0.0000000  -0.0000000  -0.0000000  -0.0000000  -0.0000000  -0.0000000  -0.0000000  -0.0000000  -0.0000000  -0.0000000
 NQMom=    0.0000000   0.0000000   0.0000000   0.0000000   0.0000000   0.0000000   0.0000000   0.0000000   0.0000000   0.0000000
 NMagM=    2.7928460   2.7928460   2.7928460   2.7928460   2.7928460   2.7928460   2.7928460   2.7928460   2.7928460   2.7928460
 AtZNuc=   1.0000000   1.0000000   1.0000000   1.0000000   1.0000000   1.0000000   1.0000000   1.0000000   1.0000000   1.0000000

  Atom       121         122         123         124         125         126         127         128         129         130
 IAtWgt=          12          12          14           1          12          14           1          12           1          12
 AtmWgt=  12.0000000  12.0000000  14.0030740   1.0078250  12.0000000  14.0030740   1.0078250  12.0000000   1.0078250  12.0000000
 NucSpn=           0           0           2           1           0           2           1           0           1           0
 AtZEff=  -0.0000000  -0.0000000  -0.0000000  -0.0000000  -0.0000000  -0.0000000  -0.0000000  -0.0000000  -0.0000000  -0.0000000
 NQMom=    0.0000000   0.0000000   2.0440000   0.0000000   0.0000000   2.0440000   0.0000000   0.0000000   0.0000000   0.0000000
 NMagM=    0.0000000   0.0000000   0.4037610   2.7928460   0.0000000   0.4037610   2.7928460   0.0000000   2.7928460   0.0000000
 AtZNuc=   6.0000000   6.0000000   7.0000000   1.0000000   6.0000000   7.0000000   1.0000000   6.0000000   1.0000000   6.0000000

  Atom       131         132         133         134         135         136         137         138         139         140
 IAtWgt=          12           1          12          12           1           1           1           1           1           1
 AtmWgt=  12.0000000   1.0078250  12.0000000  12.0000000   1.0078250   1.0078250   1.0078250   1.0078250   1.0078250   1.0078250
 NucSpn=           0           1           0           0           1           1           1           1           1           1
 AtZEff=  -0.0000000  -0.0000000  -0.0000000  -0.0000000  -0.0000000  -0.0000000  -0.0000000  -0.0000000  -0.0000000  -0.0000000
 NQMom=    0.0000000   0.0000000   0.0000000   0.0000000   0.0000000   0.0000000   0.0000000   0.0000000   0.0000000   0.0000000
 NMagM=    0.0000000   2.7928460   0.0000000   0.0000000   2.7928460   2.7928460   2.7928460   2.7928460   2.7928460   2.7928460
 AtZNuc=   6.0000000   1.0000000   6.0000000   6.0000000   1.0000000   1.0000000   1.0000000   1.0000000   1.0000000   1.0000000

  Atom       141         142         143         144         145         146         147         148         149         150
 IAtWgt=           1           1           1           1           1           1          12          12          14           1
 AtmWgt=   1.0078250   1.0078250   1.0078250   1.0078250   1.0078250   1.0078250  12.0000000  12.0000000  14.0030740   1.0078250
 NucSpn=           1           1           1           1           1           1           0           0           2           1
 AtZEff=  -0.0000000  -0.0000000  -0.0000000  -0.0000000  -0.0000000  -0.0000000  -0.0000000  -0.0000000  -0.0000000  -0.0000000
 NQMom=    0.0000000   0.0000000   0.0000000   0.0000000   0.0000000   0.0000000   0.0000000   0.0000000   2.0440000   0.0000000
 NMagM=    2.7928460   2.7928460   2.7928460   2.7928460   2.7928460   2.7928460   0.0000000   0.0000000   0.4037610   2.7928460
 AtZNuc=   1.0000000   1.0000000   1.0000000   1.0000000   1.0000000   1.0000000   6.0000000   6.0000000   7.0000000   1.0000000

  Atom       151         152         153         154         155         156         157         158         159         160
 IAtWgt=          12          14           1          12           1          12          12           1          12          12
 AtmWgt=  12.0000000  14.0030740   1.0078250  12.0000000   1.0078250  12.0000000  12.0000000   1.0078250  12.0000000  12.0000000
 NucSpn=           0           2           1           0           1           0           0           1           0           0
 AtZEff=  -0.0000000  -0.0000000  -0.0000000  -0.0000000  -0.0000000  -0.0000000  -0.0000000  -0.0000000  -0.0000000  -0.0000000
 NQMom=    0.0000000   2.0440000   0.0000000   0.0000000   0.0000000   0.0000000   0.0000000   0.0000000   0.0000000   0.0000000
 NMagM=    0.0000000   0.4037610   2.7928460   0.0000000   2.7928460   0.0000000   0.0000000   2.7928460   0.0000000   0.0000000
 AtZNuc=   6.0000000   7.0000000   1.0000000   6.0000000   1.0000000   6.0000000   6.0000000   1.0000000   6.0000000   6.0000000

  Atom       161         162         163         164         165         166         167         168         169         170
 IAtWgt=           1           1           1           1           1           1           1           1           1           1
 AtmWgt=   1.0078250   1.0078250   1.0078250   1.0078250   1.0078250   1.0078250   1.0078250   1.0078250   1.0078250   1.0078250
 NucSpn=           1           1           1           1           1           1           1           1           1           1
 AtZEff=  -0.0000000  -0.0000000  -0.0000000  -0.0000000  -0.0000000  -0.0000000  -0.0000000  -0.0000000  -0.0000000  -0.0000000
 NQMom=    0.0000000   0.0000000   0.0000000   0.0000000   0.0000000   0.0000000   0.0000000   0.0000000   0.0000000   0.0000000
 NMagM=    2.7928460   2.7928460   2.7928460   2.7928460   2.7928460   2.7928460   2.7928460   2.7928460   2.7928460   2.7928460
 AtZNuc=   1.0000000   1.0000000   1.0000000   1.0000000   1.0000000   1.0000000   1.0000000   1.0000000   1.0000000   1.0000000

  Atom       171         172         173         174         175         176         177         178         179         180
 IAtWgt=           1           1          12          12          14           1          12          14           1          12
 AtmWgt=   1.0078250   1.0078250  12.0000000  12.0000000  14.0030740   1.0078250  12.0000000  14.0030740   1.0078250  12.0000000
 NucSpn=           1           1           0           0           2           1           0           2           1           0
 AtZEff=  -0.0000000  -0.0000000  -0.0000000  -0.0000000  -0.0000000  -0.0000000  -0.0000000  -0.0000000  -0.0000000  -0.0000000
 NQMom=    0.0000000   0.0000000   0.0000000   0.0000000   2.0440000   0.0000000   0.0000000   2.0440000   0.0000000   0.0000000
 NMagM=    2.7928460   2.7928460   0.0000000   0.0000000   0.4037610   2.7928460   0.0000000   0.4037610   2.7928460   0.0000000
 AtZNuc=   1.0000000   1.0000000   6.0000000   6.0000000   7.0000000   1.0000000   6.0000000   7.0000000   1.0000000   6.0000000

  Atom       181         182         183         184         185         186         187         188         189         190
 IAtWgt=           1          12          12           1          12          12           1           1           1           1
 AtmWgt=   1.0078250  12.0000000  12.0000000   1.0078250  12.0000000  12.0000000   1.0078250   1.0078250   1.0078250   1.0078250
 NucSpn=           1           0           0           1           0           0           1           1           1           1
 AtZEff=  -0.0000000  -0.0000000  -0.0000000  -0.0000000  -0.0000000  -0.0000000  -0.0000000  -0.0000000  -0.0000000  -0.0000000
 NQMom=    0.0000000   0.0000000   0.0000000   0.0000000   0.0000000   0.0000000   0.0000000   0.0000000   0.0000000   0.0000000
 NMagM=    2.7928460   0.0000000   0.0000000   2.7928460   0.0000000   0.0000000   2.7928460   2.7928460   2.7928460   2.7928460
 AtZNuc=   1.0000000   6.0000000   6.0000000   1.0000000   6.0000000   6.0000000   1.0000000   1.0000000   1.0000000   1.0000000

  Atom       191         192         193         194         195         196         197         198         199         200
 IAtWgt=           1           1           1           1           1           1           1           1           1           1
 AtmWgt=   1.0078250   1.0078250   1.0078250   1.0078250   1.0078250   1.0078250   1.0078250   1.0078250   1.0078250   1.0078250
 NucSpn=           1           1           1           1           1           1           1           1           1           1
 AtZEff=  -0.0000000  -0.0000000  -0.0000000  -0.0000000  -0.0000000  -0.0000000  -0.0000000  -0.0000000  -0.0000000  -0.0000000
 NQMom=    0.0000000   0.0000000   0.0000000   0.0000000   0.0000000   0.0000000   0.0000000   0.0000000   0.0000000   0.0000000
 NMagM=    2.7928460   2.7928460   2.7928460   2.7928460   2.7928460   2.7928460   2.7928460   2.7928460   2.7928460   2.7928460
 AtZNuc=   1.0000000   1.0000000   1.0000000   1.0000000   1.0000000   1.0000000   1.0000000   1.0000000   1.0000000   1.0000000

  Atom       201         202         203         204         205         206         207
 IAtWgt=           1           1           1           1           1           1           1
 AtmWgt=   1.0078250   1.0078250   1.0078250   1.0078250   1.0078250   1.0078250   1.0078250
 NucSpn=           1           1           1           1           1           1           1
 AtZEff=  -0.0000000  -0.0000000  -0.0000000  -0.0000000  -0.0000000  -0.0000000  -0.0000000
 NQMom=    0.0000000   0.0000000   0.0000000   0.0000000   0.0000000   0.0000000   0.0000000
 NMagM=    2.7928460   2.7928460   2.7928460   2.7928460   2.7928460   2.7928460   2.7928460
 AtZNuc=   1.0000000   1.0000000   1.0000000   1.0000000   1.0000000   1.0000000   1.0000000
 Leave Link  101 at Mon Oct 18 19:38:10 2021, MaxMem=  7864320000 cpu:               3.7 elap:               0.1
 (Enter /apps/gaussian/g16-c01-avx/g16/l202.exe)
 Stoichiometry    C75H120N12
 Framework group  C1[X(C75H120N12)]
 Deg. of freedom   615
 Full point group                 C1      NOp   1
 Largest Abelian subgroup         C1      NOp   1
 Largest concise Abelian subgroup C1      NOp   1
                         Standard orientation:                         
 ---------------------------------------------------------------------
 Center     Atomic      Atomic             Coordinates (Angstroms)
 Number     Number       Type             X           Y           Z
 ---------------------------------------------------------------------
      1          6           0        2.897658   -2.108604    1.257138
      2          6           0        3.230402   -3.327385    0.439091
      3          6           0        3.708670   -0.993606    1.127720
      4          6           0        3.469087    0.163962    1.863117
      5          1           0        4.532248   -1.003680    0.433799
      6          6           0        2.391152    0.198837    2.737763
      7          6           0        1.574205   -0.919023    2.891460
      8          1           0        2.178105    1.075997    3.329066
      9          6           0        1.829617   -2.067008    2.140125
     10          6           0        0.495711   -0.912830    3.870597
     11          1           0        1.199158   -2.936423    2.266749
     12          6           0        4.347901    1.312250    1.686862
     13          1           0       -0.186445   -1.777730    3.846445
     14          1           0        3.927477    2.294221    1.953576
     15          6           0        1.057217    0.247634   -2.466119
     16          6           0        0.393550   -1.041865   -2.882421
     17          6           0        0.333578    1.426944   -2.402848
     18          6           0        0.946592    2.618962   -2.017035
     19          1           0       -0.719364    1.440130   -2.630953
     20          6           0        2.293422    2.619261   -1.685241
     21          6           0        3.034552    1.442113   -1.758937
     22          1           0        2.795337    3.525650   -1.383078
     23          6           0        2.408960    0.258290   -2.145066
     24          6           0        4.445870    1.436207   -1.412446
     25          1           0        2.975956   -0.660353   -2.180475
     26          6           0        0.171594    3.852309   -1.966842
     27          1           0        4.941166    0.455350   -1.460622
     28          1           0        0.534648    4.620497   -1.265169
     29          6           0       -4.398836   -0.135543    0.783495
     30          6           0       -5.311285   -1.330115    0.713853
     31          6           0       -3.686109    0.146281    1.935158
     32          6           0       -2.858593    1.268538    2.005404
     33          1           0       -3.752833   -0.493996    2.800843
     34          6           0       -2.773061    2.121253    0.911742
     35          6           0       -3.490760    1.851067   -0.250301
     36          1           0       -2.153167    3.004307    0.940606
     37          6           0       -4.287756    0.711158   -0.311797
     38          6           0       -3.437625    2.759535   -1.387271
     39          1           0       -4.833610    0.475679   -1.214118
     40          6           0       -2.113308    1.552975    3.223378
     41          1           0       -3.751512    2.334259   -2.354149
     42          1           0       -1.420730    2.407780    3.177267
     43          6           0        4.194682   -4.026684   -1.570381
     44          6           0        5.090527   -4.493086   -0.389085
     45          7           0        3.408100   -2.964150   -0.961549
     46          1           0        4.799293   -3.589988   -2.373446
     47          6           0        3.338868   -5.154734   -2.193169
     48          7           0        4.498776   -3.921382    0.824522
     49          1           0        5.017713   -5.582837   -0.285661
     50          6           0        6.584818   -4.139336   -0.507197
     51          1           0        2.664204   -5.536305   -1.417911
     52          6           0        4.182713   -6.311314   -2.724995
     53          6           0        2.505558   -4.598751   -3.349514
     54          1           0        7.034649   -4.420112    0.453585
     55          6           0        6.845931   -2.650335   -0.733660
     56          6           0        7.265769   -4.959875   -1.600392
     57          1           0        3.161065   -4.251391   -4.146743
     58          1           0        1.883139   -3.767198   -3.032414
     59          1           0        1.859156   -5.375576   -3.754084
     60          1           0        4.891023   -5.951755   -3.468170
     61          1           0        3.537937   -7.048716   -3.199409
     62          1           0        4.736379   -6.811019   -1.935877
     63          1           0        7.121600   -6.024206   -1.432335
     64          1           0        8.334696   -4.757777   -1.607506
     65          1           0        6.865817   -4.707728   -2.579081
     66          1           0        6.405173   -2.312440   -1.668055
     67          1           0        7.918202   -2.469746   -0.777120
     68          1           0        6.441380   -2.044838    0.073767
     69          6           0       -1.634348   -2.186956   -3.069194
     70          6           0       -0.709111   -2.933665   -2.066018
     71          7           0       -1.026678   -0.871310   -3.139643
     72          1           0       -2.648077   -2.069938   -2.664156
     73          6           0       -1.738094   -2.931268   -4.420957
     74          7           0        0.447545   -2.059730   -1.838685
     75          1           0       -0.328672   -3.840719   -2.553895
     76          6           0       -1.424320   -3.365233   -0.776120
     77          1           0       -0.722518   -3.143495   -4.776143
     78          6           0       -2.458720   -2.085566   -5.471825
     79          6           0       -2.488760   -4.250252   -4.249328
     80          1           0       -2.373209   -3.819138   -1.088226
     81          6           0       -1.727968   -2.188771    0.152221
     82          6           0       -0.611770   -4.429514   -0.042851
     83          1           0       -2.492404   -4.805518   -5.184672
     84          1           0       -3.520922   -4.055147   -3.966334
     85          1           0       -2.033290   -4.876122   -3.486339
     86          1           0       -1.873754   -1.216435   -5.766065
     87          1           0       -3.418376   -1.744692   -5.087702
     88          1           0       -2.636911   -2.678568   -6.366214
     89          1           0        0.374887   -4.041490    0.193772
     90          1           0       -0.493473   -5.318848   -0.658750
     91          1           0       -1.106923   -4.716395    0.882638
     92          1           0       -2.141515   -1.348820   -0.401432
     93          1           0       -0.832129   -1.852227    0.672216
     94          1           0       -2.446981   -2.485628    0.912715
     95          6           0       -6.504821   -2.694875   -0.788778
     96          6           0       -7.452307   -2.053438    0.267543
     97          7           0       -5.250474   -1.980287   -0.598571
     98          1           0       -6.868231   -2.467288   -1.801210
     99          6           0       -6.430118   -4.232776   -0.674753
    100          7           0       -6.704036   -0.952615    0.863531
    101          1           0       -7.623088   -2.784986    1.068356
    102          6           0       -8.824649   -1.643305   -0.281720
    103          1           0       -7.464663   -4.592639   -0.622736
    104          6           0       -5.687467   -4.715276    0.570473
    105          6           0       -5.778742   -4.826094   -1.923504
    106          1           0       -9.216768   -2.512864   -0.822947
    107          6           0       -8.762948   -0.461674   -1.250582
    108          6           0       -9.769558   -1.318461    0.873804
    109          1           0       -6.324897   -4.536607   -2.818763
    110          1           0       -5.764024   -5.912209   -1.866766
    111          1           0       -4.752196   -4.477521   -2.020393
    112          1           0       -6.130420   -4.313353    1.478460
    113          1           0       -4.639154   -4.422429    0.537995
    114          1           0       -5.728371   -5.801089    0.625792
    115          1           0       -9.923559   -2.192451    1.502319
    116          1           0      -10.735509   -0.991839    0.495513
    117          1           0       -9.344828   -0.527213    1.486302
    118          1           0       -8.594763    0.470706   -0.715360
    119          1           0       -9.708231   -0.372746   -1.781281
    120          1           0       -7.971696   -0.590824   -1.985488
    121          6           0        6.322104    2.318500    0.951521
    122          6           0        6.411326    2.372149   -0.602948
    123          7           0        5.520076    1.171678    1.245554
    124          1           0        5.828413    3.246057    1.290529
    125          6           0        7.686223    2.190265    1.653375
    126          7           0        5.060567    2.482975   -1.066718
    127          1           0        6.862297    1.419856   -0.930794
    128          6           0        7.243042    3.542585   -1.152615
    129          1           0        8.295818    3.055905    1.376078
    130          6           0        8.415903    0.909589    1.258845
    131          6           0        7.469781    2.225234    3.166598
    132          1           0        8.266434    3.446340   -0.776305
    133          6           0        6.673781    4.894645   -0.733511
    134          6           0        7.282506    3.440464   -2.677752
    135          1           0        6.874315    1.370050    3.478791
    136          1           0        6.949248    3.134212    3.461735
    137          1           0        8.424673    2.192564    3.686401
    138          1           0        9.304324    0.782776    1.873683
    139          1           0        8.725352    0.937212    0.217459
    140          1           0        7.760194    0.056473    1.407903
    141          1           0        6.276268    3.531150   -3.080349
    142          1           0        7.693620    2.482261   -2.989710
    143          1           0        7.899724    4.232299   -3.096009
    144          1           0        7.186779    5.695900   -1.261025
    145          1           0        6.795603    5.059294    0.333965
    146          1           0        5.616026    4.933081   -0.977202
    147          6           0       -0.624744   -0.034697    5.730112
    148          6           0       -1.557807    1.173703    5.465974
    149          7           0        0.391506    0.007669    4.724131
    150          1           0       -1.236121   -0.951018    5.645563
    151          6           0        0.066598   -0.022148    7.109494
    152          7           0       -2.276522    0.867469    4.267612
    153          1           0       -0.918877    2.065431    5.336016
    154          6           0       -2.581812    1.452108    6.585520
    155          1           0       -0.709564   -0.018386    7.880356
    156          6           0        0.961438    1.201218    7.284578
    157          6           0        0.887939   -1.300963    7.275920
    158          1           0       -2.032438    1.650292    7.510690
    159          6           0       -3.525693    0.272331    6.798289
    160          6           0       -3.382239    2.706863    6.235599
    161          1           0        1.688375   -1.334288    6.540053
    162          1           0        0.261970   -2.181766    7.145315
    163          1           0        1.328923   -1.338084    8.269378
    164          1           0        1.507259    1.132550    8.223254
    165          1           0        0.377139    2.117377    7.295722
    166          1           0        1.673901    1.251527    6.466099
    167          1           0       -3.962105    2.543513    5.329957
    168          1           0       -2.719757    3.554951    6.073283
    169          1           0       -4.065435    2.955121    7.044818
    170          1           0       -4.293269    0.535299    7.523204
    171          1           0       -2.990664   -0.598037    7.168609
    172          1           0       -4.003944    0.014491    5.857715
    173          6           0       -1.590351    5.241305   -2.609030
    174          6           0       -3.064903    4.816847   -2.413787
    175          7           0       -0.839525    4.023389   -2.696415
    176          1           0       -1.278724    5.830972   -1.729900
    177          6           0       -1.345620    6.091999   -3.873721
    178          7           0       -3.090861    3.963645   -1.262400
    179          1           0       -3.376022    4.261252   -3.316061
    180          6           0       -4.040617    5.990935   -2.197891
    181          1           0       -1.990542    6.974503   -3.813505
    182          6           0       -1.661310    5.323965   -5.154376
    183          6           0        0.106122    6.570120   -3.894705
    184          1           0       -3.979804    6.646899   -3.072358
    185          6           0       -3.707941    6.791034   -0.941656
    186          6           0       -5.467989    5.449937   -2.110912
    187          1           0        0.783475    5.722197   -3.971350
    188          1           0        0.344602    7.123507   -2.988343
    189          1           0        0.274181    7.223445   -4.747913
    190          1           0       -1.130611    4.375672   -5.152861
    191          1           0       -1.349113    5.902243   -6.021491
    192          1           0       -2.726635    5.129183   -5.243974
    193          1           0       -6.178081    6.269757   -2.028539
    194          1           0       -5.573810    4.810308   -1.237529
    195          1           0       -5.716087    4.869299   -2.997550
    196          1           0       -4.498392    7.510098   -0.737760
    197          1           0       -2.775915    7.337608   -1.058489
    198          1           0       -3.616661    6.117136   -0.094317
    199          1           0       -1.214888   -0.389976   -4.008254
    200          1           0        0.935034   -1.449846   -3.764507
    201          1           0        0.354463   -1.594975   -0.940858
    202          1           0       -6.862644   -0.104270    0.328452
    203          1           0       -4.436327   -2.571360   -0.698997
    204          1           0       -5.069383   -2.023638    1.540829
    205          1           0        5.105210   -3.203729    1.205719
    206          1           0        2.518612   -2.790558   -1.419574
    207          1           0        2.451224   -4.103206    0.582755
 ---------------------------------------------------------------------
 Rotational constants (GHZ):           0.0223839           0.0149922           0.0143785
 Leave Link  202 at Mon Oct 18 19:38:11 2021, MaxMem=  7864320000 cpu:               0.5 elap:               0.1
 (Enter /apps/gaussian/g16-c01-avx/g16/l301.exe)
 Standard basis: def2TZVP (5D, 7F)
 Ernie: Thresh=  0.10000D-02 Tol=  0.10000D-05 Strict=F.
 There are  3852 symmetry adapted cartesian basis functions of A   symmetry.
 There are  3417 symmetry adapted basis functions of A   symmetry.
  3417 basis functions,  5397 primitive gaussians,  3852 cartesian basis functions
   327 alpha electrons      327 beta electrons
       nuclear repulsion energy     17501.0750835872 Hartrees.
 IExCor= 1009 DFT=T Ex+Corr=PBE1PBE ExCW=0 ScaHFX=  0.250000
 ScaDFX=  0.750000  0.750000  1.000000  1.000000 ScalE2=  1.000000  1.000000
 IRadAn=      7 IRanWt=     -1 IRanGd=            0 ICorTp=0 IEmpDi=131
 NAtoms=  207 NActive=  207 NUniq=  207 SFac= 1.00D+00 NAtFMM=   60 NAOKFM=T Big=T
 Integral buffers will be    131072 words long.
 Raffenetti 2 integral format.
 Two-electron integral symmetry is turned on.
 R6Disp:  Grimme-D3 Dispersion energy=       -0.2018695714 Hartrees.
 Nuclear repulsion after empirical dispersion term =    17500.8732140158 Hartrees.
 ------------------------------------------------------------------------------
 Polarizable Continuum Model (PCM)
 =================================
 Model                : PCM.
 Atomic radii         : UFF (Universal Force Field).
 Polarization charges : Total charges.
 Charge compensation  : None.
 Solution method      : On-the-fly selection.
 Cavity type          : Scaled VdW (van der Waals Surface) (Alpha=1.100).
 Cavity algorithm     : GePol (No added spheres)
                        Default sphere list used, NSphG=  207.
                        Lebedev-Laikov grids with approx.  5.0 points / Ang**2.
                        Smoothing algorithm: York/Karplus (Gamma=1.0000).
                        Polarization charges: spherical gaussians, with
                                              point-specific exponents (IZeta= 3).
                        Self-potential: point-specific (ISelfS= 7).
                        Self-field    : sphere-specific E.n sum rule (ISelfD= 2).
 Solvent              : Dichloromethane, Eps=   8.930000 Eps(inf)=   2.028346
 ------------------------------------------------------------------------------
 GePol: Number of generator spheres                  =     207
 GePol: Total number of spheres                      =     207
 GePol: Number of exposed spheres                    =     207 (100.00%)
 GePol: Number of points                             =   10944
 GePol: Average weight of points                     =       0.13
 GePol: Minimum weight of points                     =   0.68D-11
 GePol: Maximum weight of points                     =    0.20577
 GePol: Number of points with low weight             =     883
 GePol: Fraction of low-weight points (<1% of avg)   =       8.07%
 GePol: Cavity surface area                          =   1393.405 Ang**2
 GePol: Cavity volume                                =   1804.234 Ang**3
 Leave Link  301 at Mon Oct 18 19:38:11 2021, MaxMem=  7864320000 cpu:               4.9 elap:               0.2
 (Enter /apps/gaussian/g16-c01-avx/g16/l302.exe)
 NPDir=0 NMtPBC=     1 NCelOv=     1 NCel=       1 NClECP=     1 NCelD=      1
         NCelK=      1 NCelE2=     1 NClLst=     1 CellRange=     0.0.
 One-electron integrals computed using PRISM.
 One-electron integral symmetry used in STVInt
   1 Symmetry operations used in ECPInt.
 ECPInt:  NShTT= 1033203 NPrTT= 3029304 LenC2=  604170 LenP2D= 1107511.
 LDataN:  DoStor=T MaxTD1= 6 Len=  172
 Number of processors reduced to  21 by ecpmxn.
 NBasis=  3417 RedAO= T EigKep=  3.54D-06  NBF=  3417
 NBsUse=  3417 1.00D-06 EigRej= -1.00D+00 NBFU=  3417
 Precomputing XC quadrature grid using
 IXCGrd= 4 IRadAn=           7 IRanWt=          -1 IRanGd=           0 AccXCQ= 0.00D+00.
 Generated NRdTot=       0 NPtTot=           0 NUsed=           0 NTot=          32
 NSgBfM=  3074  2988  3016  3032  3074 MxSgAt=   207 MxSgA2=   207.
 Leave Link  302 at Mon Oct 18 19:39:16 2021, MaxMem=  7864320000 cpu:            2065.3 elap:              65.2
 (Enter /apps/gaussian/g16-c01-avx/g16/l303.exe)
 DipDrv:  MaxL=1.
 Leave Link  303 at Mon Oct 18 19:39:18 2021, MaxMem=  7864320000 cpu:              51.3 elap:               2.1
 (Enter /apps/gaussian/g16-c01-avx/g16/l401.exe)
 ExpMin= 9.52D-02 ExpMax= 1.97D+04 ExpMxC= 6.73D+02 IAcc=3 IRadAn=         7 AccDes= 0.00D+00
 Harris functional with IExCor= 1009 and IRadAn=       7 diagonalized for initial guess.
 HarFok:  IExCor= 1009 AccDes= 0.00D+00 IRadAn=         7 IDoV= 1 UseB2=F ITyADJ=14
 ICtDFT=  3500011 ScaDFX=  1.000000  1.000000  1.000000  1.000000
 FoFCou: FMM=F IPFlag=           0 FMFlag=      100000 FMFlg1=        2001
         NFxFlg=           0 DoJE=T BraDBF=F KetDBF=T FulRan=T
         wScrn=  0.000000 ICntrl=       500 IOpCl=  0 I1Cent=   200000004 NGrid=           0
         NMat0=    1 NMatS0=      1 NMatT0=    0 NMatD0=    1 NMtDS0=    0 NMtDT0=    0
 Petite list used in FoFCou.
 Harris En= -3585.80550095401    
 JPrj=0 DoOrth=F DoCkMO=F.
 Leave Link  401 at Mon Oct 18 19:41:15 2021, MaxMem=  7864320000 cpu:            3675.8 elap:             116.2
 (Enter /apps/gaussian/g16-c01-avx/g16/l508.exe)
 Integral symmetry usage will be decided dynamically.
 Tight linear equation convergence will be used.
 RPBE1PBE wavefunction.
 Linear searches until partial convergence.
 Full line searches.
 Fock matrices will be formed incrementally for  20 cycles.
 Inv3:  Mode=1 IEnd=   359313408.
 Iteration    1 A*A^-1 deviation from unit magnitude is 1.44D-14 for  10916.
 Iteration    1 A*A^-1 deviation from orthogonality  is 4.55D-15 for  10916   8484.
 Iteration    1 A^-1*A deviation from unit magnitude is 1.44D-14 for  10916.
 Iteration    1 A^-1*A deviation from orthogonality  is 1.31D-14 for   7400   7397.
 FoFJK:  IHMeth= 1 ICntrl=       0 DoSepK=F KAlg= 0 I1Cent=           0 FoldK=F
 IRaf= 520000000 NMat=       1 IRICut=       1 DoRegI=T DoRafI=F ISym2E= 1 IDoP0=0 IntGTp=1.
 Iteration   1 EE= -3581.95355695305                                    Grad=2.293D+00 Max rot=    2.1805 deg.
 Gradient too large for Newton-Raphson -- use scaled steepest descent instead.
 Alpha Gap=     0.170 HL deriv= 5.93D-03
     ILin= 1 X=0.000D+00 Y=-3.581953556953D+03 DE= 0.00D+00 F= -1.07D+01
 RMSU=  3.46D-04    CP:  9.87D-01
     ILin= 2 X=3.000D-01 Y=-3.584070415282D+03 DE=-2.12D+00 F= -3.35D+00 OKLS=F
 RMSU=  5.01D-05    CP:  9.80D-01  1.69D+00
     ILin= 3 X=5.000D-01 Y=-3.584243971877D+03 DE=-2.29D+00 F=  1.62D+00
     Accept linear search using points  2 and  3.
     An  expanding polynomial of degree  3 produced  0.3928
 RMSU=  3.63D-08    CP:  9.83D-01  1.32D+00  3.65D-01
 Iteration   2 EE= -3584.27454238637     Delta-E=       -2.320985433322 Grad=6.597D-01 Max rot=    1.4748 deg.
 Gradient too large for Newton-Raphson -- use scaled steepest descent instead.
 Alpha Gap=     0.191 HL deriv= 1.35D-03
     ILin= 1 X=0.000D+00 Y=-3.584274542386D+03 DE= 0.00D+00 F= -3.86D-01
 RMSU=  7.58D-05    CP:  9.79D-01  1.53D+00  7.45D-01 -3.00D+00
     ILin= 2 X=3.000D-01 Y=-3.584364430667D+03 DE=-8.99D-02 F= -2.13D-01 OKLS=F
 RMSU=  1.05D-05    CP:  9.73D-01  1.82D+00  1.53D+00 -3.00D+00  2.33D+00
     ILin= 3 X=7.000D-01 Y=-3.584403469366D+03 DE=-1.29D-01 F=  1.79D-02
     Accept linear search using points  2 and  3.
     An  expanding polynomial of degree  3 produced  0.5263
 RMSU=  2.58D-08    CP:  9.76D-01  1.69D+00  1.15D+00 -3.00D+00  1.75D+00
                    CP:  4.25D-01
 Iteration   3 EE= -3584.39786197284     Delta-E=       -0.123319586477 Grad=2.750D-01 Max rot=    0.6881 deg.
 Gradient too large for Newton-Raphson -- use scaled steepest descent instead.
 Alpha Gap=     0.183 HL deriv= 7.37D-04
     ILin= 1 X=0.000D+00 Y=-3.584397861973D+03 DE= 0.00D+00 F= -5.33D-02
 RMSU=  4.32D-05    CP:  9.73D-01  1.85D+00  1.74D+00 -3.00D+00  2.56D+00
                    CP:  1.06D+00  3.00D+00
     ILin= 2 X=5.000D-01 Y=-3.584413796104D+03 DE=-1.59D-02 F= -1.05D-02 OKLS=F
 RMSU=  1.57D-05    CP:  9.71D-01  1.98D+00  2.31D+00 -3.00D+00  3.00D+00
                    CP:  1.88D+00  3.00D+00  1.80D+00
     ILin= 3 X=9.000D-01 Y=-3.584411135473D+03 DE=-1.33D-02 F=  2.38D-02
     An  expanding polynomial of degree  3 produced  0.6223
 RMSU=  4.49D-07    CP:  9.72D-01  1.89D+00  1.90D+00 -3.00D+00  2.76D+00
                    CP:  1.28D+00  3.00D+00  1.25D+00  3.94D-03
 Iteration   4 EE= -3584.41443642217     Delta-E=       -0.016574449324 Grad=1.163D-01 Max rot=    0.2756 deg.
 Gradient too large for Newton-Raphson -- use scaled steepest descent instead.
 Alpha Gap=     0.183 HL deriv= 5.18D-04
     ILin= 1 X=0.000D+00 Y=-3.584414436422D+03 DE= 0.00D+00 F= -1.85D-02
 RMSU=  3.18D-05    CP:  9.70D-01  1.93D+00  2.07D+00 -3.00D+00  3.00D+00
                    CP:  1.57D+00 -3.00D+00  1.28D+00  7.80D-01 -3.00D+00
     ILin= 2 X=6.000D-01 Y=-3.584416356998D+03 DE=-1.92D-03 F=  1.21D-02 OKLS=T
     Accept linear search using points  1 and  2.
     An  expanding polynomial of degree  2 produced  0.3254
 RMSU=  1.74D-06    CP:  9.71D-01  1.91D+00  1.99D+00 -3.00D+00  2.98D+00
                    CP:  1.42D+00 -3.00D+00  1.27D+00 -1.35D-02 -3.00D+00
                    CP:  5.35D-01
 Iteration   5 EE= -3584.41775543752     Delta-E=       -0.003319015352 Grad=6.257D-02 Max rot=    0.1597 deg.
 Gradient too large for Newton-Raphson -- use scaled steepest descent instead.
 Alpha Gap=     0.184 HL deriv= 3.19D-04
     ILin= 1 X=0.000D+00 Y=-3.584417755438D+03 DE= 0.00D+00 F= -2.18D-03
 RMSU=  4.98D-06    CP:  9.71D-01  1.95D+00  2.18D+00 -3.00D+00  3.00D+00
                    CP:  1.67D+00 -3.00D+00  1.51D+00  8.23D-01 -3.00D+00
                    CP:  7.27D-01  3.81D-01
     ILin= 2 X=4.000D-01 Y=-3.584418432334D+03 DE=-6.77D-04 F= -1.20D-03 OKLS=F
 RMSU=  2.20D-07    CP:  9.70D-01  2.00D+00  2.43D+00 -3.00D+00  3.00D+00
                    CP:  2.01D+00 -3.00D+00  1.82D+00  1.98D+00 -3.00D+00
                    CP:  9.67D-01 -4.04D-01  2.25D+00
     ILin= 3 X=9.000D-01 Y=-3.584418728034D+03 DE=-9.73D-04 F=  2.03D-05
     Accept linear search using points  2 and  3.
     An  expanding polynomial of degree  3 produced  0.7848
 RMSU=  1.88D-09    CP:  9.70D-01  1.99D+00  2.37D+00 -3.00D+00  3.00D+00
                    CP:  1.93D+00 -3.00D+00  1.75D+00  1.71D+00 -3.00D+00
                    CP:  9.12D-01 -2.35D-01  1.96D+00  6.64D-01
 Iteration   6 EE= -3584.41871413598     Delta-E=       -0.000958698456 Grad=1.658D-02 Max rot=    0.0356 deg.
 Gradient too large for Newton-Raphson -- use scaled steepest descent instead.
 Alpha Gap=     0.184 HL deriv= 1.22D-04
     ILin= 1 X=0.000D+00 Y=-3.584418714136D+03 DE= 0.00D+00 F= -4.14D-04
 RMSU=  1.96D-06    CP:  9.70D-01  1.99D+00  2.43D+00 -3.00D+00  3.00D+00
                    CP:  2.03D+00 -3.00D+00  1.80D+00  2.07D+00 -3.00D+00
                    CP:  1.11D+00 -6.04D-01  2.39D+00  1.64D+00 -3.00D+00
     ILin= 2 X=5.000D-01 Y=-3.584418783900D+03 DE=-6.98D-05 F=  1.35D-04 OKLS=T
     Accept linear search using points  1 and  2.
     An  expanding polynomial of degree  2 produced  0.2855
 RMSU=  6.43D-09    CP:  9.70D-01  1.99D+00  2.40D+00 -3.00D+00  3.00D+00
                    CP:  1.99D+00 -3.00D+00  1.78D+00  1.92D+00 -3.00D+00
                    CP:  1.03D+00 -4.47D-01  2.21D+00  1.19D+00 -3.00D+00
                    CP:  5.70D-01
 Iteration   7 EE= -3584.41878758124     Delta-E=       -0.000073445262 Grad=9.486D-03 Max rot=    0.0191 deg.
 SCF Done:  E(RPBE1PBE) =  -3584.41878758     a.u. after    7 cycles
            Convg  =    0.9486D-02                    17 Fock formations.
              S**2 =  0.0000                  -V/T =  2.0049
 Leave Link  508 at Mon Oct 18 23:16:36 2021, MaxMem=  7864320000 cpu:          407078.2 elap:           12921.7
 (Enter /apps/gaussian/g16-c01-avx/g16/l502.exe)
 Integral symmetry usage will be decided dynamically.
 Closed shell SCF:
 Using DIIS extrapolation, IDIIS=  1040.
 NGot=  7864320000 LenX=  7834481618 LenY=  7819639862
 Requested convergence on RMS density matrix=1.00D-08 within 128 cycles.
 Requested convergence on MAX density matrix=1.00D-06.
 Requested convergence on             energy=1.00D-06.
 No special actions if energy rises.
 Fock matrices will be formed incrementally for  20 cycles.

 Cycle   1  Pass 1  IDiag  1:
 FoFJK:  IHMeth= 1 ICntrl=       0 DoSepK=F KAlg= 0 I1Cent=           0 FoldK=F
 IRaf= 520000000 NMat=       1 IRICut=       1 DoRegI=T DoRafI=F ISym2E= 0 IDoP0=0 IntGTp=1.
 FoFCou: FMM=T IPFlag=           0 FMFlag=      100000 FMFlg1=        2001
         NFxFlg=           0 DoJE=F BraDBF=F KetDBF=F FulRan=T
         wScrn=  0.000000 ICntrl=         0 IOpCl=  0 I1Cent=           0 NGrid=           0
         NMat0=    1 NMatS0=      1 NMatT0=    0 NMatD0=    1 NMtDS0=    0 NMtDT0=    0
 Symmetry not used in FoFCou.
 FMM levels:  10  Number of levels for PrismC:   9
 E= -3584.41878758122    
 DIIS: error= 3.54D-05 at cycle   1 NSaved=   1.
 NSaved= 1 IEnMin= 1 EnMin= -3584.41878758122     IErMin= 1 ErrMin= 3.54D-05
 ErrMax= 3.54D-05  0.00D+00 EMaxC= 1.00D-01 BMatC= 4.50D-05 BMatP= 4.50D-05
 IDIUse=1 WtCom= 1.00D+00 WtEn= 0.00D+00
 Coeff-Com:  0.100D+01
 Coeff:      0.100D+01
 Gap=     0.184 Goal=   None    Shift=    0.000
 RMSDP=1.93D-05 MaxDP=5.25D-03              OVMax= 6.33D-04

 Cycle   2  Pass 1  IDiag  1:
 RMSU=  1.90D-05    CP:  1.00D+00
 E= -3584.41882290965     Delta-E=       -0.000035328430 Rises=F Damp=F
 DIIS: error= 7.31D-06 at cycle   2 NSaved=   2.
 NSaved= 2 IEnMin= 2 EnMin= -3584.41882290965     IErMin= 2 ErrMin= 7.31D-06
 ErrMax= 7.31D-06  0.00D+00 EMaxC= 1.00D-01 BMatC= 8.17D-07 BMatP= 4.50D-05
 IDIUse=1 WtCom= 1.00D+00 WtEn= 0.00D+00
 Coeff-Com:  0.795D-02 0.992D+00
 Coeff:      0.795D-02 0.992D+00
 Gap=     0.173 Goal=   None    Shift=    0.000
 RMSDP=2.00D-06 MaxDP=5.41D-04 DE=-3.53D-05 OVMax= 3.01D-04

 Cycle   3  Pass 1  IDiag  1:
 RMSU=  1.05D-06    CP:  1.00D+00  1.09D+00
 E= -3584.41882194458     Delta-E=        0.000000965072 Rises=F Damp=F
 DIIS: error= 1.31D-05 at cycle   3 NSaved=   3.
 NSaved= 3 IEnMin= 2 EnMin= -3584.41882290965     IErMin= 2 ErrMin= 7.31D-06
 ErrMax= 1.31D-05  0.00D+00 EMaxC= 1.00D-01 BMatC= 1.98D-06 BMatP= 8.17D-07
 IDIUse=1 WtCom= 1.00D+00 WtEn= 0.00D+00
 Coeff-Com: -0.981D-02 0.625D+00 0.385D+00
 Coeff:     -0.981D-02 0.625D+00 0.385D+00
 Gap=     0.173 Goal=   None    Shift=    0.000
 RMSDP=8.07D-07 MaxDP=3.41D-04 DE= 9.65D-07 OVMax= 2.28D-04

 Cycle   4  Pass 1  IDiag  1:
 RMSU=  5.68D-07    CP:  1.00D+00  1.08D+00  5.04D-01
 E= -3584.41882369550     Delta-E=       -0.000001750916 Rises=F Damp=F
 DIIS: error= 1.83D-06 at cycle   4 NSaved=   4.
 NSaved= 4 IEnMin= 4 EnMin= -3584.41882369550     IErMin= 4 ErrMin= 1.83D-06
 ErrMax= 1.83D-06  0.00D+00 EMaxC= 1.00D-01 BMatC= 6.73D-08 BMatP= 8.17D-07
 IDIUse=1 WtCom= 1.00D+00 WtEn= 0.00D+00
 Coeff-Com: -0.454D-02 0.153D+00 0.181D+00 0.670D+00
 Coeff:     -0.454D-02 0.153D+00 0.181D+00 0.670D+00
 Gap=     0.173 Goal=   None    Shift=    0.000
 RMSDP=1.77D-07 MaxDP=5.45D-05 DE=-1.75D-06 OVMax= 4.30D-05

 Cycle   5  Pass 1  IDiag  1:
 RMSU=  1.03D-07    CP:  1.00D+00  1.08D+00  5.66D-01  9.31D-01
 E= -3584.41882374279     Delta-E=       -0.000000047294 Rises=F Damp=F
 DIIS: error= 9.78D-07 at cycle   5 NSaved=   5.
 NSaved= 5 IEnMin= 5 EnMin= -3584.41882374279     IErMin= 5 ErrMin= 9.78D-07
 ErrMax= 9.78D-07  0.00D+00 EMaxC= 1.00D-01 BMatC= 1.75D-08 BMatP= 6.73D-08
 IDIUse=1 WtCom= 1.00D+00 WtEn= 0.00D+00
 Coeff-Com: -0.150D-02-0.450D-02 0.520D-01 0.408D+00 0.546D+00
 Coeff:     -0.150D-02-0.450D-02 0.520D-01 0.408D+00 0.546D+00
 Gap=     0.173 Goal=   None    Shift=    0.000
 RMSDP=4.96D-08 MaxDP=1.03D-05 DE=-4.73D-08 OVMax= 1.42D-05

 Cycle   6  Pass 1  IDiag  1:
 RMSU=  2.78D-08    CP:  1.00D+00  1.08D+00  5.72D-01  9.82D-01  7.52D-01
 E= -3584.41882375910     Delta-E=       -0.000000016305 Rises=F Damp=F
 DIIS: error= 9.43D-08 at cycle   6 NSaved=   6.
 NSaved= 6 IEnMin= 6 EnMin= -3584.41882375910     IErMin= 6 ErrMin= 9.43D-08
 ErrMax= 9.43D-08  0.00D+00 EMaxC= 1.00D-01 BMatC= 1.74D-10 BMatP= 1.75D-08
 IDIUse=1 WtCom= 1.00D+00 WtEn= 0.00D+00
 Coeff-Com: -0.486D-03-0.500D-02 0.153D-01 0.133D+00 0.194D+00 0.663D+00
 Coeff:     -0.486D-03-0.500D-02 0.153D-01 0.133D+00 0.194D+00 0.663D+00
 Gap=     0.173 Goal=   None    Shift=    0.000
 RMSDP=9.94D-09 MaxDP=3.55D-06 DE=-1.63D-08 OVMax= 3.74D-06

 Cycle   7  Pass 1  IDiag  1:
 RMSU=  7.95D-09    CP:  1.00D+00  1.08D+00  5.73D-01  9.90D-01  7.57D-01
                    CP:  9.68D-01
 E= -3584.41882375862     Delta-E=        0.000000000477 Rises=F Damp=F
 DIIS: error= 4.99D-08 at cycle   7 NSaved=   7.
 NSaved= 7 IEnMin= 6 EnMin= -3584.41882375910     IErMin= 7 ErrMin= 4.99D-08
 ErrMax= 4.99D-08  0.00D+00 EMaxC= 1.00D-01 BMatC= 4.79D-11 BMatP= 1.74D-10
 IDIUse=1 WtCom= 1.00D+00 WtEn= 0.00D+00
 Coeff-Com: -0.130D-04-0.197D-02-0.278D-03 0.330D-02 0.986D-02 0.340D+00
 Coeff-Com:  0.649D+00
 Coeff:     -0.130D-04-0.197D-02-0.278D-03 0.330D-02 0.986D-02 0.340D+00
 Coeff:      0.649D+00
 Gap=     0.173 Goal=   None    Shift=    0.000
 RMSDP=4.93D-09 MaxDP=1.37D-06 DE= 4.77D-10 OVMax= 1.89D-06

 Cycle   8  Pass 1  IDiag  1:
 RMSU=  3.25D-09    CP:  1.00D+00  1.08D+00  5.74D-01  9.94D-01  7.63D-01
                    CP:  1.05D+00  8.03D-01
 E= -3584.41882375896     Delta-E=       -0.000000000335 Rises=F Damp=F
 DIIS: error= 2.10D-08 at cycle   8 NSaved=   8.
 NSaved= 8 IEnMin= 6 EnMin= -3584.41882375910     IErMin= 8 ErrMin= 2.10D-08
 ErrMax= 2.10D-08  0.00D+00 EMaxC= 1.00D-01 BMatC= 7.58D-12 BMatP= 4.79D-11
 IDIUse=1 WtCom= 1.00D+00 WtEn= 0.00D+00
 Coeff-Com:  0.406D-04-0.614D-03-0.160D-02-0.113D-01-0.138D-01 0.125D+00
 Coeff-Com:  0.365D+00 0.538D+00
 Coeff:      0.406D-04-0.614D-03-0.160D-02-0.113D-01-0.138D-01 0.125D+00
 Coeff:      0.365D+00 0.538D+00
 Gap=     0.173 Goal=   None    Shift=    0.000
 RMSDP=1.88D-09 MaxDP=1.04D-06 DE=-3.35D-10 OVMax= 8.24D-07

 Cycle   9  Pass 1  IDiag  1:
 RMSU=  1.18D-09    CP:  1.00D+00  1.08D+00  5.74D-01  9.95D-01  7.68D-01
                    CP:  1.06D+00  8.83D-01  6.53D-01
 E= -3584.41882375892     Delta-E=        0.000000000040 Rises=F Damp=F
 DIIS: error= 8.47D-09 at cycle   9 NSaved=   9.
 NSaved= 9 IEnMin= 6 EnMin= -3584.41882375910     IErMin= 9 ErrMin= 8.47D-09
 ErrMax= 8.47D-09  0.00D+00 EMaxC= 1.00D-01 BMatC= 8.89D-13 BMatP= 7.58D-12
 IDIUse=1 WtCom= 1.00D+00 WtEn= 0.00D+00
 Coeff-Com:  0.250D-04-0.119D-03-0.843D-03-0.674D-02-0.893D-02 0.307D-01
 Coeff-Com:  0.128D+00 0.301D+00 0.558D+00
 Coeff:      0.250D-04-0.119D-03-0.843D-03-0.674D-02-0.893D-02 0.307D-01
 Coeff:      0.128D+00 0.301D+00 0.558D+00
 Gap=     0.173 Goal=   None    Shift=    0.000
 RMSDP=6.59D-10 MaxDP=2.70D-07 DE= 4.00D-11 OVMax= 2.33D-07

 Error on total polarization charges =  0.03043
 SCF Done:  E(RPBE1PBE) =  -3584.41882376     A.U. after    9 cycles
            NFock=  9  Conv=0.66D-09     -V/T= 2.0049
 KE= 3.567061796623D+03 PE=-4.332635568336D+04 EE= 1.867400184896D+04
 Leave Link  502 at Tue Oct 19 01:00:37 2021, MaxMem=  7864320000 cpu:          197008.2 elap:            6240.0
 (Enter /apps/gaussian/g16-c01-avx/g16/l508.exe)
 QCSCF skips out because SCF is already converged.
 Leave Link  508 at Tue Oct 19 01:00:37 2021, MaxMem=  7864320000 cpu:               0.1 elap:               0.0
 (Enter /apps/gaussian/g16-c01-avx/g16/l601.exe)
 Copying SCF densities to generalized density rwf, IOpCl= 0 IROHF=0.
 Hyperfine terms turned off by default for NAtoms > 100.

 **********************************************************************

            Population analysis using the SCF Density.

 **********************************************************************

 Orbital symmetries:
       Occupied  (A) (A) (A) (A) (A) (A) (A) (A) (A) (A) (A) (A)
                 (A) (A) (A) (A) (A) (A) (A) (A) (A) (A) (A) (A)
                 (A) (A) (A) (A) (A) (A) (A) (A) (A) (A) (A) (A)
                 (A) (A) (A) (A) (A) (A) (A) (A) (A) (A) (A) (A)
                 (A) (A) (A) (A) (A) (A) (A) (A) (A) (A) (A) (A)
                 (A) (A) (A) (A) (A) (A) (A) (A) (A) (A) (A) (A)
                 (A) (A) (A) (A) (A) (A) (A) (A) (A) (A) (A) (A)
                 (A) (A) (A) (A) (A) (A) (A) (A) (A) (A) (A) (A)
                 (A) (A) (A) (A) (A) (A) (A) (A) (A) (A) (A) (A)
                 (A) (A) (A) (A) (A) (A) (A) (A) (A) (A) (A) (A)
                 (A) (A) (A) (A) (A) (A) (A) (A) (A) (A) (A) (A)
                 (A) (A) (A) (A) (A) (A) (A) (A) (A) (A) (A) (A)
                 (A) (A) (A) (A) (A) (A) (A) (A) (A) (A) (A) (A)
                 (A) (A) (A) (A) (A) (A) (A) (A) (A) (A) (A) (A)
                 (A) (A) (A) (A) (A) (A) (A) (A) (A) (A) (A) (A)
                 (A) (A) (A) (A) (A) (A) (A) (A) (A) (A) (A) (A)
                 (A) (A) (A) (A) (A) (A) (A) (A) (A) (A) (A) (A)
                 (A) (A) (A) (A) (A) (A) (A) (A) (A) (A) (A) (A)
                 (A) (A) (A) (A) (A) (A) (A) (A) (A) (A) (A) (A)
                 (A) (A) (A) (A) (A) (A) (A) (A) (A) (A) (A) (A)
                 (A) (A) (A) (A) (A) (A) (A) (A) (A) (A) (A) (A)
                 (A) (A) (A) (A) (A) (A) (A) (A) (A) (A) (A) (A)
                 (A) (A) (A) (A) (A) (A) (A) (A) (A) (A) (A) (A)
                 (A) (A) (A) (A) (A) (A) (A) (A) (A) (A) (A) (A)
                 (A) (A) (A) (A) (A) (A) (A) (A) (A) (A) (A) (A)
                 (A) (A) (A) (A) (A) (A) (A) (A) (A) (A) (A) (A)
                 (A) (A) (A) (A) (A) (A) (A) (A) (A) (A) (A) (A)
                 (A) (A) (A)
       Virtual   (A) (A) (A) (A) (A) (A) (A) (A) (A) (A) (A) (A)
                 (A) (A) (A) (A) (A) (A) (A) (A) (A) (A) (A) (A)
                 (A) (A) (A) (A) (A) (A) (A) (A) (A) (A) (A) (A)
                 (A) (A) (A) (A) (A) (A) (A) (A) (A) (A) (A) (A)
                 (A) (A) (A) (A) (A) (A) (A) (A) (A) (A) (A) (A)
                 (A) (A) (A) (A) (A) (A) (A) (A) (A) (A) (A) (A)
                 (A) (A) (A) (A) (A) (A) (A) (A) (A) (A) (A) (A)
                 (A) (A) (A) (A) (A) (A) (A) (A) (A) (A) (A) (A)
                 (A) (A) (A) (A) (A) (A) (A) (A) (A) (A) (A) (A)
                 (A) (A) (A) (A) (A) (A) (A) (A) (A) (A) (A) (A)
                 (A) (A) (A) (A) (A) (A) (A) (A) (A) (A) (A) (A)
                 (A) (A) (A) (A) (A) (A) (A) (A) (A) (A) (A) (A)
                 (A) (A) (A) (A) (A) (A) (A) (A) (A) (A) (A) (A)
                 (A) (A) (A) (A) (A) (A) (A) (A) (A) (A) (A) (A)
                 (A) (A) (A) (A) (A) (A) (A) (A) (A) (A) (A) (A)
                 (A) (A) (A) (A) (A) (A) (A) (A) (A) (A) (A) (A)
                 (A) (A) (A) (A) (A) (A) (A) (A) (A) (A) (A) (A)
                 (A) (A) (A) (A) (A) (A) (A) (A) (A) (A) (A) (A)
                 (A) (A) (A) (A) (A) (A) (A) (A) (A) (A) (A) (A)
                 (A) (A) (A) (A) (A) (A) (A) (A) (A) (A) (A) (A)
                 (A) (A) (A) (A) (A) (A) (A) (A) (A) (A) (A) (A)
                 (A) (A) (A) (A) (A) (A) (A) (A) (A) (A) (A) (A)
                 (A) (A) (A) (A) (A) (A) (A) (A) (A) (A) (A) (A)
                 (A) (A) (A) (A) (A) (A) (A) (A) (A) (A) (A) (A)
                 (A) (A) (A) (A) (A) (A) (A) (A) (A) (A) (A) (A)
                 (A) (A) (A) (A) (A) (A) (A) (A) (A) (A) (A) (A)
                 (A) (A) (A) (A) (A) (A) (A) (A) (A) (A) (A) (A)
                 (A) (A) (A) (A) (A) (A) (A) (A) (A) (A) (A) (A)
                 (A) (A) (A) (A) (A) (A) (A) (A) (A) (A) (A) (A)
                 (A) (A) (A) (A) (A) (A) (A) (A) (A) (A) (A) (A)
                 (A) (A) (A) (A) (A) (A) (A) (A) (A) (A) (A) (A)
                 (A) (A) (A) (A) (A) (A) (A) (A) (A) (A) (A) (A)
                 (A) (A) (A) (A) (A) (A) (A) (A) (A) (A) (A) (A)
                 (A) (A) (A) (A) (A) (A) (A) (A) (A) (A) (A) (A)
                 (A) (A) (A) (A) (A) (A) (A) (A) (A) (A) (A) (A)
                 (A) (A) (A) (A) (A) (A) (A) (A) (A) (A) (A) (A)
                 (A) (A) (A) (A) (A) (A) (A) (A) (A) (A) (A) (A)
                 (A) (A) (A) (A) (A) (A) (A) (A) (A) (A) (A) (A)
                 (A) (A) (A) (A) (A) (A) (A) (A) (A) (A) (A) (A)
                 (A) (A) (A) (A) (A) (A) (A) (A) (A) (A) (A) (A)
                 (A) (A) (A) (A) (A) (A) (A) (A) (A) (A) (A) (A)
                 (A) (A) (A) (A) (A) (A) (A) (A) (A) (A) (A) (A)
                 (A) (A) (A) (A) (A) (A) (A) (A) (A) (A) (A) (A)
                 (A) (A) (A) (A) (A) (A) (A) (A) (A) (A) (A) (A)
                 (A) (A) (A) (A) (A) (A) (A) (A) (A) (A) (A) (A)
                 (A) (A) (A) (A) (A) (A) (A) (A) (A) (A) (A) (A)
                 (A) (A) (A) (A) (A) (A) (A) (A) (A) (A) (A) (A)
                 (A) (A) (A) (A) (A) (A) (A) (A) (A) (A) (A) (A)
                 (A) (A) (A) (A) (A) (A) (A) (A) (A) (A) (A) (A)
                 (A) (A) (A) (A) (A) (A) (A) (A) (A) (A) (A) (A)
                 (A) (A) (A) (A) (A) (A) (A) (A) (A) (A) (A) (A)
                 (A) (A) (A) (A) (A) (A) (A) (A) (A) (A) (A) (A)
                 (A) (A) (A) (A) (A) (A) (A) (A) (A) (A) (A) (A)
                 (A) (A) (A) (A) (A) (A) (A) (A) (A) (A) (A) (A)
                 (A) (A) (A) (A) (A) (A) (A) (A) (A) (A) (A) (A)
                 (A) (A) (A) (A) (A) (A) (A) (A) (A) (A) (A) (A)
                 (A) (A) (A) (A) (A) (A) (A) (A) (A) (A) (A) (A)
                 (A) (A) (A) (A) (A) (A) (A) (A) (A) (A) (A) (A)
                 (A) (A) (A) (A) (A) (A) (A) (A) (A) (A) (A) (A)
                 (A) (A) (A) (A) (A) (A) (A) (A) (A) (A) (A) (A)
                 (A) (A) (A) (A) (A) (A) (A) (A) (A) (A) (A) (A)
                 (A) (A) (A) (A) (A) (A) (A) (A) (A) (A) (A) (A)
                 (A) (A) (A) (A) (A) (A) (A) (A) (A) (A) (A) (A)
                 (A) (A) (A) (A) (A) (A) (A) (A) (A) (A) (A) (A)
                 (A) (A) (A) (A) (A) (A) (A) (A) (A) (A) (A) (A)
                 (A) (A) (A) (A) (A) (A) (A) (A) (A) (A) (A) (A)
                 (A) (A) (A) (A) (A) (A) (A) (A) (A) (A) (A) (A)
                 (A) (A) (A) (A) (A) (A) (A) (A) (A) (A) (A) (A)
                 (A) (A) (A) (A) (A) (A) (A) (A) (A) (A) (A) (A)
                 (A) (A) (A) (A) (A) (A) (A) (A) (A) (A) (A) (A)
[...]
 Alpha virt. eigenvalues --    4.73561   4.74566   4.74860   4.76075   4.76135
 Alpha virt. eigenvalues --    4.76549   4.76704   4.77151   4.77305   4.77472
 Alpha virt. eigenvalues --    4.77960   4.78610   4.79149   4.79454   4.79681
 Alpha virt. eigenvalues --    4.79963   4.80279   4.80779   4.81430   4.81587
 Alpha virt. eigenvalues --    4.81939   4.82744   4.83278   4.83920   4.84453
 Alpha virt. eigenvalues --    4.84862   4.84891   4.85738   4.86470   4.86726
 Alpha virt. eigenvalues --    4.86983   4.87356   4.87595   4.87881   4.88324
 Alpha virt. eigenvalues --    4.89061   4.89776   4.89908   4.90312   4.90430
 Alpha virt. eigenvalues --    4.90956   4.91332   4.91577   4.91641   4.91962
 Alpha virt. eigenvalues --    4.92215   4.92494   4.92567   4.93015   4.93338
 Alpha virt. eigenvalues --    4.93752   4.94310   4.94642   4.95002   4.95232
 Alpha virt. eigenvalues --    4.95412   4.95640   4.95888   4.96320   4.96507
 Alpha virt. eigenvalues --    4.96735   4.96873   4.97220   4.97416   4.97802
 Alpha virt. eigenvalues --    4.98046   4.98205   4.98620   4.99041   4.99179
 Alpha virt. eigenvalues --    4.99382   4.99983   4.99989   5.00969   5.01535
 Alpha virt. eigenvalues --    5.01829   5.02572   5.02994   5.03455   5.03822
 Alpha virt. eigenvalues --    5.04060   5.04454   5.04762   5.05078   5.05161
 Alpha virt. eigenvalues --    5.05415   5.06019   5.06331   5.06544   5.07243
 Alpha virt. eigenvalues --    5.07897   5.08526   5.08964   5.09641   5.10734
 Alpha virt. eigenvalues --    5.11328   5.12506   5.13116   5.13786   5.13932
 Alpha virt. eigenvalues --    5.14503   5.15025   5.15282   5.16025   5.16492
 Alpha virt. eigenvalues --    5.16748   5.17115   5.17312   5.17564   5.17896
 Alpha virt. eigenvalues --    5.18808   5.18960   5.19606   5.19947   5.20623
 Alpha virt. eigenvalues --    5.20693   5.22203   5.22567   5.23049   5.23622
 Alpha virt. eigenvalues --    5.24793   5.25906   5.26178   5.26394   5.27231
 Alpha virt. eigenvalues --    5.27348   5.28028   5.28098   5.28664   5.28925
 Alpha virt. eigenvalues --    5.29331   5.29807   5.30395   5.31108   5.31386
 Alpha virt. eigenvalues --    5.31706   5.32538   5.33205   5.33904   5.34421
 Alpha virt. eigenvalues --    5.34777   5.34926   5.35707   5.36848   5.37026
 Alpha virt. eigenvalues --    5.38437   5.38743   5.39564   5.39758   5.39911
 Alpha virt. eigenvalues --    5.40216   5.40805   5.41002   5.41483   5.41796
 Alpha virt. eigenvalues --    5.42116   5.42583   5.43221   5.43488   5.44200
 Alpha virt. eigenvalues --    5.44536   5.45071   5.45617   5.46101   5.46816
 Alpha virt. eigenvalues --    5.47539   5.48199   5.48980   5.49590   5.50455
 Alpha virt. eigenvalues --    5.50804   5.51365   5.51768   5.52016   5.52413
 Alpha virt. eigenvalues --    5.52539   5.54143   5.54690   5.55779   5.56288
 Alpha virt. eigenvalues --    5.56688   5.57535   5.58425   5.58845   5.60032
 Alpha virt. eigenvalues --    5.61653   5.62837   5.63195   5.65162   5.65910
 Alpha virt. eigenvalues --    5.66766   5.67115   5.69085   5.69397   5.70461
 Alpha virt. eigenvalues --    5.70757   5.72240   5.72938   5.73819   5.73958
 Alpha virt. eigenvalues --    5.74891   5.75157   5.76119   5.77423   5.79205
 Alpha virt. eigenvalues --    5.79992   5.80961   5.81740   5.82462   5.82737
 Alpha virt. eigenvalues --    5.82790   5.85328   5.85745   5.85883   5.86259
 Alpha virt. eigenvalues --    5.87351   5.88170   5.88726   5.90284   5.92875
 Alpha virt. eigenvalues --    5.97518   5.98080   5.98574   6.00121   6.01568
 Alpha virt. eigenvalues --    6.02968   6.06637   6.07388   6.08172   6.09203
 Alpha virt. eigenvalues --    6.09463   6.09728   6.10267   6.11075   6.14786
 Alpha virt. eigenvalues --    6.17038   6.18421   6.20252  22.45864  22.48211
 Alpha virt. eigenvalues --   22.48370  22.49812  22.50175  22.50243  22.50516
 Alpha virt. eigenvalues --   22.51266  22.51436  22.51497  22.51699  22.51879
 Alpha virt. eigenvalues --   22.52038  22.52362  22.52492  22.52628  22.52651
 Alpha virt. eigenvalues --   22.52878  22.53095  22.53191  22.54907  22.55476
 Alpha virt. eigenvalues --   22.56615  22.58288  22.60549  22.61867  22.68256
 Alpha virt. eigenvalues --   22.72923  22.73085  22.73179  22.73445  22.74255
 Alpha virt. eigenvalues --   22.75720  22.76452  22.77222  22.77403  22.78887
 Alpha virt. eigenvalues --   22.80748  22.81736  22.81941  22.82016  22.82757
 Alpha virt. eigenvalues --   22.83767  22.85498  22.89242  22.90698  22.91490
 Alpha virt. eigenvalues --   22.92061  22.93325  22.93480  22.93587  22.95206
 Alpha virt. eigenvalues --   22.96161  22.97279  22.97691  22.98918  23.00456
 Alpha virt. eigenvalues --   23.05996  23.06355  23.10172  23.12077  23.15226
 Alpha virt. eigenvalues --   23.15999  23.17620  23.18230  23.18332  23.19618
 Alpha virt. eigenvalues --   23.19919  23.20941  23.21126  23.22661  23.27171
 Alpha virt. eigenvalues --   23.52607  23.53671  23.55065  32.66165  32.73346
 Alpha virt. eigenvalues --   32.76678  32.77955  32.81827  32.83453  32.83850
 Alpha virt. eigenvalues --   32.88453  32.90313  32.92737  32.95149  32.96470
          Condensed to atoms (all electrons):
 Mulliken charges:
               1
     1  C    0.362810
     2  C   -0.100847
     3  C   -0.331089
     4  C    0.284984
     5  H    0.197075
     6  C   -0.361996
     7  C    0.403438
     8  H    0.128563
     9  C   -0.452517
    10  C   -0.213959
    11  H    0.149190
    12  C   -0.204487
    13  H    0.086462
    14  H    0.091049
    15  C    0.246912
    16  C    0.009101
    17  C   -0.329719
    18  C    0.374502
    19  H    0.146971
    20  C   -0.393752
    21  C    0.331136
    22  H    0.138933
    23  C   -0.321135
    24  C   -0.201384
    25  H    0.136044
    26  C   -0.203511
    27  H    0.111140
    28  H    0.094347
    29  C    0.300387
    30  C   -0.137781
    31  C   -0.346072
    32  C    0.406172
    33  H    0.127472
    34  C   -0.373911
    35  C    0.346723
    36  H    0.125126
    37  C   -0.315926
    38  C   -0.186738
    39  H    0.131719
    40  C   -0.226440
    41  H    0.084290
    42  H    0.088167
    43  C    0.013925
    44  C    0.073455
    45  N   -0.292060
    46  H    0.079708
    47  C   -0.072805
    48  N   -0.276982
    49  H    0.072929
    50  C   -0.088752
    51  H    0.079283
    52  C   -0.369098
    53  C   -0.385932
    54  H    0.089096
    55  C   -0.404885
    56  C   -0.373705
    57  H    0.118533
    58  H    0.104544
    59  H    0.121715
    60  H    0.113696
    61  H    0.130829
    62  H    0.122488
    63  H    0.124674
    64  H    0.132253
    65  H    0.115927
    66  H    0.116713
    67  H    0.136202
    68  H    0.115512
    69  C    0.046723
    70  C    0.060927
    71  N   -0.316496
    72  H    0.085464
    73  C   -0.075318
    74  N   -0.395786
    75  H    0.093633
    76  C   -0.017871
    77  H    0.093876
    78  C   -0.408993
    79  C   -0.406084
    80  H    0.090638
    81  C   -0.570072
    82  C   -0.330992
    83  H    0.135105
    84  H    0.125171
    85  H    0.128393
    86  H    0.123078
    87  H    0.130385
    88  H    0.132089
    89  H    0.061846
    90  H    0.129697
    91  H    0.127647
    92  H    0.175633
    93  H    0.158294
    94  H    0.136816
    95  C    0.125303
    96  C   -0.038613
    97  N   -0.293942
    98  H    0.058595
    99  C   -0.102284
   100  N   -0.274342
   101  H    0.064943
   102  C   -0.024611
   103  H    0.080193
   104  C   -0.397043
   105  C   -0.358903
   106  H    0.084286
   107  C   -0.445843
   108  C   -0.384581
   109  H    0.126481
   110  H    0.129830
   111  H    0.096663
   112  H    0.132145
   113  H    0.115256
   114  H    0.136487
   115  H    0.123916
   116  H    0.128200
   117  H    0.126387
   118  H    0.131884
   119  H    0.135558
   120  H    0.138226
   121  C    0.100776
   122  C    0.080769
   123  N   -0.266129
   124  H    0.090757
   125  C   -0.015363
   126  N   -0.266681
   127  H    0.095352
   128  C    0.000394
   129  H    0.090867
   130  C   -0.428405
   131  C   -0.398788
   132  H    0.089533
   133  C   -0.428806
   134  C   -0.404679
   135  H    0.125980
   136  H    0.120505
   137  H    0.128428
   138  H    0.125551
   139  H    0.127751
   140  H    0.133994
   141  H    0.127188
   142  H    0.119696
   143  H    0.128029
   144  H    0.124260
   145  H    0.128133
   146  H    0.133138
   147  C    0.093644
   148  C    0.084033
   149  N   -0.238562
   150  H    0.084594
   151  C   -0.019281
   152  N   -0.236267
   153  H    0.086717
   154  C   -0.021761
   155  H    0.091627
   156  C   -0.422110
   157  C   -0.398017
   158  H    0.091435
   159  C   -0.421941
   160  C   -0.397602
   161  H    0.129242
   162  H    0.119629
   163  H    0.129481
   164  H    0.124819
   165  H    0.127469
   166  H    0.133943
   167  H    0.129578
   168  H    0.120056
   169  H    0.129047
   170  H    0.124748
   171  H    0.126962
   172  H    0.135158
   173  C    0.086762
   174  C    0.125512
   175  N   -0.262130
   176  H    0.088401
   177  C   -0.010146
   178  N   -0.258620
   179  H    0.079785
   180  C   -0.007345
   181  H    0.088132
   182  C   -0.426155
   183  C   -0.403057
   184  H    0.087233
   185  C   -0.427038
   186  C   -0.400543
   187  H    0.127881
   188  H    0.121003
   189  H    0.130978
   190  H    0.129438
   191  H    0.125050
   192  H    0.127369
   193  H    0.129940
   194  H    0.127073
   195  H    0.119013
   196  H    0.124509
   197  H    0.127313
   198  H    0.131515
   199  H    0.208512
   200  H    0.090333
   201  H    0.214297
   202  H    0.197931
   203  H    0.160596
   204  H    0.096532
   205  H    0.199741
   206  H    0.174407
   207  H    0.080180
 Sum of Mulliken charges =   0.00000
 Mulliken charges with hydrogens summed into heavy atoms:
               1
     1  C    0.362810
     2  C   -0.020667
     3  C   -0.134013
     4  C    0.284984
     6  C   -0.233433
     7  C    0.403438
     9  C   -0.303327
    10  C   -0.127497
    12  C   -0.113439
    15  C    0.246912
    16  C    0.099433
    17  C   -0.182748
    18  C    0.374502
    20  C   -0.254820
    21  C    0.331136
    23  C   -0.185090
    24  C   -0.090244
    26  C   -0.109164
    29  C    0.300387
    30  C   -0.041249
    31  C   -0.218600
    32  C    0.406172
    34  C   -0.248785
    35  C    0.346723
    37  C   -0.184207
    38  C   -0.102448
    40  C   -0.138273
    43  C    0.093633
    44  C    0.146384
    45  N   -0.117653
    47  C    0.006478
    48  N   -0.077242
    50  C    0.000343
    52  C   -0.002085
    53  C   -0.041140
    55  C   -0.036458
    56  C   -0.000851
    69  C    0.132187
    70  C    0.154561
    71  N   -0.107984
    73  C    0.018558
    74  N   -0.181489
    76  C    0.072767
    78  C   -0.023440
    79  C   -0.017414
    81  C   -0.099329
    82  C   -0.011802
    95  C    0.183898
    96  C    0.026330
    97  N   -0.133346
    99  C   -0.022090
   100  N   -0.076411
   102  C    0.059675
   104  C   -0.013156
   105  C   -0.005928
   107  C   -0.040174
   108  C   -0.006079
   121  C    0.191533
   122  C    0.176121
   123  N   -0.266129
   125  C    0.075504
   126  N   -0.266681
   128  C    0.089926
   130  C   -0.041109
   131  C   -0.023875
   133  C   -0.043275
   134  C   -0.029765
   147  C    0.178238
   148  C    0.170750
   149  N   -0.238562
   151  C    0.072345
   152  N   -0.236267
   154  C    0.069674
   156  C   -0.035879
   157  C   -0.019665
   159  C   -0.035072
   160  C   -0.018921
   173  C    0.175162
   174  C    0.205297
   175  N   -0.262130
   177  C    0.077986
   178  N   -0.258620
   180  C    0.079889
   182  C   -0.044298
   183  C   -0.023195
   185  C   -0.043701
   186  C   -0.024517
 Electronic spatial extent (au):  <R**2>=          93751.1390
 Charge=              0.0000 electrons
 Dipole moment (field-independent basis, Debye):
    X=             -2.8692    Y=             -3.2530    Z=             -3.8671  Tot=              5.8111
 Quadrupole moment (field-independent basis, Debye-Ang):
   XX=           -524.5426   YY=           -520.2166   ZZ=           -534.5969
   XY=             19.7558   XZ=             11.9206   YZ=             11.3957
 Traceless Quadrupole moment (field-independent basis, Debye-Ang):
   XX=              1.9094   YY=              6.2355   ZZ=             -8.1449
   XY=             19.7558   XZ=             11.9206   YZ=             11.3957
 Octapole moment (field-independent basis, Debye-Ang**2):
  XXX=            -37.6189  YYY=             15.1221  ZZZ=              8.4508  XYY=            -88.1050
  XXY=            -68.0562  XXZ=           -148.3580  XZZ=            -48.5819  YZZ=             -8.9401
  YYZ=            -63.0881  XYZ=             54.6189
 Hexadecapole moment (field-independent basis, Debye-Ang**3):
 XXXX=         -62681.6816 YYYY=         -33969.1014 ZZZZ=         -29733.9109 XXXY=            937.4366
 XXXZ=            802.5710 YYYX=            241.7486 YYYZ=           -147.8701 ZZZX=            -23.5875
 ZZZY=            224.5519 XXYY=         -16187.0707 XXZZ=         -16233.1004 YYZZ=         -10712.7693
 XXYZ=            170.2612 YYXZ=            122.9157 ZZXY=            -36.7317
 N-N= 1.750087321402D+04 E-N=-4.332635567512D+04  KE= 3.567061796623D+03
 Leave Link  601 at Tue Oct 19 01:00:42 2021, MaxMem=  7864320000 cpu:             135.9 elap:               5.2
 (Enter /apps/gaussian/g16-c01-avx/g16/l9999.exe)
 Unable to Open any file for archive entry.
 1\1\GINC-CX3-5-0\SP\RPBE1PBE\def2TZVP\C75H120N12\ROOT\19-Oct-2021\0\\#
 P PBE1PBE/Def2TZVP SP SCF=(YQC,MaxCycle=900) int=(Grid=Superfinegrid) 
 EmpiricalDispersion=GD3 SCRF=(PCM,Solvent=Dichloromethane)\\_3_alde1_6
 _ami1_1_opt_dcm\\0,1\C,0,-2.8508,-2.1294,-0.3838\C,0,-2.8718,-3.1333,-
 1.505\C,0,-2.5694,-2.583,0.894\C,0,-2.5464,-1.7136,1.9811\H,0,-2.3436,
 -3.623,1.0593\C,0,-2.8053,-0.3651,1.7745\C,0,-3.1051,0.1056,0.4981\H,0
 ,-2.8027,0.3374,2.5936\C,0,-3.1173,-0.7828,-0.5781\C,0,-3.4604,1.5035,
 0.2943\H,0,-3.3581,-0.4169,-1.5668\C,0,-2.2394,-2.239,3.3046\H,0,-3.55
 78,1.8316,-0.753\H,0,-1.8475,-1.517,4.0376\C,0,1.9178,-2.06,-0.1443\C,
 0,1.9376,-2.0602,-1.653\C,0,2.6812,-1.1536,0.5727\C,0,2.6623,-1.1525,1
 .9674\H,0,3.287,-0.4209,0.0657\C,0,1.863,-2.0641,2.6413\C,0,1.102,-2.9
 897,1.931\H,0,1.8274,-2.0875,3.7197\C,0,1.1298,-2.9788,0.5378\C,0,0.26
 26,-3.9471,2.6315\H,0,0.5227,-3.6801,-0.0156\C,0,3.4807,-0.1984,2.7051
 \H,0,-0.3337,-4.6124,1.99\H,0,3.1179,0.0707,3.7102\C,0,1.3012,3.9989,-
 1.9841\C,0,1.184,4.4086,-3.4273\C,0,0.2215,4.1076,-1.1261\C,0,0.3395,3
 .7493,0.2181\H,0,-0.7327,4.469,-1.4764\C,0,1.5641,3.3024,0.6989\C,0,2.
 6593,3.195,-0.154\H,0,1.6905,3.0316,1.736\C,0,2.5143,3.529,-1.4978\C,0
 ,3.9564,2.7647,0.3492\H,0,3.3487,3.4301,-2.1772\C,0,-0.8051,3.8678,1.1
 101\H,0,4.6658,2.3974,-0.4098\H,0,-0.66,3.4912,2.1346\C,0,-1.9551,-5.1
 592,-2.2207\C,0,-3.4658,-5.365,-1.9191\N,0,-1.6565,-3.9383,-1.4868\H,0
 ,-1.3552,-5.9717,-1.7951\C,0,-1.6214,-5.0752,-3.7288\N,0,-3.9489,-4.09
 75,-1.3624\H,0,-4.0074,-5.5162,-2.8611\C,0,-3.8046,-6.5506,-0.9963\H,0
 ,-2.1466,-4.2075,-4.1448\C,0,-2.0465,-6.3241,-4.4983\C,0,-0.1154,-4.88
 48,-3.9195\H,0,-4.8788,-6.4685,-0.7874\C,0,-3.0603,-6.5203,0.3385\C,0,
 -3.5647,-7.8864,-1.6964\H,0,0.4197,-5.7571,-3.5471\H,0,0.2488,-4.0091,
 -3.3904\H,0,0.1175,-4.7678,-4.9764\H,0,-1.5702,-7.2072,-4.0781\H,0,-1.
 7406,-6.2362,-5.5391\H,0,-3.1221,-6.4712,-4.4782\H,0,-4.1185,-7.9391,-
 2.6304\H,0,-3.8919,-8.7055,-1.0596\H,0,-2.5087,-8.0254,-1.913\H,0,-1.9
 853,-6.5817,0.1897\H,0,-3.3693,-7.3668,0.9486\H,0,-3.2767,-5.6134,0.89
 79\C,0,2.3782,-0.799,-3.5697\C,0,0.8733,-1.1922,-3.5438\N,0,2.7826,-1.
 0077,-2.192\H,0,2.5072,0.2662,-3.8023\C,0,3.1703,-1.62,-4.614\N,0,0.62
 39,-1.7931,-2.2285\H,0,0.7081,-1.982,-4.2884\C,0,-0.0709,-0.0284,-3.88
 39\H,0,2.958,-2.6832,-4.4493\C,0,4.6767,-1.3937,-4.4784\C,0,2.7399,-1.
 2423,-6.0299\H,0,0.3521,0.4614,-4.7699\C,0,-0.1688,1.0007,-2.7572\C,0,
 -1.4568,-0.5523,-4.2519\H,0,3.243,-1.8753,-6.7575\H,0,3.009,-0.2085,-6
 .2357\H,0,1.6677,-1.3547,-6.168\H,0,5.0698,-1.8126,-3.5542\H,0,4.9012,
 -0.3289,-4.5004\H,0,5.1992,-1.8728,-5.3035\H,0,-1.8637,-1.1291,-3.4262
 \H,0,-1.4076,-1.1943,-5.1292\H,0,-2.1312,0.2737,-4.4685\H,0,0.8147,1.2
 434,-2.3611\H,0,-0.79,0.6365,-1.9401\H,0,-0.6267,1.917,-3.1235\C,0,2.2
 511,4.2371,-5.5194\C,0,2.0662,5.7251,-5.0991\N,0,1.9215,3.4985,-4.3086
 \H,0,3.3087,4.0445,-5.7502\C,0,1.4421,3.8631,-6.7801\N,0,1.7844,5.7071
 ,-3.6683\H,0,1.1644,6.1137,-5.5904\C,0,3.2336,6.6409,-5.4886\H,0,1.649
 1,4.64,-7.5258\C,0,-0.0664,3.8115,-6.542\C,0,1.9201,2.5233,-7.3388\H,0
 ,3.4339,6.4565,-6.551\C,0,4.5147,6.3602,-4.702\C,0,2.8265,8.1028,-5.31
 33\H,0,2.9838,2.5563,-7.5647\H,0,1.3829,2.2772,-8.252\H,0,1.7472,1.726
 1,-6.6182\H,0,-0.4393,4.7537,-6.1478\H,0,-0.3245,3.0176,-5.8428\H,0,-0
 .5803,3.6097,-7.4795\H,0,1.9925,8.3509,-5.9656\H,0,3.6585,8.7611,-5.55
 26\H,0,2.5211,8.2799,-4.2852\H,0,4.436,6.7378,-3.6845\H,0,5.3544,6.862
 3,-5.1773\H,0,4.7329,5.2954,-4.6641\C,0,-1.9814,-3.9842,4.8338\C,0,-0.
 7462,-4.8754,4.5063\N,0,-2.4126,-3.4575,3.5762\H,0,-1.6428,-3.1775,5.5
 073\C,0,-3.1418,-4.743,5.5028\N,0,0.2102,-4.0042,3.8913\H,0,-1.0879,-5
 .6476,3.7959\C,0,-0.1112,-5.5572,5.7293\H,0,-2.7736,-5.1736,6.4392\C,0
 ,-3.6873,-5.8563,4.6133\C,0,-4.2539,-3.7494,5.8403\H,0,-0.8613,-6.2069
 ,6.1913\C,0,0.383,-4.5431,6.7565\C,0,1.0505,-6.4304,5.2539\H,0,-4.651,
 -3.309,4.9283\H,0,-3.8778,-2.949,6.4745\H,0,-5.0635,-4.2514,6.3653\H,0
 ,-4.5889,-6.2766,5.0536\H,0,-2.9624,-6.6573,4.4953\H,0,-3.9288,-5.454,
 3.6336\H,0,1.8124,-5.81,4.7876\H,0,0.7092,-7.1633,4.5253\H,0,1.4957,-6
 .9606,6.0927\H,0,0.9613,-5.0452,7.5291\H,0,-0.4476,-4.0301,7.2344\H,0,
 1.0145,-3.8087,6.265\C,0,-4.115,3.619,1.0562\C,0,-2.9931,4.5266,1.6203
 \N,0,-3.6918,2.2689,1.2676\H,0,-4.215,3.845,-0.0206\C,0,-5.4893,3.8013
 ,1.7336\N,0,-1.8845,4.3918,0.7263\H,0,-2.743,4.1575,2.631\C,0,-3.3608,
 6.0219,1.7117\H,0,-5.7984,4.8426,1.6039\C,0,-5.4368,3.4693,3.2219\C,0,
 -6.5201,2.9146,1.0344\H,0,-4.2316,6.1211,2.3666\C,0,-3.6854,6.6118,0.3
 425\C,0,-2.2019,6.7876,2.3506\H,0,-6.2619,1.8652,1.1585\H,0,-6.5615,3.
 1364,-0.0304\H,0,-7.508,3.0807,1.4578\H,0,-6.4364,3.5136,3.6492\H,0,-4
 .8045,4.171,3.7592\H,0,-5.0401,2.4672,3.3578\H,0,-1.3191,6.732,1.7176\
 H,0,-1.9547,6.3715,3.3254\H,0,-2.4692,7.8338,2.4819\H,0,-3.8451,7.6847
 ,0.4274\H,0,-4.5836,6.1653,-0.0756\H,0,-2.8571,6.4323,-0.3369\C,0,5.31
 48,1.2212,2.9639\C,0,5.5523,2.4149,2.0093\N,0,4.5427,0.2705,2.2191\H,0
 ,4.7502,1.5834,3.8401\C,0,6.6126,0.5535,3.4668\N,0,4.2576,2.8444,1.569
 3\H,0,6.1505,2.0482,1.1565\C,0,6.2908,3.6056,2.6527\H,0,7.2145,1.3223,
 3.9618\C,0,7.421,-0.0638,2.3288\C,0,6.2684,-0.5154,4.5039\H,0,7.2614,3
 .2481,3.0116\C,0,5.5096,4.2039,3.8192\C,0,6.5443,4.6748,1.5896\H,0,5.6
 823,-1.3108,4.0484\H,0,5.6947,-0.0883,5.3243\H,0,7.1783,-0.9489,4.9128
 \H,0,6.7854,-0.7232,1.7439\H,0,8.2514,-0.6396,2.7321\H,0,7.8276,0.7024
 ,1.6742\H,0,7.1262,5.4929,2.0082\H,0,5.5997,5.0721,1.2249\H,0,7.0938,4
 .2594,0.7468\H,0,5.9808,5.1275,4.1484\H,0,5.4787,3.5207,4.6638\H,0,4.4
 925,4.4195,3.5038\H,0,3.769,-1.2032,-2.0901\H,0,2.248,-3.0697,-2.0027\
 H,0,0.1487,-1.124,-1.6308\H,0,2.6558,5.7556,-3.1492\H,0,1.4152,2.6423,
 -4.4899\H,0,0.1148,4.4867,-3.6995\H,0,-4.1737,-4.2091,-0.38\H,0,-0.859
 3,-3.4218,-1.8457\H,0,-3.0255,-2.6152,-2.4733\\Version=ES64L-G16RevC.0
 1\State=1-A\HF=-3584.4188238\RMSD=6.587e-10\Dipole=1.0945487,-0.213210
 8,-1.9958525\Quadrupole=-8.3974772,-11.7833377,20.180815,1.0712558,-8.
 1822862,-4.4432374\PG=C01 [X(C75H120N12)]\\@
 The archive entry for this job was punched.


 DESK:  A WASTEBASKET WITH DRAWERS.
 Job cpu time:       7 days  1 hours 27 minutes 25.3 seconds.
 Elapsed time:       0 days  5 hours 22 minutes 31.7 seconds.
 File lengths (MBytes):  RWF=   8648 Int=      0 D2E=      0 Chk=    688 Scr=     16
 Normal termination of Gaussian 16 at Tue Oct 19 01:00:43 2021.
