 Entering Gaussian System, Link 0=g16
 Initial command:
 /apps/gaussian/g16-c01-avx/g16/l1.exe "/rds/general/ephemeral/user/atarzia/ephemeral/Gau-232123.inp" -scrdir="/rds/general/ephemeral/user/atarzia/ephemeral/"
 Entering Link 1 = /apps/gaussian/g16-c01-avx/g16/l1.exe PID=    232124.
  
 Copyright (c) 1988-2019, Gaussian, Inc.  All Rights Reserved.
  
 This is part of the Gaussian(R) 16 program.  It is based on
 the Gaussian(R) 09 system (copyright 2009, Gaussian, Inc.),
 the Gaussian(R) 03 system (copyright 2003, Gaussian, Inc.),
 the Gaussian(R) 98 system (copyright 1998, Gaussian, Inc.),
 the Gaussian(R) 94 system (copyright 1995, Gaussian, Inc.),
 the Gaussian 92(TM) system (copyright 1992, Gaussian, Inc.),
 the Gaussian 90(TM) system (copyright 1990, Gaussian, Inc.),
 the Gaussian 88(TM) system (copyright 1988, Gaussian, Inc.),
 the Gaussian 86(TM) system (copyright 1986, Carnegie Mellon
 University), and the Gaussian 82(TM) system (copyright 1983,
 Carnegie Mellon University). Gaussian is a federally registered
 trademark of Gaussian, Inc.
  
 This software contains proprietary and confidential information,
 including trade secrets, belonging to Gaussian, Inc.
  
 This software is provided under written license and may be
 used, copied, transmitted, or stored only in accord with that
 written license.
  
 The following legend is applicable only to US Government
 contracts under FAR:
  
                    RESTRICTED RIGHTS LEGEND
  
 Use, reproduction and disclosure by the US Government is
 subject to restrictions as set forth in subparagraphs (a)
 and (c) of the Commercial Computer Software - Restricted
 Rights clause in FAR 52.227-19.
  
 Gaussian, Inc.
 340 Quinnipiac St., Bldg. 40, Wallingford CT 06492
  
  
 ---------------------------------------------------------------
 Warning -- This program may not be used in any manner that
 competes with the business of Gaussian, Inc. or will provide
 assistance to any competitor of Gaussian, Inc.  The licensee
 of this program is prohibited from giving any competitor of
 Gaussian, Inc. access to this program.  By using this program,
 the user acknowledges that Gaussian, Inc. is engaged in the
 business of creating and licensing software in the field of
 computational chemistry and represents and warrants to the
 licensee that it is not a competitor of Gaussian, Inc. and that
 it will not use this program in any manner prohibited above.
 ---------------------------------------------------------------
  

 Cite this work as:
 Gaussian 16, Revision C.01,
 M. J. Frisch, G. W. Trucks, H. B. Schlegel, G. E. Scuseria, 
 M. A. Robb, J. R. Cheeseman, G. Scalmani, V. Barone, 
 G. A. Petersson, H. Nakatsuji, X. Li, M. Caricato, A. V. Marenich, 
 J. Bloino, B. G. Janesko, R. Gomperts, B. Mennucci, H. P. Hratchian, 
 J. V. Ortiz, A. F. Izmaylov, J. L. Sonnenberg, D. Williams-Young, 
 F. Ding, F. Lipparini, F. Egidi, J. Goings, B. Peng, A. Petrone, 
 T. Henderson, D. Ranasinghe, V. G. Zakrzewski, J. Gao, N. Rega, 
 G. Zheng, W. Liang, M. Hada, M. Ehara, K. Toyota, R. Fukuda, 
 J. Hasegawa, M. Ishida, T. Nakajima, Y. Honda, O. Kitao, H. Nakai, 
 T. Vreven, K. Throssell, J. A. Montgomery, Jr., J. E. Peralta, 
 F. Ogliaro, M. J. Bearpark, J. J. Heyd, E. N. Brothers, K. N. Kudin, 
 V. N. Staroverov, T. A. Keith, R. Kobayashi, J. Normand, 
 K. Raghavachari, A. P. Rendell, J. C. Burant, S. S. Iyengar, 
 J. Tomasi, M. Cossi, J. M. Millam, M. Klene, C. Adamo, R. Cammi, 
 J. W. Ochterski, R. L. Martin, K. Morokuma, O. Farkas, 
 J. B. Foresman, and D. J. Fox, Gaussian, Inc., Wallingford CT, 2019.
 
 ******************************************
 Gaussian 16:  ES64L-G16RevC.01  3-Jul-2019
                18-Oct-2021 
 ******************************************
 %chk=_3_alde1_6_ami2_2_opt_cfm.chk
 %mem=60000mb
 %nprocshared=32
 Will use up to   32 processors via shared memory.
 ----------------------------------------------------------------------
 #P PBE1PBE/Def2TZVP SP SCF=(YQC,MaxCycle=900) int=(Grid=Superfinegrid)
  EmpiricalDispersion=GD3 SCRF=(PCM,Solvent=Chloroform)
 ----------------------------------------------------------------------
 1/38=1,172=1/1;
 2/12=2,17=6,18=5,40=1/2;
 3/5=44,7=101,11=2,25=1,30=1,70=2201,72=7,74=-13,75=-7,124=31/1,2,3;
 4//1;
 5/5=2,7=900,8=4,13=1,38=1,53=7/8,2,8;
 6/7=2,8=2,9=2,10=2,28=1/1;
 99/5=1,9=1/99;
 Leave Link    1 at Mon Oct 18 14:33:31 2021, MaxMem=  7864320000 cpu:               4.7 elap:               0.2
 (Enter /apps/gaussian/g16-c01-avx/g16/l101.exe)
 -------------------------
 _3_alde1_6_ami2_2_opt_cfm
 -------------------------
 Symbolic Z-matrix:
 Charge =  0 Multiplicity = 1
 C                    -5.5631   -0.5077    2.1037 
 C                    -6.616    -1.2385    2.7939 
 C                    -4.5745   -1.1862    1.3966 
 C                    -3.5588   -0.4897    0.746 
 H                    -4.5967   -2.2622    1.3449 
 C                    -3.538     0.8986    0.8094 
 C                    -4.5304    1.5941    1.4994 
 H                    -2.7624    1.469     0.3202 
 C                    -5.5388    0.8857    2.1445 
 C                    -4.5126    3.05      1.5157 
 H                    -6.3099    1.4207    2.6828 
 C                    -2.5395   -1.1962   -0.0242 
 H                    -5.3795    3.5473    1.9813 
 H                    -7.3487   -0.6258    3.3445 
 H                    -1.7527   -0.5698   -0.4561 
 C                     4.7997   -0.9326   -0.0913 
 C                     6.1807   -1.3731   -0.2227 
 C                     4.4873    0.1505    0.7214 
 C                     3.166     0.5739    0.868 
 H                     5.257     0.6822    1.2602 
 C                     2.1534   -0.0936    0.1879 
 C                     2.4504   -1.189    -0.6246 
 H                     1.1243    0.2184    0.2826 
 C                     3.7726   -1.5984   -0.76 
 C                     1.4044   -1.9351   -1.3061 
 H                     4.0288   -2.4413   -1.3839 
 C                     2.8585    1.7249    1.7048 
 H                     1.748    -2.8292   -1.8507 
 H                     6.9262   -0.7864    0.3365 
 H                     1.7946    1.9899    1.7858 
 C                     1.2267    2.2052   -2.9724 
 C                     1.5662    1.3832   -4.1236 
 C                    -0.0762    2.6652   -2.7803 
 C                    -0.3737    3.5366   -1.7379 
 H                    -0.8387    2.3483   -3.4759 
 C                     0.6395    3.929    -0.8673 
 C                     1.9374    3.4553   -1.0268 
 H                     0.4142    4.6054   -0.0596 
 C                     2.225     2.5949   -2.0835 
 C                     2.9842    3.8237   -0.0812 
 H                     3.2344    2.2284   -2.2174 
 C                    -1.7315    4.0451   -1.5539 
 H                     3.9788    3.4195   -0.3097 
 H                     2.6364    1.1476   -4.2413 
 H                    -2.5073    3.5256   -2.13 
 C                    -7.0326   -4.1826    4.4866 
 C                    -7.6908   -3.1994    3.4729 
 N                    -6.0641   -5.0543    3.8464 
 N                    -6.6796   -2.4974    2.7611 
 C                     7.965    -4.2534   -0.4263 
 C                     7.8491   -2.8086   -0.9998 
 N                     7.0341   -5.1683   -1.0623 
 N                     6.4977   -2.3686   -0.9303 
 C                     0.5526   -1.2091   -5.9967 
 C                     1.0765    0.2542   -6.109 
 N                    -0.842    -1.2654   -5.5933 
 C                     1.3788   -1.957    -4.9497 
 N                     0.6999    1.0134   -4.9637 
 C                    -1.6643   -3.2157   -0.9276 
 C                    -0.7791   -2.4152   -1.9271 
 N                    -2.6048   -2.4454   -0.1722 
 N                     0.1881   -1.5953   -1.2785 
 C                    -0.7862   -3.9691    0.0803 
 C                    -3.5205    5.1036    0.9697 
 C                    -3.2271    5.568    -0.4823 
 N                    -3.5479    3.6844    1.0122 
 N                    -1.9363    5.0229   -0.7889 
 C                    -3.073     7.0929   -0.4957 
 C                     3.4431    3.5747    2.9732 
 C                     3.6548    4.7718    1.9829 
 N                     3.7704    2.3645    2.3067 
 N                     2.7202    4.5415    0.924 
 C                     3.2351    6.069     2.6778 
 H                    -0.9535   -0.7703   -4.7144 
 H                    -1.4223   -0.7954   -6.2802 
 H                    -6.5139   -5.612     3.128 
 H                    -5.3534   -4.4898    3.3927 
 H                     7.2156   -5.2192   -2.0593 
 H                     6.0877   -4.8241   -0.9403 
 H                     1.3352   -1.4359   -3.9953 
 H                     2.4178   -2.0318   -5.2616 
 H                     0.9746   -2.9574   -4.8214 
 H                     2.167     0.2343   -6.269 
 H                     0.5975    0.7279   -6.9727 
 H                     8.5457   -2.1413   -0.4653 
 H                     8.1284   -2.8394   -2.0589 
 C                     7.6576   -4.2343    1.0723 
 H                     8.3803   -3.6213    1.605 
 H                     7.6967   -5.248     1.4605 
 H                     6.6612   -3.8347    1.2488 
 H                    -1.4387   -1.7643   -2.5092 
 H                    -0.3116   -3.1458   -2.6054 
 C                    -2.4952   -4.2215   -1.7365 
 H                    -3.0649   -3.7057   -2.5057 
 H                    -3.1897   -4.7267   -1.0714 
 H                    -1.8529   -4.9596   -2.2094 
 H                    -0.0964   -4.6291   -0.4403 
 H                    -1.4163   -4.5602    0.7393 
 H                    -0.2166   -3.2643    0.6823 
 C                    -8.1225   -5.0504    5.1172 
 C                    -6.304    -3.3843    5.5695 
 H                    -4.4531    5.5699    1.3307 
 H                    -2.6859    5.434     1.5954 
 C                    -4.3833    5.1486   -1.3986 
 H                    -4.1485    5.3861   -2.4344 
 H                    -5.2846    5.6869   -1.1152 
 H                    -4.5786    4.0818   -1.3118 
 H                    -2.2107    7.3797    0.0993 
 H                    -3.962     7.5728   -0.0942 
 H                    -2.9174    7.4377   -1.5151 
 H                     3.7799    6.2021    3.6088 
 H                     2.1693    6.0457    2.8861 
 H                     3.439     6.9141    2.025 
 C                     5.1312    4.8378    1.5761 
 H                     5.2547    5.5244    0.7404 
 H                     5.4978    3.8551    1.2929 
 H                     5.7239    5.1954    2.4139 
 H                     2.3987    3.6056    3.3161 
 H                     4.1228    3.7035    3.8174 
 H                    -5.8115   -4.0703    6.2526 
 H                    -7.0032   -2.7668    6.1281 
 H                    -5.5496   -2.7425    5.1196 
 H                    -8.2518   -3.7919    2.7413 
 H                    -8.3917   -2.53      4.0005 
 C                     9.3854   -4.7676   -0.6638 
 C                     0.6897   -1.8924   -7.3578 
 H                    -8.6495   -5.6186    4.3535 
 H                    -8.8424   -4.4365    5.6522 
 H                    -7.6671   -5.7497    5.8127 
 H                     1.7278   -1.903    -7.6798 
 H                     0.0981   -1.3732   -8.1089 
 H                     0.3303   -2.9151   -7.2846 
 H                     10.1124  -4.1388   -0.1564 
 H                     9.6168   -4.7787   -1.7269 
 H                     9.4675   -5.7819   -0.2835 
 
 ITRead=  0  0  0  0  0  0  0  0  0  0  0  0  0  0  0  0  0  0  0  0
 ITRead=  0  0  0  0  0  0  0  0  0  0  0  0  0  0  0  0  0  0  0  0
 ITRead=  0  0  0  0  0  0  0  0  0  0  0  0  0  0  0  0  0  0  0  0
 ITRead=  0  0  0  0  0  0  0  0  0  0  0  0  0  0  0  0  0  0  0  0
 ITRead=  0  0  0  0  0  0  0  0  0  0  0  0  0  0  0  0  0  0  0  0
 ITRead=  0  0  0  0  0  0  0  0  0  0  0  0  0  0  0  0  0  0  0  0
 ITRead=  0  0  0  0  0  0  0  0  0  0  0  0  0  0  0
 MicOpt= -1 -1 -1 -1 -1 -1 -1 -1 -1 -1 -1 -1 -1 -1 -1 -1 -1 -1 -1 -1
 MicOpt= -1 -1 -1 -1 -1 -1 -1 -1 -1 -1 -1 -1 -1 -1 -1 -1 -1 -1 -1 -1
 MicOpt= -1 -1 -1 -1 -1 -1 -1 -1 -1 -1 -1 -1 -1 -1 -1 -1 -1 -1 -1 -1
 MicOpt= -1 -1 -1 -1 -1 -1 -1 -1 -1 -1 -1 -1 -1 -1 -1 -1 -1 -1 -1 -1
 MicOpt= -1 -1 -1 -1 -1 -1 -1 -1 -1 -1 -1 -1 -1 -1 -1 -1 -1 -1 -1 -1
 MicOpt= -1 -1 -1 -1 -1 -1 -1 -1 -1 -1 -1 -1 -1 -1 -1 -1 -1 -1 -1 -1
 MicOpt= -1 -1 -1 -1 -1 -1 -1 -1 -1 -1 -1 -1 -1 -1 -1
 NAtoms=    135 NQM=      135 NQMF=       0 NMMI=      0 NMMIF=      0
                NMic=       0 NMicF=      0.
                    Isotopes and Nuclear Properties:
 (Nuclear quadrupole moments (NQMom) in fm**2, nuclear magnetic moments (NMagM)
  in nuclear magnetons)

  Atom         1           2           3           4           5           6           7           8           9          10
 IAtWgt=          12          12          12          12           1          12          12           1          12          12
 AtmWgt=  12.0000000  12.0000000  12.0000000  12.0000000   1.0078250  12.0000000  12.0000000   1.0078250  12.0000000  12.0000000
 NucSpn=           0           0           0           0           1           0           0           1           0           0
 AtZEff=  -0.0000000  -0.0000000  -0.0000000  -0.0000000  -0.0000000  -0.0000000  -0.0000000  -0.0000000  -0.0000000  -0.0000000
 NQMom=    0.0000000   0.0000000   0.0000000   0.0000000   0.0000000   0.0000000   0.0000000   0.0000000   0.0000000   0.0000000
 NMagM=    0.0000000   0.0000000   0.0000000   0.0000000   2.7928460   0.0000000   0.0000000   2.7928460   0.0000000   0.0000000
 AtZNuc=   6.0000000   6.0000000   6.0000000   6.0000000   1.0000000   6.0000000   6.0000000   1.0000000   6.0000000   6.0000000

  Atom        11          12          13          14          15          16          17          18          19          20
 IAtWgt=           1          12           1           1           1          12          12          12          12           1
 AtmWgt=   1.0078250  12.0000000   1.0078250   1.0078250   1.0078250  12.0000000  12.0000000  12.0000000  12.0000000   1.0078250
 NucSpn=           1           0           1           1           1           0           0           0           0           1
 AtZEff=  -0.0000000  -0.0000000  -0.0000000  -0.0000000  -0.0000000  -0.0000000  -0.0000000  -0.0000000  -0.0000000  -0.0000000
 NQMom=    0.0000000   0.0000000   0.0000000   0.0000000   0.0000000   0.0000000   0.0000000   0.0000000   0.0000000   0.0000000
 NMagM=    2.7928460   0.0000000   2.7928460   2.7928460   2.7928460   0.0000000   0.0000000   0.0000000   0.0000000   2.7928460
 AtZNuc=   1.0000000   6.0000000   1.0000000   1.0000000   1.0000000   6.0000000   6.0000000   6.0000000   6.0000000   1.0000000

  Atom        21          22          23          24          25          26          27          28          29          30
 IAtWgt=          12          12           1          12          12           1          12           1           1           1
 AtmWgt=  12.0000000  12.0000000   1.0078250  12.0000000  12.0000000   1.0078250  12.0000000   1.0078250   1.0078250   1.0078250
 NucSpn=           0           0           1           0           0           1           0           1           1           1
 AtZEff=  -0.0000000  -0.0000000  -0.0000000  -0.0000000  -0.0000000  -0.0000000  -0.0000000  -0.0000000  -0.0000000  -0.0000000
 NQMom=    0.0000000   0.0000000   0.0000000   0.0000000   0.0000000   0.0000000   0.0000000   0.0000000   0.0000000   0.0000000
 NMagM=    0.0000000   0.0000000   2.7928460   0.0000000   0.0000000   2.7928460   0.0000000   2.7928460   2.7928460   2.7928460
 AtZNuc=   6.0000000   6.0000000   1.0000000   6.0000000   6.0000000   1.0000000   6.0000000   1.0000000   1.0000000   1.0000000

  Atom        31          32          33          34          35          36          37          38          39          40
 IAtWgt=          12          12          12          12           1          12          12           1          12          12
 AtmWgt=  12.0000000  12.0000000  12.0000000  12.0000000   1.0078250  12.0000000  12.0000000   1.0078250  12.0000000  12.0000000
 NucSpn=           0           0           0           0           1           0           0           1           0           0
 AtZEff=  -0.0000000  -0.0000000  -0.0000000  -0.0000000  -0.0000000  -0.0000000  -0.0000000  -0.0000000  -0.0000000  -0.0000000
 NQMom=    0.0000000   0.0000000   0.0000000   0.0000000   0.0000000   0.0000000   0.0000000   0.0000000   0.0000000   0.0000000
 NMagM=    0.0000000   0.0000000   0.0000000   0.0000000   2.7928460   0.0000000   0.0000000   2.7928460   0.0000000   0.0000000
 AtZNuc=   6.0000000   6.0000000   6.0000000   6.0000000   1.0000000   6.0000000   6.0000000   1.0000000   6.0000000   6.0000000

  Atom        41          42          43          44          45          46          47          48          49          50
 IAtWgt=           1          12           1           1           1          12          12          14          14          12
 AtmWgt=   1.0078250  12.0000000   1.0078250   1.0078250   1.0078250  12.0000000  12.0000000  14.0030740  14.0030740  12.0000000
 NucSpn=           1           0           1           1           1           0           0           2           2           0
 AtZEff=  -0.0000000  -0.0000000  -0.0000000  -0.0000000  -0.0000000  -0.0000000  -0.0000000  -0.0000000  -0.0000000  -0.0000000
 NQMom=    0.0000000   0.0000000   0.0000000   0.0000000   0.0000000   0.0000000   0.0000000   2.0440000   2.0440000   0.0000000
 NMagM=    2.7928460   0.0000000   2.7928460   2.7928460   2.7928460   0.0000000   0.0000000   0.4037610   0.4037610   0.0000000
 AtZNuc=   1.0000000   6.0000000   1.0000000   1.0000000   1.0000000   6.0000000   6.0000000   7.0000000   7.0000000   6.0000000

  Atom        51          52          53          54          55          56          57          58          59          60
 IAtWgt=          12          14          14          12          12          14          12          14          12          12
 AtmWgt=  12.0000000  14.0030740  14.0030740  12.0000000  12.0000000  14.0030740  12.0000000  14.0030740  12.0000000  12.0000000
 NucSpn=           0           2           2           0           0           2           0           2           0           0
 AtZEff=  -0.0000000  -0.0000000  -0.0000000  -0.0000000  -0.0000000  -0.0000000  -0.0000000  -0.0000000  -0.0000000  -0.0000000
 NQMom=    0.0000000   2.0440000   2.0440000   0.0000000   0.0000000   2.0440000   0.0000000   2.0440000   0.0000000   0.0000000
 NMagM=    0.0000000   0.4037610   0.4037610   0.0000000   0.0000000   0.4037610   0.0000000   0.4037610   0.0000000   0.0000000
 AtZNuc=   6.0000000   7.0000000   7.0000000   6.0000000   6.0000000   7.0000000   6.0000000   7.0000000   6.0000000   6.0000000

  Atom        61          62          63          64          65          66          67          68          69          70
 IAtWgt=          14          14          12          12          12          14          14          12          12          12
 AtmWgt=  14.0030740  14.0030740  12.0000000  12.0000000  12.0000000  14.0030740  14.0030740  12.0000000  12.0000000  12.0000000
 NucSpn=           2           2           0           0           0           2           2           0           0           0
 AtZEff=  -0.0000000  -0.0000000  -0.0000000  -0.0000000  -0.0000000  -0.0000000  -0.0000000  -0.0000000  -0.0000000  -0.0000000
 NQMom=    2.0440000   2.0440000   0.0000000   0.0000000   0.0000000   2.0440000   2.0440000   0.0000000   0.0000000   0.0000000
 NMagM=    0.4037610   0.4037610   0.0000000   0.0000000   0.0000000   0.4037610   0.4037610   0.0000000   0.0000000   0.0000000
 AtZNuc=   7.0000000   7.0000000   6.0000000   6.0000000   6.0000000   7.0000000   7.0000000   6.0000000   6.0000000   6.0000000

  Atom        71          72          73          74          75          76          77          78          79          80
 IAtWgt=          14          14          12           1           1           1           1           1           1           1
 AtmWgt=  14.0030740  14.0030740  12.0000000   1.0078250   1.0078250   1.0078250   1.0078250   1.0078250   1.0078250   1.0078250
 NucSpn=           2           2           0           1           1           1           1           1           1           1
 AtZEff=  -0.0000000  -0.0000000  -0.0000000  -0.0000000  -0.0000000  -0.0000000  -0.0000000  -0.0000000  -0.0000000  -0.0000000
 NQMom=    2.0440000   2.0440000   0.0000000   0.0000000   0.0000000   0.0000000   0.0000000   0.0000000   0.0000000   0.0000000
 NMagM=    0.4037610   0.4037610   0.0000000   2.7928460   2.7928460   2.7928460   2.7928460   2.7928460   2.7928460   2.7928460
 AtZNuc=   7.0000000   7.0000000   6.0000000   1.0000000   1.0000000   1.0000000   1.0000000   1.0000000   1.0000000   1.0000000

  Atom        81          82          83          84          85          86          87          88          89          90
 IAtWgt=           1           1           1           1           1           1          12           1           1           1
 AtmWgt=   1.0078250   1.0078250   1.0078250   1.0078250   1.0078250   1.0078250  12.0000000   1.0078250   1.0078250   1.0078250
 NucSpn=           1           1           1           1           1           1           0           1           1           1
 AtZEff=  -0.0000000  -0.0000000  -0.0000000  -0.0000000  -0.0000000  -0.0000000  -0.0000000  -0.0000000  -0.0000000  -0.0000000
 NQMom=    0.0000000   0.0000000   0.0000000   0.0000000   0.0000000   0.0000000   0.0000000   0.0000000   0.0000000   0.0000000
 NMagM=    2.7928460   2.7928460   2.7928460   2.7928460   2.7928460   2.7928460   0.0000000   2.7928460   2.7928460   2.7928460
 AtZNuc=   1.0000000   1.0000000   1.0000000   1.0000000   1.0000000   1.0000000   6.0000000   1.0000000   1.0000000   1.0000000

  Atom        91          92          93          94          95          96          97          98          99         100
 IAtWgt=           1           1          12           1           1           1           1           1           1          12
 AtmWgt=   1.0078250   1.0078250  12.0000000   1.0078250   1.0078250   1.0078250   1.0078250   1.0078250   1.0078250  12.0000000
 NucSpn=           1           1           0           1           1           1           1           1           1           0
 AtZEff=  -0.0000000  -0.0000000  -0.0000000  -0.0000000  -0.0000000  -0.0000000  -0.0000000  -0.0000000  -0.0000000  -0.0000000
 NQMom=    0.0000000   0.0000000   0.0000000   0.0000000   0.0000000   0.0000000   0.0000000   0.0000000   0.0000000   0.0000000
 NMagM=    2.7928460   2.7928460   0.0000000   2.7928460   2.7928460   2.7928460   2.7928460   2.7928460   2.7928460   0.0000000
 AtZNuc=   1.0000000   1.0000000   6.0000000   1.0000000   1.0000000   1.0000000   1.0000000   1.0000000   1.0000000   6.0000000

  Atom       101         102         103         104         105         106         107         108         109         110
 IAtWgt=          12           1           1          12           1           1           1           1           1           1
 AtmWgt=  12.0000000   1.0078250   1.0078250  12.0000000   1.0078250   1.0078250   1.0078250   1.0078250   1.0078250   1.0078250
 NucSpn=           0           1           1           0           1           1           1           1           1           1
 AtZEff=  -0.0000000  -0.0000000  -0.0000000  -0.0000000  -0.0000000  -0.0000000  -0.0000000  -0.0000000  -0.0000000  -0.0000000
 NQMom=    0.0000000   0.0000000   0.0000000   0.0000000   0.0000000   0.0000000   0.0000000   0.0000000   0.0000000   0.0000000
 NMagM=    0.0000000   2.7928460   2.7928460   0.0000000   2.7928460   2.7928460   2.7928460   2.7928460   2.7928460   2.7928460
 AtZNuc=   6.0000000   1.0000000   1.0000000   6.0000000   1.0000000   1.0000000   1.0000000   1.0000000   1.0000000   1.0000000

  Atom       111         112         113         114         115         116         117         118         119         120
 IAtWgt=           1           1           1          12           1           1           1           1           1           1
 AtmWgt=   1.0078250   1.0078250   1.0078250  12.0000000   1.0078250   1.0078250   1.0078250   1.0078250   1.0078250   1.0078250
 NucSpn=           1           1           1           0           1           1           1           1           1           1
 AtZEff=  -0.0000000  -0.0000000  -0.0000000  -0.0000000  -0.0000000  -0.0000000  -0.0000000  -0.0000000  -0.0000000  -0.0000000
 NQMom=    0.0000000   0.0000000   0.0000000   0.0000000   0.0000000   0.0000000   0.0000000   0.0000000   0.0000000   0.0000000
 NMagM=    2.7928460   2.7928460   2.7928460   0.0000000   2.7928460   2.7928460   2.7928460   2.7928460   2.7928460   2.7928460
 AtZNuc=   1.0000000   1.0000000   1.0000000   6.0000000   1.0000000   1.0000000   1.0000000   1.0000000   1.0000000   1.0000000

  Atom       121         122         123         124         125         126         127         128         129         130
 IAtWgt=           1           1           1           1          12          12           1           1           1           1
 AtmWgt=   1.0078250   1.0078250   1.0078250   1.0078250  12.0000000  12.0000000   1.0078250   1.0078250   1.0078250   1.0078250
 NucSpn=           1           1           1           1           0           0           1           1           1           1
 AtZEff=  -0.0000000  -0.0000000  -0.0000000  -0.0000000  -0.0000000  -0.0000000  -0.0000000  -0.0000000  -0.0000000  -0.0000000
 NQMom=    0.0000000   0.0000000   0.0000000   0.0000000   0.0000000   0.0000000   0.0000000   0.0000000   0.0000000   0.0000000
 NMagM=    2.7928460   2.7928460   2.7928460   2.7928460   0.0000000   0.0000000   2.7928460   2.7928460   2.7928460   2.7928460
 AtZNuc=   1.0000000   1.0000000   1.0000000   1.0000000   6.0000000   6.0000000   1.0000000   1.0000000   1.0000000   1.0000000

  Atom       131         132         133         134         135
 IAtWgt=           1           1           1           1           1
 AtmWgt=   1.0078250   1.0078250   1.0078250   1.0078250   1.0078250
 NucSpn=           1           1           1           1           1
 AtZEff=  -0.0000000  -0.0000000  -0.0000000  -0.0000000  -0.0000000
 NQMom=    0.0000000   0.0000000   0.0000000   0.0000000   0.0000000
 NMagM=    2.7928460   2.7928460   2.7928460   2.7928460   2.7928460
 AtZNuc=   1.0000000   1.0000000   1.0000000   1.0000000   1.0000000
 Leave Link  101 at Mon Oct 18 14:33:31 2021, MaxMem=  7864320000 cpu:               2.7 elap:               0.1
 (Enter /apps/gaussian/g16-c01-avx/g16/l202.exe)
 Stoichiometry    C51H72N12
 Framework group  C1[X(C51H72N12)]
 Deg. of freedom   399
 Full point group                 C1      NOp   1
 Largest Abelian subgroup         C1      NOp   1
 Largest concise Abelian subgroup C1      NOp   1
                         Standard orientation:                         
 ---------------------------------------------------------------------
 Center     Atomic      Atomic             Coordinates (Angstroms)
 Number     Number       Type             X           Y           Z
 ---------------------------------------------------------------------
      1          6           0        6.007506   -0.696158   -0.526610
      2          6           0        7.210270   -1.458970   -0.827473
      3          6           0        4.852591   -1.336495   -0.086355
      4          6           0        3.696662   -0.610201    0.189984
      5          1           0        4.852174   -2.405385    0.049349
      6          6           0        3.703755    0.769288    0.020310
      7          6           0        4.857475    1.427884   -0.403788
      8          1           0        2.823513    1.361778    0.221202
      9          6           0        6.004753    0.690011   -0.676098
     10          6           0        4.854261    2.878267   -0.532656
     11          1           0        6.901791    1.196193   -1.007290
     12          6           0        2.493958   -1.274332    0.683699
     13          1           0        5.821784    3.353639   -0.764014
     14          1           0        8.074585   -0.876796   -1.187256
     15          1           0        1.619892   -0.630352    0.822500
     16          6           0       -4.550098   -1.120169   -1.388822
     17          6           0       -5.912933   -1.571234   -1.629007
     18          6           0       -4.009526   -0.094527   -2.154996
     19          6           0       -2.699563    0.337452   -1.945271
     20          1           0       -4.587479    0.384479   -2.930864
     21          6           0       -1.930722   -0.262910   -0.954363
     22          6           0       -2.456570   -1.300594   -0.183024
     23          1           0       -0.916190    0.057243   -0.771102
     24          6           0       -3.764072   -1.719443   -0.404740
     25          6           0       -1.656650   -1.978718    0.824695
     26          1           0       -4.194811   -2.518455    0.179567
     27          6           0       -2.156297    1.428971   -2.740909
     28          1           0       -2.148482   -2.835924    1.311895
     29          1           0       -6.461482   -1.038494   -2.421455
     30          1           0       -1.112699    1.703793   -2.531040
     31          6           0       -1.941813    2.274347    2.158989
     32          6           0       -2.604452    1.533349    3.221080
     33          6           0       -0.636096    2.739221    2.317251
     34          6           0       -0.044778    3.536767    1.343236
     35          1           0       -0.108974    2.485742    3.224765
     36          6           0       -0.760901    3.848891    0.190742
     37          6           0       -2.052502    3.368054    0.003819
     38          1           0       -0.307707    4.467981   -0.565564
     39          6           0       -2.638402    2.582674    0.993523
     40          6           0       -2.779283    3.650254   -1.228180
     41          1           0       -3.645737    2.211337    0.857415
     42          6           0        1.311462    4.051447    1.521464
     43          1           0       -3.800005    3.248452   -1.266912
     44          1           0       -3.664496    1.290425    3.042243
     45          1           0        1.884560    3.587422    2.333792
     46          6           0        8.079515   -4.511892   -2.104420
     47          6           0        8.423061   -3.447302   -1.019929
     48          7           0        6.961954   -5.349460   -1.707876
     49          7           0        7.253801   -2.710989   -0.684279
     50          6           0       -7.698009   -4.456283   -1.735321
     51          6           0       -7.743625   -2.971880   -1.261772
     52          7           0       -6.996199   -5.307838   -0.791695
     53          7           0       -6.427008   -2.517257   -0.970998
     54          6           0       -2.191245   -0.899422    5.494138
     55          6           0       -2.716077    0.559887    5.341497
     56          7           0       -0.739949   -0.963403    5.515504
     57          6           0       -2.684538   -1.734396    4.311916
     58          7           0       -2.020017    1.239264    4.300406
     59          6           0        1.382519   -3.235863    1.443691
     60          6           0        0.251417   -2.378389    2.083008
     61          7           0        2.505908   -2.508249    0.936634
     62          7           0       -0.482102   -1.623051    1.123942
     63          6           0        0.828212   -4.074273    0.284232
     64          6           0        3.759635    4.950619   -0.450195
     65          6           0        3.062319    5.515094    0.816759
     66          7           0        3.789251    3.532694   -0.377415
     67          7           0        1.734586    4.973896    0.777612
     68          6           0        2.920470    7.034341    0.671799
     69          6           0       -2.338078    3.172056   -4.257803
     70          6           0       -2.819251    4.434780   -3.462465
     71          7           0       -2.851489    2.008774   -3.626047
     72          7           0       -2.231742    4.296823   -2.164934
     73          6           0       -2.208632    5.684179   -4.101142
     74          1           0       -0.376277   -0.532063    4.671875
     75          1           0       -0.379818   -0.435627    6.303690
     76          1           0        7.181614   -5.846245   -0.850904
     77          1           0        6.154061   -4.764439   -1.521715
     78          1           0       -7.458211   -5.288684    0.111477
     79          1           0       -6.052755   -4.958846   -0.660743
     80          1           0       -2.363905   -1.283686    3.374696
     81          1           0       -3.769790   -1.802320    4.315516
     82          1           0       -2.266783   -2.735113    4.380361
     83          1           0       -3.806421    0.534834    5.181159
     84          1           0       -2.503963    1.102680    6.268963
     85          1           0       -8.251987   -2.356206   -2.022525
     86          1           0       -8.317076   -2.929666   -0.329022
     87          6           0       -6.970803   -4.541786   -3.078646
     88          1           0       -7.505013   -3.980534   -3.841175
     89          1           0       -6.902475   -5.581585   -3.385185
     90          1           0       -5.963404   -4.140750   -2.989414
     91          1           0        0.718867   -1.676633    2.780585
     92          1           0       -0.396621   -3.064716    2.649953
     93          6           0        1.938090   -4.167001    2.530278
     94          1           0        2.264592   -3.587713    3.390568
     95          1           0        2.791897   -4.708557    2.133233
     96          1           0        1.181976   -4.878495    2.851282
     97          1           0        0.013336   -4.705140    0.631267
     98          1           0        1.618065   -4.702042   -0.119183
     99          1           0        0.461164   -3.424162   -0.507110
    100          6           0        9.299632   -5.406403   -2.327537
    101          6           0        7.699714   -3.806078   -3.407644
    102          1           0        4.759655    5.403725   -0.560447
    103          1           0        3.143384    5.221543   -1.312783
    104          6           0        3.901978    5.181593    2.056133
    105          1           0        3.379540    5.490348    2.959542
    106          1           0        4.850073    5.711673    2.005581
    107          1           0        4.107338    4.114454    2.108872
    108          1           0        2.268561    7.263597   -0.166232
    109          1           0        3.890530    7.497380    0.509299
    110          1           0        2.479264    7.450128    1.574425
    111          1           0       -2.460503    5.740568   -5.156919
    112          1           0       -1.128257    5.662247   -3.990826
    113          1           0       -2.587072    6.571385   -3.599580
    114          6           0       -4.349781    4.507416   -3.504901
    115          1           0       -4.705062    5.251149   -2.793774
    116          1           0       -4.788695    3.542434   -3.267287
    117          1           0       -4.673020    4.793737   -4.502206
    118          1           0       -1.238979    3.194025   -4.286177
    119          1           0       -2.744194    3.228401   -5.269312
    120          1           0        7.421189   -4.547617   -4.150828
    121          1           0        8.534297   -3.220219   -3.785085
    122          1           0        6.851565   -3.144926   -3.243459
    123          1           0        8.745151   -3.976106   -0.115695
    124          1           0        9.250644   -2.807400   -1.371143
    125          6           0       -9.129668   -4.973713   -1.880111
    126          6           0       -2.719862   -1.483663    6.804678
    127          1           0        9.580053   -5.909159   -1.404272
    128          1           0       10.147194   -4.822092   -2.676210
    129          1           0        9.060124   -6.161534   -3.070868
    130          1           0       -3.806766   -1.486815    6.813409
    131          1           0       -2.367145   -0.901966    7.653754
    132          1           0       -2.361049   -2.503293    6.914457
    133          1           0       -9.675201   -4.394926   -2.620902
    134          1           0       -9.658292   -4.910822   -0.931189
    135          1           0       -9.104792   -6.014200   -2.191466
 ---------------------------------------------------------------------
 Rotational constants (GHZ):           0.0338280           0.0222086           0.0186131
 Leave Link  202 at Mon Oct 18 14:33:31 2021, MaxMem=  7864320000 cpu:               0.2 elap:               0.0
 (Enter /apps/gaussian/g16-c01-avx/g16/l301.exe)
 Standard basis: def2TZVP (5D, 7F)
 Ernie: Thresh=  0.10000D-02 Tol=  0.10000D-05 Strict=F.
 There are  2700 symmetry adapted cartesian basis functions of A   symmetry.
 There are  2385 symmetry adapted basis functions of A   symmetry.
  2385 basis functions,  3789 primitive gaussians,  2700 cartesian basis functions
   231 alpha electrons      231 beta electrons
       nuclear repulsion energy      9296.2703680302 Hartrees.
 IExCor= 1009 DFT=T Ex+Corr=PBE1PBE ExCW=0 ScaHFX=  0.250000
 ScaDFX=  0.750000  0.750000  1.000000  1.000000 ScalE2=  1.000000  1.000000
 IRadAn=      7 IRanWt=     -1 IRanGd=            0 ICorTp=0 IEmpDi=131
 NAtoms=  135 NActive=  135 NUniq=  135 SFac= 1.00D+00 NAtFMM=   60 NAOKFM=T Big=T
 Integral buffers will be    131072 words long.
 Raffenetti 2 integral format.
 Two-electron integral symmetry is turned on.
 R6Disp:  Grimme-D3 Dispersion energy=       -0.1091661604 Hartrees.
 Nuclear repulsion after empirical dispersion term =     9296.1612018698 Hartrees.
 ------------------------------------------------------------------------------
 Polarizable Continuum Model (PCM)
 =================================
 Model                : PCM.
 Atomic radii         : UFF (Universal Force Field).
 Polarization charges : Total charges.
 Charge compensation  : None.
 Solution method      : On-the-fly selection.
 Cavity type          : Scaled VdW (van der Waals Surface) (Alpha=1.100).
 Cavity algorithm     : GePol (No added spheres)
                        Default sphere list used, NSphG=  135.
                        Lebedev-Laikov grids with approx.  5.0 points / Ang**2.
                        Smoothing algorithm: York/Karplus (Gamma=1.0000).
                        Polarization charges: spherical gaussians, with
                                              point-specific exponents (IZeta= 3).
                        Self-potential: point-specific (ISelfS= 7).
                        Self-field    : sphere-specific E.n sum rule (ISelfD= 2).
 Solvent              : Chloroform, Eps=   4.711300 Eps(inf)=   2.090627
 ------------------------------------------------------------------------------
 GePol: Number of generator spheres                  =     135
 GePol: Total number of spheres                      =     135
 GePol: Number of exposed spheres                    =     135 (100.00%)
 GePol: Number of points                             =    8157
 GePol: Average weight of points                     =       0.13
 GePol: Minimum weight of points                     =   0.11D-10
 GePol: Maximum weight of points                     =    0.20577
 GePol: Number of points with low weight             =     579
 GePol: Fraction of low-weight points (<1% of avg)   =       7.10%
 GePol: Cavity surface area                          =   1073.591 Ang**2
 GePol: Cavity volume                                =   1274.850 Ang**3
 Leave Link  301 at Mon Oct 18 14:33:31 2021, MaxMem=  7864320000 cpu:               1.5 elap:               0.1
 (Enter /apps/gaussian/g16-c01-avx/g16/l302.exe)
 NPDir=0 NMtPBC=     1 NCelOv=     1 NCel=       1 NClECP=     1 NCelD=      1
         NCelK=      1 NCelE2=     1 NClLst=     1 CellRange=     0.0.
 One-electron integrals computed using PRISM.
 One-electron integral symmetry used in STVInt
   1 Symmetry operations used in ECPInt.
 ECPInt:  NShTT=  481671 NPrTT= 1433880 LenC2=  284773 LenP2D=  538208.
 LDataN:  DoStor=T MaxTD1= 6 Len=  172
 Number of processors reduced to  31 by ecpmxn.
 NBasis=  2385 RedAO= T EigKep=  4.69D-06  NBF=  2385
 NBsUse=  2385 1.00D-06 EigRej= -1.00D+00 NBFU=  2385
 Precomputing XC quadrature grid using
 IXCGrd= 4 IRadAn=           7 IRanWt=          -1 IRanGd=           0 AccXCQ= 0.00D+00.
 Generated NRdTot=       0 NPtTot=           0 NUsed=           0 NTot=          32
 NSgBfM=  2368  2368  2368  2368  2368 MxSgAt=   135 MxSgA2=   135.
 Leave Link  302 at Mon Oct 18 14:33:48 2021, MaxMem=  7864320000 cpu:             522.1 elap:              16.4
 (Enter /apps/gaussian/g16-c01-avx/g16/l303.exe)
 DipDrv:  MaxL=1.
 Leave Link  303 at Mon Oct 18 14:33:48 2021, MaxMem=  7864320000 cpu:              19.3 elap:               0.8
 (Enter /apps/gaussian/g16-c01-avx/g16/l401.exe)
 ExpMin= 9.52D-02 ExpMax= 1.97D+04 ExpMxC= 6.73D+02 IAcc=3 IRadAn=         7 AccDes= 0.00D+00
 Harris functional with IExCor= 1009 and IRadAn=       7 diagonalized for initial guess.
 HarFok:  IExCor= 1009 AccDes= 0.00D+00 IRadAn=         7 IDoV= 1 UseB2=F ITyADJ=14
 ICtDFT=  3500011 ScaDFX=  1.000000  1.000000  1.000000  1.000000
 FoFCou: FMM=F IPFlag=           0 FMFlag=      100000 FMFlg1=        2001
         NFxFlg=           0 DoJE=T BraDBF=F KetDBF=T FulRan=T
         wScrn=  0.000000 ICntrl=       500 IOpCl=  0 I1Cent=   200000004 NGrid=           0
         NMat0=    1 NMatS0=      1 NMatT0=    0 NMatD0=    1 NMtDS0=    0 NMtDT0=    0
 Petite list used in FoFCou.
 Harris En= -2642.51082567666    
 JPrj=0 DoOrth=F DoCkMO=F.
 Leave Link  401 at Mon Oct 18 14:34:22 2021, MaxMem=  7864320000 cpu:            1068.3 elap:              33.6
 (Enter /apps/gaussian/g16-c01-avx/g16/l508.exe)
 Integral symmetry usage will be decided dynamically.
 Tight linear equation convergence will be used.
 RPBE1PBE wavefunction.
 Linear searches until partial convergence.
 Full line searches.
 Fock matrices will be formed incrementally for  20 cycles.
 Inv3:  Mode=1 IEnd=   199609947.
 Iteration    1 A*A^-1 deviation from unit magnitude is 1.03D-14 for   8149.
 Iteration    1 A*A^-1 deviation from orthogonality  is 3.94D-15 for   8144   8046.
 Iteration    1 A^-1*A deviation from unit magnitude is 1.03D-14 for   8149.
 Iteration    1 A^-1*A deviation from orthogonality  is 4.88D-15 for   8129   6480.
 FoFJK:  IHMeth= 1 ICntrl=       0 DoSepK=F KAlg= 0 I1Cent=           0 FoldK=F
 IRaf= 540000000 NMat=       1 IRICut=       1 DoRegI=T DoRafI=F ISym2E= 1 IDoP0=0 IntGTp=1.
 Iteration   1 EE= -2640.05764441716                                    Grad=1.874D+00 Max rot=    2.4043 deg.
 Gradient too large for Newton-Raphson -- use scaled steepest descent instead.
 Alpha Gap=     0.180 HL deriv= 2.10D-03
     ILin= 1 X=0.000D+00 Y=-2.640057644417D+03 DE= 0.00D+00 F= -6.83D+00
 RMSU=  4.98D-04    CP:  1.00D+00
     ILin= 2 X=3.000D-01 Y=-2.641408568849D+03 DE=-1.35D+00 F= -2.16D+00 OKLS=F
 RMSU=  8.31D-05    CP:  1.00D+00  1.74D+00
     ILin= 3 X=5.000D-01 Y=-2.641526841126D+03 DE=-1.47D+00 F=  9.78D-01
     Accept linear search using points  2 and  3.
     An  expanding polynomial of degree  3 produced  0.3922
 RMSU=  4.79D-08    CP:  1.00D+00  1.33D+00  3.62D-01
 Iteration   2 EE= -2641.54109611158     Delta-E=       -1.483451694423 Grad=5.626D-01 Max rot=    1.7357 deg.
 Gradient too large for Newton-Raphson -- use scaled steepest descent instead.
 Alpha Gap=     0.194 HL deriv= 3.84D-03
     ILin= 1 X=0.000D+00 Y=-2.641541096112D+03 DE= 0.00D+00 F= -2.87D-01
 RMSU=  8.61D-05    CP:  1.00D+00  1.58D+00  7.45D-01 -3.00D+00
     ILin= 2 X=3.000D-01 Y=-2.641606645696D+03 DE=-6.55D-02 F= -1.50D-01 OKLS=F
 RMSU=  1.26D-05    CP:  9.99D-01  1.92D+00  1.48D+00 -3.00D+00  2.35D+00
     ILin= 3 X=7.000D-01 Y=-2.641629738026D+03 DE=-8.86D-02 F=  3.41D-02
     Accept linear search using points  2 and  3.
     An  expanding polynomial of degree  3 produced  0.5150
 RMSU=  3.36D-08    CP:  9.99D-01  1.76D+00  1.11D+00 -3.00D+00  1.72D+00
                    CP:  3.96D-01
 Iteration   3 EE= -2641.62818717169     Delta-E=       -0.087091060110 Grad=2.389D-01 Max rot=    0.7613 deg.
 Gradient too large for Newton-Raphson -- use scaled steepest descent instead.
 Alpha Gap=     0.182 HL deriv= 1.99D-03
     ILin= 1 X=0.000D+00 Y=-2.641628187172D+03 DE= 0.00D+00 F= -4.16D-02
 RMSU=  4.23D-05    CP:  1.00D+00  1.94D+00  1.59D+00 -3.00D+00  2.31D+00
                    CP:  7.46D-01 -3.00D+00
     ILin= 2 X=4.000D-01 Y=-2.641638922981D+03 DE=-1.07D-02 F= -1.21D-02 OKLS=F
 RMSU=  5.39D-06    CP:  1.00D+00  2.18D+00  2.30D+00 -3.00D+00  3.00D+00
                    CP:  1.53D+00 -3.00D+00  2.26D+00
     ILin= 3 X=9.000D-01 Y=-2.641635725988D+03 DE=-7.54D-03 F=  2.49D-02
     An  expanding polynomial of degree  3 produced  0.5634
 RMSU=  5.31D-07    CP:  1.00D+00  2.02D+00  1.81D+00 -3.00D+00  2.55D+00
                    CP:  9.61D-01 -3.00D+00  1.41D+00  7.46D-02
 Iteration   4 EE= -2641.63990884536     Delta-E=       -0.011721673673 Grad=1.101D-01 Max rot=    0.3304 deg.
 Gradient too large for Newton-Raphson -- use scaled steepest descent instead.
 Alpha Gap=     0.192 HL deriv= 2.08D-03
     ILin= 1 X=0.000D+00 Y=-2.641639908845D+03 DE= 0.00D+00 F= -1.38D-02
 RMSU=  2.79D-05    CP:  1.00D+00  2.05D+00  1.91D+00 -3.00D+00  2.92D+00
                    CP:  1.17D+00 -3.00D+00  1.46D+00  4.65D-02  1.50D+00
     ILin= 2 X=5.000D-01 Y=-2.641642307558D+03 DE=-2.40D-03 F=  4.18D-03 OKLS=T
     Accept linear search using points  1 and  2.
     An  expanding polynomial of degree  2 produced  0.2877
 RMSU=  1.24D-07    CP:  1.00D+00  2.04D+00  1.87D+00 -3.00D+00  2.77D+00
                    CP:  1.07D+00 -3.00D+00  1.44D+00  5.56D-02  1.25D+00
                    CP:  5.75D-01
 Iteration   5 EE= -2641.64238602060     Delta-E=       -0.002477175238 Grad=6.614D-02 Max rot=    0.2222 deg.
 Gradient too large for Newton-Raphson -- use scaled steepest descent instead.
 Alpha Gap=     0.188 HL deriv= 3.00D-04
     ILin= 1 X=0.000D+00 Y=-2.641642386021D+03 DE= 0.00D+00 F= -2.15D-03
 RMSU=  6.84D-06    CP:  1.00D+00  2.11D+00  2.10D+00 -3.00D+00  3.00D+00
                    CP:  1.36D+00 -3.00D+00  1.84D+00  1.12D+00 -3.00D+00
                    CP:  1.05D+00  1.13D+00
     ILin= 2 X=6.000D-01 Y=-2.641643267918D+03 DE=-8.82D-04 F= -7.92D-04 OKLS=F
 RMSU=  1.43D-05    CP:  1.00D+00  2.17D+00  2.31D+00 -3.00D+00  3.00D+00
                    CP:  1.64D+00 -3.00D+00  2.17D+00  3.00D+00 -3.00D+00
                    CP:  1.46D+00 -1.18D+00  2.05D+00
     ILin= 3 X=1.100D+00 Y=-2.641643381036D+03 DE=-9.95D-04 F=  3.39D-04
     Accept linear search using points  2 and  3.
     An  expanding polynomial of degree  3 produced  0.8767
 RMSU=  3.72D-06    CP:  1.00D+00  2.14D+00  2.22D+00 -3.00D+00  3.00D+00
                    CP:  1.51D+00 -3.00D+00  2.02D+00  3.00D+00 -3.00D+00
                    CP:  1.28D+00  1.46D-01  1.58D+00  3.71D-01
 Iteration   6 EE= -2641.64340037149     Delta-E=       -0.001014350888 Grad=9.753D-03 Max rot=    0.0233 deg.
 SCF Done:  E(RPBE1PBE) =  -2641.64340037     a.u. after    6 cycles
            Convg  =    0.9753D-02                    15 Fock formations.
              S**2 =  0.0000                  -V/T =  2.0047
 Leave Link  508 at Mon Oct 18 15:24:23 2021, MaxMem=  7864320000 cpu:           95037.6 elap:            3001.4
 (Enter /apps/gaussian/g16-c01-avx/g16/l502.exe)
 Integral symmetry usage will be decided dynamically.
 Closed shell SCF:
 Using DIIS extrapolation, IDIIS=  1040.
 NGot=  7864320000 LenX=  7849626578 LenY=  7842333878
 Requested convergence on RMS density matrix=1.00D-08 within 128 cycles.
 Requested convergence on MAX density matrix=1.00D-06.
 Requested convergence on             energy=1.00D-06.
 No special actions if energy rises.
 Fock matrices will be formed incrementally for  20 cycles.

 Cycle   1  Pass 1  IDiag  1:
 FoFJK:  IHMeth= 1 ICntrl=       0 DoSepK=F KAlg= 0 I1Cent=           0 FoldK=F
 IRaf= 540000000 NMat=       1 IRICut=       1 DoRegI=T DoRafI=F ISym2E= 0 IDoP0=0 IntGTp=1.
 FoFCou: FMM=T IPFlag=           0 FMFlag=      100000 FMFlg1=        2001
         NFxFlg=           0 DoJE=F BraDBF=F KetDBF=F FulRan=T
         wScrn=  0.000000 ICntrl=         0 IOpCl=  0 I1Cent=           0 NGrid=           0
         NMat0=    1 NMatS0=      1 NMatT0=    0 NMatD0=    1 NMtDS0=    0 NMtDT0=    0
 Symmetry not used in FoFCou.
 FMM levels:  10  Number of levels for PrismC:   9
 E= -2641.64340037148    
 DIIS: error= 5.42D-05 at cycle   1 NSaved=   1.
 NSaved= 1 IEnMin= 1 EnMin= -2641.64340037148     IErMin= 1 ErrMin= 5.42D-05
 ErrMax= 5.42D-05  0.00D+00 EMaxC= 1.00D-01 BMatC= 4.76D-05 BMatP= 4.76D-05
 IDIUse=1 WtCom= 1.00D+00 WtEn= 0.00D+00
 Coeff-Com:  0.100D+01
 Coeff:      0.100D+01
 Gap=     0.188 Goal=   None    Shift=    0.000
 RMSDP=3.12D-05 MaxDP=9.03D-03              OVMax= 1.47D-03

 Cycle   2  Pass 1  IDiag  1:
 RMSU=  2.96D-05    CP:  1.00D+00
 E= -2641.64339241382     Delta-E=        0.000007957657 Rises=F Damp=F
 DIIS: error= 7.99D-05 at cycle   2 NSaved=   2.
 NSaved= 2 IEnMin= 1 EnMin= -2641.64340037148     IErMin= 1 ErrMin= 5.42D-05
 ErrMax= 7.99D-05  0.00D+00 EMaxC= 1.00D-01 BMatC= 5.29D-05 BMatP= 4.76D-05
 IDIUse=1 WtCom= 1.00D+00 WtEn= 0.00D+00
 Coeff-Com:  0.517D+00 0.483D+00
 Coeff:      0.517D+00 0.483D+00
 Gap=     0.177 Goal=   None    Shift=    0.000
 RMSDP=8.01D-06 MaxDP=2.39D-03 DE= 7.96D-06 OVMax= 1.38D-03

 Cycle   3  Pass 1  IDiag  1:
 RMSU=  5.60D-06    CP:  1.00D+00  8.33D-01
 E= -2641.64342968031     Delta-E=       -0.000037266491 Rises=F Damp=F
 DIIS: error= 3.93D-05 at cycle   3 NSaved=   3.
 NSaved= 3 IEnMin= 3 EnMin= -2641.64342968031     IErMin= 3 ErrMin= 3.93D-05
 ErrMax= 3.93D-05  0.00D+00 EMaxC= 1.00D-01 BMatC= 1.15D-05 BMatP= 4.76D-05
 IDIUse=1 WtCom= 1.00D+00 WtEn= 0.00D+00
 Coeff-Com:  0.197D-01 0.315D+00 0.665D+00
 Coeff:      0.197D-01 0.315D+00 0.665D+00
 Gap=     0.177 Goal=   None    Shift=    0.000
 RMSDP=3.76D-06 MaxDP=1.13D-03 DE=-3.73D-05 OVMax= 5.64D-04

 Cycle   4  Pass 1  IDiag  1:
 RMSU=  1.03D-06    CP:  1.00D+00  9.32D-01  7.06D-01
 E= -2641.64343930190     Delta-E=       -0.000009621583 Rises=F Damp=F
 DIIS: error= 9.14D-06 at cycle   4 NSaved=   4.
 NSaved= 4 IEnMin= 4 EnMin= -2641.64343930190     IErMin= 4 ErrMin= 9.14D-06
 ErrMax= 9.14D-06  0.00D+00 EMaxC= 1.00D-01 BMatC= 8.41D-07 BMatP= 1.15D-05
 IDIUse=1 WtCom= 1.00D+00 WtEn= 0.00D+00
 Coeff-Com: -0.919D-02 0.169D+00 0.395D+00 0.445D+00
 Coeff:     -0.919D-02 0.169D+00 0.395D+00 0.445D+00
 Gap=     0.177 Goal=   None    Shift=    0.000
 RMSDP=7.43D-07 MaxDP=2.35D-04 DE=-9.62D-06 OVMax= 1.53D-04

 Cycle   5  Pass 1  IDiag  1:
 RMSU=  3.63D-07    CP:  1.00D+00  9.24D-01  7.67D-01  5.41D-01
 E= -2641.64344006217     Delta-E=       -0.000000760268 Rises=F Damp=F
 DIIS: error= 1.24D-06 at cycle   5 NSaved=   5.
 NSaved= 5 IEnMin= 5 EnMin= -2641.64344006217     IErMin= 5 ErrMin= 1.24D-06
 ErrMax= 1.24D-06  0.00D+00 EMaxC= 1.00D-01 BMatC= 1.32D-08 BMatP= 8.41D-07
 IDIUse=1 WtCom= 1.00D+00 WtEn= 0.00D+00
 Coeff-Com: -0.442D-02 0.311D-01 0.728D-01 0.147D+00 0.754D+00
 Coeff:     -0.442D-02 0.311D-01 0.728D-01 0.147D+00 0.754D+00
 Gap=     0.177 Goal=   None    Shift=    0.000
 RMSDP=1.46D-07 MaxDP=5.59D-05 DE=-7.60D-07 OVMax= 2.68D-05

 Cycle   6  Pass 1  IDiag  1:
 RMSU=  1.20D-07    CP:  1.00D+00  9.26D-01  7.73D-01  6.04D-01  9.74D-01
 E= -2641.64344006851     Delta-E=       -0.000000006343 Rises=F Damp=F
 DIIS: error= 1.10D-06 at cycle   6 NSaved=   6.
 NSaved= 6 IEnMin= 6 EnMin= -2641.64344006851     IErMin= 6 ErrMin= 1.10D-06
 ErrMax= 1.10D-06  0.00D+00 EMaxC= 1.00D-01 BMatC= 7.39D-09 BMatP= 1.32D-08
 IDIUse=1 WtCom= 1.00D+00 WtEn= 0.00D+00
 Coeff-Com: -0.202D-02 0.616D-02 0.140D-01 0.597D-01 0.501D+00 0.421D+00
 Coeff:     -0.202D-02 0.616D-02 0.140D-01 0.597D-01 0.501D+00 0.421D+00
 Gap=     0.177 Goal=   None    Shift=    0.000
 RMSDP=7.01D-08 MaxDP=2.85D-05 DE=-6.34D-09 OVMax= 1.20D-05

 Cycle   7  Pass 1  IDiag  1:
 RMSU=  3.06D-08    CP:  1.00D+00  9.26D-01  7.73D-01  5.95D-01  1.05D+00
                    CP:  5.35D-01
 E= -2641.64344007554     Delta-E=       -0.000000007034 Rises=F Damp=F
 DIIS: error= 1.65D-07 at cycle   7 NSaved=   7.
 NSaved= 7 IEnMin= 7 EnMin= -2641.64344007554     IErMin= 7 ErrMin= 1.65D-07
 ErrMax= 1.65D-07  0.00D+00 EMaxC= 1.00D-01 BMatC= 1.57D-10 BMatP= 7.39D-09
 IDIUse=1 WtCom= 1.00D+00 WtEn= 0.00D+00
 Coeff-Com: -0.233D-03-0.125D-02-0.312D-02 0.703D-02 0.115D+00 0.167D+00
 Coeff-Com:  0.716D+00
 Coeff:     -0.233D-03-0.125D-02-0.312D-02 0.703D-02 0.115D+00 0.167D+00
 Coeff:      0.716D+00
 Gap=     0.177 Goal=   None    Shift=    0.000
 RMSDP=1.54D-08 MaxDP=5.68D-06 DE=-7.03D-09 OVMax= 2.43D-06

 Cycle   8  Pass 1  IDiag  1:
 RMSU=  1.02D-08    CP:  1.00D+00  9.26D-01  7.73D-01  6.00D-01  1.05D+00
                    CP:  5.94D-01  8.51D-01
 E= -2641.64344007540     Delta-E=        0.000000000147 Rises=F Damp=F
 DIIS: error= 8.92D-08 at cycle   8 NSaved=   8.
 NSaved= 8 IEnMin= 7 EnMin= -2641.64344007554     IErMin= 8 ErrMin= 8.92D-08
 ErrMax= 8.92D-08  0.00D+00 EMaxC= 1.00D-01 BMatC= 4.36D-11 BMatP= 1.57D-10
 IDIUse=1 WtCom= 1.00D+00 WtEn= 0.00D+00
 Coeff-Com:  0.447D-04-0.137D-02-0.328D-02-0.174D-02 0.160D-01 0.559D-01
 Coeff-Com:  0.420D+00 0.514D+00
 Coeff:      0.447D-04-0.137D-02-0.328D-02-0.174D-02 0.160D-01 0.559D-01
 Coeff:      0.420D+00 0.514D+00
 Gap=     0.177 Goal=   None    Shift=    0.000
 RMSDP=6.47D-09 MaxDP=2.49D-06 DE= 1.47D-10 OVMax= 1.24D-06

 Cycle   9  Pass 1  IDiag  1:
 RMSU=  3.64D-09    CP:  1.00D+00  9.26D-01  7.74D-01  5.99D-01  1.06D+00
                    CP:  5.91D-01  9.30D-01  6.17D-01
 E= -2641.64344007543     Delta-E=       -0.000000000038 Rises=F Damp=F
 DIIS: error= 2.08D-08 at cycle   9 NSaved=   9.
 NSaved= 9 IEnMin= 7 EnMin= -2641.64344007554     IErMin= 9 ErrMin= 2.08D-08
 ErrMax= 2.08D-08  0.00D+00 EMaxC= 1.00D-01 BMatC= 3.04D-12 BMatP= 4.36D-11
 IDIUse=1 WtCom= 1.00D+00 WtEn= 0.00D+00
 Coeff-Com:  0.382D-04-0.469D-03-0.111D-02-0.144D-02-0.627D-02 0.719D-02
 Coeff-Com:  0.121D+00 0.249D+00 0.633D+00
 Coeff:      0.382D-04-0.469D-03-0.111D-02-0.144D-02-0.627D-02 0.719D-02
 Coeff:      0.121D+00 0.249D+00 0.633D+00
 Gap=     0.177 Goal=   None    Shift=    0.000
 RMSDP=2.07D-09 MaxDP=5.00D-07 DE=-3.82D-11 OVMax= 4.84D-07

 Error on total polarization charges =  0.02443
 SCF Done:  E(RPBE1PBE) =  -2641.64344008     A.U. after    9 cycles
            NFock=  9  Conv=0.21D-08     -V/T= 2.0046
 KE= 2.629424165596D+03 PE=-2.473293275408D+04 EE= 1.016570394654D+04
 Leave Link  502 at Mon Oct 18 15:53:28 2021, MaxMem=  7864320000 cpu:           55348.4 elap:            1744.3
 (Enter /apps/gaussian/g16-c01-avx/g16/l508.exe)
 QCSCF skips out because SCF is already converged.
 Leave Link  508 at Mon Oct 18 15:53:28 2021, MaxMem=  7864320000 cpu:               0.1 elap:               0.0
 (Enter /apps/gaussian/g16-c01-avx/g16/l601.exe)
 Copying SCF densities to generalized density rwf, IOpCl= 0 IROHF=0.
 Hyperfine terms turned off by default for NAtoms > 100.

 **********************************************************************

            Population analysis using the SCF Density.

 **********************************************************************

 Orbital symmetries:
       Occupied  (A) (A) (A) (A) (A) (A) (A) (A) (A) (A) (A) (A)
                 (A) (A) (A) (A) (A) (A) (A) (A) (A) (A) (A) (A)
                 (A) (A) (A) (A) (A) (A) (A) (A) (A) (A) (A) (A)
                 (A) (A) (A) (A) (A) (A) (A) (A) (A) (A) (A) (A)
                 (A) (A) (A) (A) (A) (A) (A) (A) (A) (A) (A) (A)
                 (A) (A) (A) (A) (A) (A) (A) (A) (A) (A) (A) (A)
                 (A) (A) (A) (A) (A) (A) (A) (A) (A) (A) (A) (A)
                 (A) (A) (A) (A) (A) (A) (A) (A) (A) (A) (A) (A)
                 (A) (A) (A) (A) (A) (A) (A) (A) (A) (A) (A) (A)
                 (A) (A) (A) (A) (A) (A) (A) (A) (A) (A) (A) (A)
                 (A) (A) (A) (A) (A) (A) (A) (A) (A) (A) (A) (A)
                 (A) (A) (A) (A) (A) (A) (A) (A) (A) (A) (A) (A)
                 (A) (A) (A) (A) (A) (A) (A) (A) (A) (A) (A) (A)
                 (A) (A) (A) (A) (A) (A) (A) (A) (A) (A) (A) (A)
                 (A) (A) (A) (A) (A) (A) (A) (A) (A) (A) (A) (A)
                 (A) (A) (A) (A) (A) (A) (A) (A) (A) (A) (A) (A)
                 (A) (A) (A) (A) (A) (A) (A) (A) (A) (A) (A) (A)
                 (A) (A) (A) (A) (A) (A) (A) (A) (A) (A) (A) (A)
                 (A) (A) (A) (A) (A) (A) (A) (A) (A) (A) (A) (A)
                 (A) (A) (A)
       Virtual   (A) (A) (A) (A) (A) (A) (A) (A) (A) (A) (A) (A)
                 (A) (A) (A) (A) (A) (A) (A) (A) (A) (A) (A) (A)
                 (A) (A) (A) (A) (A) (A) (A) (A) (A) (A) (A) (A)
                 (A) (A) (A) (A) (A) (A) (A) (A) (A) (A) (A) (A)
                 (A) (A) (A) (A) (A) (A) (A) (A) (A) (A) (A) (A)
                 (A) (A) (A) (A) (A) (A) (A) (A) (A) (A) (A) (A)
                 (A) (A) (A) (A) (A) (A) (A) (A) (A) (A) (A) (A)
                 (A) (A) (A) (A) (A) (A) (A) (A) (A) (A) (A) (A)
                 (A) (A) (A) (A) (A) (A) (A) (A) (A) (A) (A) (A)
                 (A) (A) (A) (A) (A) (A) (A) (A) (A) (A) (A) (A)
                 (A) (A) (A) (A) (A) (A) (A) (A) (A) (A) (A) (A)
                 (A) (A) (A) (A) (A) (A) (A) (A) (A) (A) (A) (A)
                 (A) (A) (A) (A) (A) (A) (A) (A) (A) (A) (A) (A)
                 (A) (A) (A) (A) (A) (A) (A) (A) (A) (A) (A) (A)
                 (A) (A) (A) (A) (A) (A) (A) (A) (A) (A) (A) (A)
                 (A) (A) (A) (A) (A) (A) (A) (A) (A) (A) (A) (A)
                 (A) (A) (A) (A) (A) (A) (A) (A) (A) (A) (A) (A)
                 (A) (A) (A) (A) (A) (A) (A) (A) (A) (A) (A) (A)
                 (A) (A) (A) (A) (A) (A) (A) (A) (A) (A) (A) (A)
                 (A) (A) (A) (A) (A) (A) (A) (A) (A) (A) (A) (A)
                 (A) (A) (A) (A) (A) (A) (A) (A) (A) (A) (A) (A)
                 (A) (A) (A) (A) (A) (A) (A) (A) (A) (A) (A) (A)
                 (A) (A) (A) (A) (A) (A) (A) (A) (A) (A) (A) (A)
                 (A) (A) (A) (A) (A) (A) (A) (A) (A) (A) (A) (A)
                 (A) (A) (A) (A) (A) (A) (A) (A) (A) (A) (A) (A)
                 (A) (A) (A) (A) (A) (A) (A) (A) (A) (A) (A) (A)
                 (A) (A) (A) (A) (A) (A) (A) (A) (A) (A) (A) (A)
                 (A) (A) (A) (A) (A) (A) (A) (A) (A) (A) (A) (A)
                 (A) (A) (A) (A) (A) (A) (A) (A) (A) (A) (A) (A)
                 (A) (A) (A) (A) (A) (A) (A) (A) (A) (A) (A) (A)
                 (A) (A) (A) (A) (A) (A) (A) (A) (A) (A) (A) (A)
                 (A) (A) (A) (A) (A) (A) (A) (A) (A) (A) (A) (A)
                 (A) (A) (A) (A) (A) (A) (A) (A) (A) (A) (A) (A)
                 (A) (A) (A) (A) (A) (A) (A) (A) (A) (A) (A) (A)
                 (A) (A) (A) (A) (A) (A) (A) (A) (A) (A) (A) (A)
                 (A) (A) (A) (A) (A) (A) (A) (A) (A) (A) (A) (A)
                 (A) (A) (A) (A) (A) (A) (A) (A) (A) (A) (A) (A)
                 (A) (A) (A) (A) (A) (A) (A) (A) (A) (A) (A) (A)
                 (A) (A) (A) (A) (A) (A) (A) (A) (A) (A) (A) (A)
                 (A) (A) (A) (A) (A) (A) (A) (A) (A) (A) (A) (A)
                 (A) (A) (A) (A) (A) (A) (A) (A) (A) (A) (A) (A)
                 (A) (A) (A) (A) (A) (A) (A) (A) (A) (A) (A) (A)
                 (A) (A) (A) (A) (A) (A) (A) (A) (A) (A) (A) (A)
                 (A) (A) (A) (A) (A) (A) (A) (A) (A) (A) (A) (A)
                 (A) (A) (A) (A) (A) (A) (A) (A) (A) (A) (A) (A)
                 (A) (A) (A) (A) (A) (A) (A) (A) (A) (A) (A) (A)
                 (A) (A) (A) (A) (A) (A) (A) (A) (A) (A) (A) (A)
                 (A) (A) (A) (A) (A) (A) (A) (A) (A) (A) (A) (A)
                 (A) (A) (A) (A) (A) (A) (A) (A) (A) (A) (A) (A)
                 (A) (A) (A) (A) (A) (A) (A) (A) (A) (A) (A) (A)
                 (A) (A) (A) (A) (A) (A) (A) (A) (A) (A) (A) (A)
                 (A) (A) (A) (A) (A) (A) (A) (A) (A) (A) (A) (A)
                 (A) (A) (A) (A) (A) (A) (A) (A) (A) (A) (A) (A)
                 (A) (A) (A) (A) (A) (A) (A) (A) (A) (A) (A) (A)
                 (A) (A) (A) (A) (A) (A) (A) (A) (A) (A) (A) (A)
                 (A) (A) (A) (A) (A) (A) (A) (A) (A) (A) (A) (A)
                 (A) (A) (A) (A) (A) (A) (A) (A) (A) (A) (A) (A)
                 (A) (A) (A) (A) (A) (A) (A) (A) (A) (A) (A) (A)
                 (A) (A) (A) (A) (A) (A) (A) (A) (A) (A) (A) (A)
                 (A) (A) (A) (A) (A) (A) (A) (A) (A) (A) (A) (A)
                 (A) (A) (A) (A) (A) (A) (A) (A) (A) (A) (A) (A)
                 (A) (A) (A) (A) (A) (A) (A) (A) (A) (A) (A) (A)
                 (A) (A) (A) (A) (A) (A) (A) (A) (A) (A) (A) (A)
                 (A) (A) (A) (A) (A) (A) (A) (A) (A) (A) (A) (A)
                 (A) (A) (A) (A) (A) (A) (A) (A) (A) (A) (A) (A)
                 (A) (A) (A) (A) (A) (A) (A) (A) (A) (A) (A) (A)
                 (A) (A) (A) (A) (A) (A) (A) (A) (A) (A) (A) (A)
                 (A) (A) (A) (A) (A) (A) (A) (A) (A) (A) (A) (A)
                 (A) (A) (A) (A) (A) (A) (A) (A) (A) (A) (A) (A)
                 (A) (A) (A) (A) (A) (A) (A) (A) (A) (A) (A) (A)
                 (A) (A) (A) (A) (A) (A) (A) (A) (A) (A) (A) (A)
                 (A) (A) (A) (A) (A) (A) (A) (A) (A) (A) (A) (A)
                 (A) (A) (A) (A) (A) (A) (A) (A) (A) (A) (A) (A)
                 (A) (A) (A) (A) (A) (A) (A) (A) (A) (A) (A) (A)
                 (A) (A) (A) (A) (A) (A) (A) (A) (A) (A) (A) (A)
                 (A) (A) (A) (A) (A) (A) (A) (A) (A) (A) (A) (A)
                 (A) (A) (A) (A) (A) (A) (A) (A) (A) (A) (A) (A)
                 (A) (A) (A) (A) (A) (A) (A) (A) (A) (A) (A) (A)
                 (A) (A) (A) (A) (A) (A) (A) (A) (A) (A) (A) (A)
                 (A) (A) (A) (A) (A) (A) (A) (A) (A) (A) (A) (A)
                 (A) (A) (A) (A) (A) (A) (A) (A) (A) (A) (A) (A)
                 (A) (A) (A) (A) (A) (A) (A) (A) (A) (A) (A) (A)
                 (A) (A) (A) (A) (A) (A) (A) (A) (A) (A) (A) (A)
                 (A) (A) (A) (A) (A) (A) (A) (A) (A) (A) (A) (A)
                 (A) (A) (A) (A) (A) (A) (A) (A) (A) (A) (A) (A)
                 (A) (A) (A) (A) (A) (A) (A) (A) (A) (A) (A) (A)
                 (A) (A) (A) (A) (A) (A) (A) (A) (A) (A) (A) (A)
                 (A) (A) (A) (A) (A) (A) (A) (A) (A) (A) (A) (A)
                 (A) (A) (A) (A) (A) (A) (A) (A) (A) (A) (A) (A)
                 (A) (A) (A) (A) (A) (A) (A) (A) (A) (A) (A) (A)
                 (A) (A) (A) (A) (A) (A) (A) (A) (A) (A) (A) (A)
                 (A) (A) (A) (A) (A) (A) (A) (A) (A) (A) (A) (A)
                 (A) (A) (A) (A) (A) (A) (A) (A) (A) (A) (A) (A)
                 (A) (A) (A) (A) (A) (A) (A) (A) (A) (A) (A) (A)
                 (A) (A) (A) (A) (A) (A) (A) (A) (A) (A) (A) (A)
                 (A) (A) (A) (A) (A) (A) (A) (A) (A) (A) (A) (A)
                 (A) (A) (A) (A) (A) (A) (A) (A) (A) (A) (A) (A)
                 (A) (A) (A) (A) (A) (A) (A) (A) (A) (A) (A) (A)
                 (A) (A) (A) (A) (A) (A) (A) (A) (A) (A) (A) (A)
                 (A) (A) (A) (A) (A) (A) (A) (A) (A) (A) (A) (A)
                 (A) (A) (A) (A) (A) (A) (A) (A) (A) (A) (A) (A)
                 (A) (A) (A) (A) (A) (A) (A) (A) (A) (A) (A) (A)
                 (A) (A) (A) (A) (A) (A) (A) (A) (A) (A) (A) (A)
                 (A) (A) (A) (A) (A) (A) (A) (A) (A) (A) (A) (A)
                 (A) (A) (A) (A) (A) (A) (A) (A) (A) (A) (A) (A)
                 (A) (A) (A) (A) (A) (A) (A) (A) (A) (A) (A) (A)
                 (A) (A) (A) (A) (A) (A) (A) (A) (A) (A) (A) (A)
                 (A) (A) (A) (A) (A) (A) (A) (A) (A) (A) (A) (A)
                 (A) (A) (A) (A) (A) (A) (A) (A) (A) (A) (A) (A)
                 (A) (A) (A) (A) (A) (A) (A) (A) (A) (A) (A) (A)
                 (A) (A) (A) (A) (A) (A) (A) (A) (A) (A) (A) (A)
                 (A) (A) (A) (A) (A) (A) (A) (A) (A) (A) (A) (A)
                 (A) (A) (A) (A) (A) (A) (A) (A) (A) (A) (A) (A)
                 (A) (A) (A) (A) (A) (A) (A) (A) (A) (A) (A) (A)
                 (A) (A) (A) (A) (A) (A) (A) (A) (A) (A) (A) (A)
                 (A) (A) (A) (A) (A) (A) (A) (A) (A) (A) (A) (A)
                 (A) (A) (A) (A) (A) (A) (A) (A) (A) (A) (A) (A)
                 (A) (A) (A) (A) (A) (A) (A) (A) (A) (A) (A) (A)
                 (A) (A) (A) (A) (A) (A) (A) (A) (A) (A) (A) (A)
                 (A) (A) (A) (A) (A) (A) (A) (A) (A) (A) (A) (A)
                 (A) (A) (A) (A) (A) (A) (A) (A) (A) (A) (A) (A)
                 (A) (A) (A) (A) (A) (A) (A) (A) (A) (A) (A) (A)
                 (A) (A) (A) (A) (A) (A) (A) (A) (A) (A) (A) (A)
                 (A) (A) (A) (A) (A) (A) (A) (A) (A) (A) (A) (A)
                 (A) (A) (A) (A) (A) (A) (A) (A) (A) (A) (A) (A)
                 (A) (A) (A) (A) (A) (A) (A) (A) (A) (A) (A) (A)
                 (A) (A) (A) (A) (A) (A) (A) (A) (A) (A) (A) (A)
                 (A) (A) (A) (A) (A) (A) (A) (A) (A) (A) (A) (A)
                 (A) (A) (A) (A) (A) (A) (A) (A) (A) (A) (A) (A)
                 (A) (A) (A) (A) (A) (A) (A) (A) (A) (A) (A) (A)
                 (A) (A) (A) (A) (A) (A) (A) (A) (A) (A) (A) (A)
                 (A) (A) (A) (A) (A) (A) (A) (A) (A) (A) (A) (A)
                 (A) (A) (A) (A) (A) (A) (A) (A) (A) (A) (A) (A)
                 (A) (A) (A) (A) (A) (A) (A) (A) (A) (A) (A) (A)
                 (A) (A) (A) (A) (A) (A) (A) (A) (A) (A) (A) (A)
                 (A) (A) (A) (A) (A) (A) (A) (A) (A) (A) (A) (A)
                 (A) (A) (A) (A) (A) (A) (A) (A) (A) (A) (A) (A)
                 (A) (A) (A) (A) (A) (A) (A) (A) (A) (A) (A) (A)
                 (A) (A) (A) (A) (A) (A) (A) (A) (A) (A) (A) (A)
                 (A) (A) (A) (A) (A) (A) (A) (A) (A) (A) (A) (A)
                 (A) (A) (A) (A) (A) (A) (A) (A) (A) (A) (A) (A)
                 (A) (A) (A) (A) (A) (A) (A) (A) (A) (A) (A) (A)
                 (A) (A) (A) (A) (A) (A) (A) (A) (A) (A) (A) (A)
                 (A) (A) (A) (A) (A) (A) (A) (A) (A) (A) (A) (A)
                 (A) (A) (A) (A) (A) (A) (A) (A) (A) (A) (A) (A)
                 (A) (A) (A) (A) (A) (A) (A) (A) (A) (A) (A) (A)
                 (A) (A) (A) (A) (A) (A) (A) (A) (A) (A) (A) (A)
                 (A) (A) (A) (A) (A) (A) (A) (A) (A) (A) (A) (A)
                 (A) (A) (A) (A) (A) (A) (A) (A) (A) (A) (A) (A)
                 (A) (A) (A) (A) (A) (A) (A) (A) (A) (A) (A) (A)
                 (A) (A) (A) (A) (A) (A) (A) (A) (A) (A) (A) (A)
                 (A) (A) (A) (A) (A) (A) (A) (A) (A) (A) (A) (A)
                 (A) (A) (A) (A) (A) (A) (A) (A) (A) (A) (A) (A)
                 (A) (A) (A) (A) (A) (A) (A) (A) (A) (A) (A) (A)
                 (A) (A) (A) (A) (A) (A) (A) (A) (A) (A) (A) (A)
                 (A) (A) (A) (A) (A) (A) (A) (A) (A) (A) (A) (A)
                 (A) (A) (A) (A) (A) (A) (A) (A) (A) (A) (A) (A)
                 (A) (A) (A) (A) (A) (A) (A) (A) (A) (A) (A) (A)
                 (A) (A) (A) (A) (A) (A) (A) (A) (A) (A) (A) (A)
                 (A) (A) (A) (A) (A) (A) (A) (A) (A) (A) (A) (A)
                 (A) (A) (A) (A) (A) (A) (A) (A) (A) (A) (A) (A)
                 (A) (A) (A) (A) (A) (A) (A) (A) (A) (A) (A) (A)
                 (A) (A) (A) (A) (A) (A) (A) (A) (A) (A) (A) (A)
                 (A) (A) (A) (A) (A) (A) (A) (A) (A) (A) (A) (A)
                 (A) (A) (A) (A) (A) (A) (A) (A) (A) (A) (A) (A)
                 (A) (A) (A) (A) (A) (A) (A) (A) (A) (A) (A) (A)
                 (A) (A) (A) (A) (A) (A) (A) (A) (A) (A) (A) (A)
                 (A) (A) (A) (A) (A) (A) (A) (A) (A) (A) (A) (A)
                 (A) (A) (A) (A) (A) (A) (A) (A) (A) (A) (A) (A)
                 (A) (A) (A) (A) (A) (A) (A) (A) (A) (A) (A) (A)
                 (A) (A) (A) (A) (A) (A) (A) (A) (A) (A) (A) (A)
                 (A) (A) (A) (A) (A) (A) (A) (A) (A) (A) (A) (A)
                 (A) (A) (A) (A) (A) (A) (A) (A) (A) (A) (A) (A)
                 (A) (A) (A) (A) (A) (A) (A) (A) (A) (A) (A) (A)
                 (A) (A) (A) (A) (A) (A) (A) (A) (A) (A) (A) (A)
                 (A) (A) (A) (A) (A) (A) (A) (A) (A) (A) (A) (A)
                 (A) (A) (A) (A) (A) (A) (A) (A) (A) (A) (A) (A)
                 (A) (A) (A) (A) (A) (A) (A) (A) (A) (A) (A) (A)
                 (A) (A) (A) (A) (A) (A) (A) (A) (A) (A) (A) (A)
                 (A) (A) (A) (A) (A) (A)
 The electronic state is 1-A.
 Alpha  occ. eigenvalues --  -14.38200 -14.38154 -14.37879 -14.37829 -14.37828
 Alpha  occ. eigenvalues --  -14.37745 -14.37262 -14.37226 -14.37200 -14.35535
 Alpha  occ. eigenvalues --  -14.35446 -14.35150 -10.27025 -10.26959 -10.26916
 Alpha  occ. eigenvalues --  -10.26851 -10.26849 -10.26710 -10.26625 -10.26609
 Alpha  occ. eigenvalues --  -10.26441 -10.26370 -10.26233 -10.25950 -10.25918
 Alpha  occ. eigenvalues --  -10.25896 -10.25660 -10.24762 -10.24719 -10.24716
 Alpha  occ. eigenvalues --  -10.24694 -10.24634 -10.24478 -10.24312 -10.24298
 Alpha  occ. eigenvalues --  -10.24285 -10.24259 -10.24249 -10.24218 -10.24213
 Alpha  occ. eigenvalues --  -10.24162 -10.24162 -10.24121 -10.24084 -10.24072
 Alpha  occ. eigenvalues --  -10.24021 -10.24003 -10.23731 -10.23589 -10.23239
 Alpha  occ. eigenvalues --  -10.23112 -10.20724 -10.20699 -10.20619 -10.20566
 Alpha  occ. eigenvalues --  -10.20546 -10.20511 -10.20445 -10.20442 -10.20347
 Alpha  occ. eigenvalues --  -10.20330 -10.20224 -10.20047  -0.98187  -0.97534
 Alpha  occ. eigenvalues --   -0.97462  -0.96933  -0.96698  -0.96618  -0.95355
 Alpha  occ. eigenvalues --   -0.95150  -0.94711  -0.91824  -0.91764  -0.91533
 Alpha  occ. eigenvalues --   -0.90234  -0.89762  -0.89613  -0.83778  -0.83483
 Alpha  occ. eigenvalues --   -0.82873  -0.81297  -0.80936  -0.80733  -0.79600
 Alpha  occ. eigenvalues --   -0.78822  -0.78451  -0.78143  -0.77937  -0.77859
 Alpha  occ. eigenvalues --   -0.73098  -0.72866  -0.72354  -0.72172  -0.72135
 Alpha  occ. eigenvalues --   -0.71781  -0.71353  -0.71295  -0.71122  -0.71030
 Alpha  occ. eigenvalues --   -0.70947  -0.70856  -0.68141  -0.67887  -0.67551
 Alpha  occ. eigenvalues --   -0.66409  -0.65993  -0.65975  -0.64474  -0.63143
 Alpha  occ. eigenvalues --   -0.62593  -0.60286  -0.59866  -0.59067  -0.57460
 Alpha  occ. eigenvalues --   -0.57181  -0.56874  -0.56770  -0.56717  -0.56367
 Alpha  occ. eigenvalues --   -0.56006  -0.54746  -0.54410  -0.54075  -0.53035
 Alpha  occ. eigenvalues --   -0.52858  -0.52451  -0.52246  -0.51393  -0.50945
 Alpha  occ. eigenvalues --   -0.50720  -0.50552  -0.50391  -0.50171  -0.49977
 Alpha  occ. eigenvalues --   -0.49837  -0.49425  -0.49385  -0.49195  -0.48977
 Alpha  occ. eigenvalues --   -0.48656  -0.48045  -0.47943  -0.47887  -0.47485
 Alpha  occ. eigenvalues --   -0.47421  -0.47262  -0.47062  -0.46711  -0.46389
 Alpha  occ. eigenvalues --   -0.45999  -0.45575  -0.45302  -0.45187  -0.45117
 Alpha  occ. eigenvalues --   -0.44817  -0.44588  -0.44446  -0.44139  -0.43529
 Alpha  occ. eigenvalues --   -0.43084  -0.42608  -0.42320  -0.42202  -0.42028
 Alpha  occ. eigenvalues --   -0.41816  -0.41523  -0.41382  -0.40916  -0.40560
 Alpha  occ. eigenvalues --   -0.40470  -0.39753  -0.39639  -0.39431  -0.39336
 Alpha  occ. eigenvalues --   -0.39226  -0.39170  -0.39091  -0.39042  -0.38974
 Alpha  occ. eigenvalues --   -0.38913  -0.38722  -0.38621  -0.38582  -0.38362
 Alpha  occ. eigenvalues --   -0.38307  -0.38101  -0.37801  -0.37624  -0.37275
 Alpha  occ. eigenvalues --   -0.37150  -0.37014  -0.36946  -0.36887  -0.36816
 Alpha  occ. eigenvalues --   -0.36659  -0.36575  -0.36381  -0.35941  -0.35610
 Alpha  occ. eigenvalues --   -0.35474  -0.34890  -0.34849  -0.34622  -0.34433
 Alpha  occ. eigenvalues --   -0.34393  -0.33900  -0.33822  -0.33703  -0.33607
 Alpha  occ. eigenvalues --   -0.31139  -0.30608  -0.30183  -0.28143  -0.27505
 Alpha  occ. eigenvalues --   -0.27291  -0.27225  -0.27086  -0.26963  -0.26766
 Alpha  occ. eigenvalues --   -0.26598  -0.26283  -0.26175  -0.26106  -0.25988
 Alpha  occ. eigenvalues --   -0.25790  -0.25459  -0.24976  -0.24813  -0.24576
 Alpha  occ. eigenvalues --   -0.24516
 Alpha virt. eigenvalues --   -0.06829  -0.06595  -0.06434  -0.06190  -0.05142
 Alpha virt. eigenvalues --   -0.05010  -0.02623  -0.02045  -0.01662   0.03367
 Alpha virt. eigenvalues --    0.03900   0.04162   0.04321   0.04488   0.04877
 Alpha virt. eigenvalues --    0.05070   0.05132   0.05302   0.05647   0.05733
 Alpha virt. eigenvalues --    0.05903   0.06022   0.06482   0.06769   0.06882
 Alpha virt. eigenvalues --    0.06953   0.07235   0.07496   0.07792   0.08221
 Alpha virt. eigenvalues --    0.08249   0.08363   0.08455   0.08829   0.09022
 Alpha virt. eigenvalues --    0.09212   0.09354   0.09500   0.09521   0.09689
 Alpha virt. eigenvalues --    0.09724   0.09909   0.10064   0.10274   0.10463
 Alpha virt. eigenvalues --    0.10491   0.10931   0.10962   0.11188   0.11254
 Alpha virt. eigenvalues --    0.11446   0.11572   0.11729   0.11897   0.12098
 Alpha virt. eigenvalues --    0.12159   0.12246   0.12338   0.12717   0.12827
 Alpha virt. eigenvalues --    0.13143   0.13337   0.13370   0.13607   0.13729
 Alpha virt. eigenvalues --    0.14013   0.14068   0.14180   0.14475   0.14644
 Alpha virt. eigenvalues --    0.14721   0.14848   0.15112   0.15149   0.15295
 Alpha virt. eigenvalues --    0.15361   0.15537   0.15750   0.15804   0.15909
 Alpha virt. eigenvalues --    0.15971   0.16106   0.16178   0.16318   0.16349
 Alpha virt. eigenvalues --    0.16499   0.16533   0.16599   0.16781   0.16943
 Alpha virt. eigenvalues --    0.17019   0.17049   0.17174   0.17358   0.17448
 Alpha virt. eigenvalues --    0.17583   0.17622   0.17745   0.17775   0.17982
 Alpha virt. eigenvalues --    0.18120   0.18397   0.18578   0.18706   0.18898
 Alpha virt. eigenvalues --    0.19105   0.19264   0.19538   0.19760   0.19829
 Alpha virt. eigenvalues --    0.19878   0.20052   0.20241   0.20426   0.20653
 Alpha virt. eigenvalues --    0.20733   0.20957   0.21127   0.21230   0.21233
 Alpha virt. eigenvalues --    0.21353   0.21685   0.21875   0.22091   0.22394
 Alpha virt. eigenvalues --    0.22525   0.22921   0.23089   0.23239   0.23313
 Alpha virt. eigenvalues --    0.23436   0.23504   0.23692   0.23815   0.23974
 Alpha virt. eigenvalues --    0.24308   0.24473   0.24484   0.24570   0.24927
 Alpha virt. eigenvalues --    0.25289   0.25360   0.25566   0.25732   0.25858
 Alpha virt. eigenvalues --    0.26044   0.26169   0.26343   0.26799   0.26885
 Alpha virt. eigenvalues --    0.26943   0.27132   0.27152   0.27432   0.27701
 Alpha virt. eigenvalues --    0.27880   0.28121   0.28189   0.28418   0.28566
 Alpha virt. eigenvalues --    0.28710   0.28949   0.29000   0.29160   0.29372
 Alpha virt. eigenvalues --    0.29507   0.29651   0.29790   0.29966   0.30220
 Alpha virt. eigenvalues --    0.30455   0.30691   0.30762   0.30893   0.31099
 Alpha virt. eigenvalues --    0.31207   0.31234   0.31537   0.31625   0.31931
 Alpha virt. eigenvalues --    0.31984   0.32014   0.32103   0.32219   0.32293
 Alpha virt. eigenvalues --    0.32464   0.32888   0.32941   0.33135   0.33208
 Alpha virt. eigenvalues --    0.33468   0.33502   0.33623   0.33758   0.33793
 Alpha virt. eigenvalues --    0.34169   0.34287   0.34435   0.34568   0.34633
 Alpha virt. eigenvalues --    0.34786   0.34961   0.35070   0.35180   0.35417
 Alpha virt. eigenvalues --    0.35503   0.35658   0.35908   0.36134   0.36564
 Alpha virt. eigenvalues --    0.36690   0.36951   0.36982   0.37158   0.37342
 Alpha virt. eigenvalues --    0.37465   0.37612   0.37860   0.38070   0.38159
 Alpha virt. eigenvalues --    0.38299   0.38376   0.38518   0.38643   0.38731
 Alpha virt. eigenvalues --    0.38924   0.39199   0.39317   0.39526   0.39658
 Alpha virt. eigenvalues --    0.39802   0.40077   0.40465   0.40683   0.40777
 Alpha virt. eigenvalues --    0.40830   0.40988   0.41032   0.41196   0.41435
 Alpha virt. eigenvalues --    0.41584   0.41771   0.41843   0.41959   0.42106
 Alpha virt. eigenvalues --    0.42358   0.42576   0.42699   0.42747   0.42941
 Alpha virt. eigenvalues --    0.42978   0.43075   0.43327   0.43440   0.43636
 Alpha virt. eigenvalues --    0.43878   0.43974   0.44017   0.44128   0.44292
 Alpha virt. eigenvalues --    0.44526   0.44642   0.44756   0.44882   0.44951
 Alpha virt. eigenvalues --    0.44988   0.45246   0.45392   0.45580   0.45671
 Alpha virt. eigenvalues --    0.45831   0.45952   0.46188   0.46282   0.46334
 Alpha virt. eigenvalues --    0.46359   0.46431   0.46516   0.46576   0.46685
 Alpha virt. eigenvalues --    0.46884   0.46912   0.46932   0.46968   0.47174
 Alpha virt. eigenvalues --    0.47371   0.47442   0.47506   0.47671   0.47683
 Alpha virt. eigenvalues --    0.47748   0.47865   0.48039   0.48215   0.48280
 Alpha virt. eigenvalues --    0.48354   0.48501   0.48597   0.48723   0.48771
 Alpha virt. eigenvalues --    0.48832   0.48922   0.49071   0.49157   0.49245
 Alpha virt. eigenvalues --    0.49409   0.49576   0.49737   0.49870   0.49931
 Alpha virt. eigenvalues --    0.50078   0.50152   0.50424   0.50756   0.50902
 Alpha virt. eigenvalues --    0.51187   0.51248   0.51430   0.51608   0.51760
 Alpha virt. eigenvalues --    0.52111   0.52449   0.52566   0.52602   0.52726
 Alpha virt. eigenvalues --    0.52862   0.53021   0.53147   0.53383   0.53436
 Alpha virt. eigenvalues --    0.53529   0.53602   0.53727   0.53798   0.53910
 Alpha virt. eigenvalues --    0.54139   0.54417   0.54622   0.54789   0.54912
 Alpha virt. eigenvalues --    0.55078   0.55159   0.55383   0.55637   0.55918
 Alpha virt. eigenvalues --    0.56213   0.56398   0.56573   0.56728   0.56770
 Alpha virt. eigenvalues --    0.57043   0.57241   0.57417   0.57442   0.57539
 Alpha virt. eigenvalues --    0.57899   0.58176   0.58288   0.58435   0.58676
 Alpha virt. eigenvalues --    0.58830   0.58990   0.59137   0.59330   0.59427
 Alpha virt. eigenvalues --    0.59505   0.59594   0.59885   0.60237   0.60391
 Alpha virt. eigenvalues --    0.60697   0.60875   0.61049   0.61447   0.61476
 Alpha virt. eigenvalues --    0.61785   0.62172   0.62209   0.62309   0.62558
 Alpha virt. eigenvalues --    0.62814   0.62997   0.63103   0.63275   0.63513
 Alpha virt. eigenvalues --    0.63698   0.63909   0.64047   0.64355   0.64702
 Alpha virt. eigenvalues --    0.64882   0.65039   0.65264   0.65377   0.65805
 Alpha virt. eigenvalues --    0.65902   0.66139   0.66384   0.66563   0.66795
 Alpha virt. eigenvalues --    0.67059   0.67294   0.67322   0.67623   0.67962
 Alpha virt. eigenvalues --    0.68147   0.68373   0.68442   0.68789   0.69109
 Alpha virt. eigenvalues --    0.69190   0.69395   0.69600   0.69735   0.69844
 Alpha virt. eigenvalues --    0.69989   0.70105   0.70670   0.70781   0.71082
 Alpha virt. eigenvalues --    0.71352   0.71794   0.71863   0.71959   0.72362
 Alpha virt. eigenvalues --    0.72664   0.72919   0.73049   0.73142   0.73358
 Alpha virt. eigenvalues --    0.73481   0.73617   0.73847   0.73904   0.74144
 Alpha virt. eigenvalues --    0.74177   0.74435   0.74602   0.74676   0.75020
 Alpha virt. eigenvalues --    0.75098   0.75447   0.75640   0.75744   0.75925
 Alpha virt. eigenvalues --    0.76303   0.76370   0.76459   0.76713   0.76740
 Alpha virt. eigenvalues --    0.77005   0.77257   0.77377   0.77649   0.77982
 Alpha virt. eigenvalues --    0.78234   0.78400   0.78480   0.78738   0.79005
 Alpha virt. eigenvalues --    0.79230   0.79344   0.79454   0.79895   0.80253
[...]
 Alpha virt. eigenvalues --    3.57323   3.57634   3.57937   3.58014   3.58683
 Alpha virt. eigenvalues --    3.58801   3.59033   3.59294   3.59457   3.60225
 Alpha virt. eigenvalues --    3.60403   3.60621   3.60901   3.61448   3.61646
 Alpha virt. eigenvalues --    3.61733   3.62167   3.62298   3.62604   3.62781
 Alpha virt. eigenvalues --    3.63142   3.63198   3.63417   3.63654   3.64104
 Alpha virt. eigenvalues --    3.64264   3.64697   3.65225   3.65518   3.65881
 Alpha virt. eigenvalues --    3.66736   3.66945   3.67214   3.67421   3.67743
 Alpha virt. eigenvalues --    3.68213   3.68295   3.68475   3.68755   3.68933
 Alpha virt. eigenvalues --    3.68942   3.69466   3.69572   3.69860   3.70085
 Alpha virt. eigenvalues --    3.70239   3.70407   3.70576   3.70972   3.71124
 Alpha virt. eigenvalues --    3.72231   3.72647   3.72947   3.73263   3.73597
 Alpha virt. eigenvalues --    3.73844   3.74193   3.74305   3.75203   3.75270
 Alpha virt. eigenvalues --    3.75649   3.75850   3.76121   3.76479   3.76905
 Alpha virt. eigenvalues --    3.77413   3.77979   3.78290   3.78521   3.78971
 Alpha virt. eigenvalues --    3.79530   3.79762   3.80157   3.80663   3.80728
 Alpha virt. eigenvalues --    3.81244   3.81495   3.81674   3.81945   3.82347
 Alpha virt. eigenvalues --    3.82859   3.83408   3.83534   3.83690   3.83900
 Alpha virt. eigenvalues --    3.84460   3.84733   3.84988   3.85592   3.85682
 Alpha virt. eigenvalues --    3.85945   3.85991   3.86478   3.86736   3.87531
 Alpha virt. eigenvalues --    3.87849   3.88100   3.88671   3.88985   3.89348
 Alpha virt. eigenvalues --    3.89846   3.89921   3.90772   3.91086   3.91515
 Alpha virt. eigenvalues --    3.91866   3.92714   3.92997   3.93682   3.94011
 Alpha virt. eigenvalues --    3.94637   3.94954   3.95469   3.95540   3.95942
 Alpha virt. eigenvalues --    3.96259   3.97068   3.97639   3.97909   3.98206
 Alpha virt. eigenvalues --    3.98744   3.99275   4.00302   4.00742   4.01125
 Alpha virt. eigenvalues --    4.01236   4.01457   4.01931   4.02421   4.02855
 Alpha virt. eigenvalues --    4.03166   4.03693   4.03971   4.04446   4.05056
 Alpha virt. eigenvalues --    4.05400   4.05583   4.05727   4.05976   4.06384
 Alpha virt. eigenvalues --    4.06447   4.06952   4.07588   4.07763   4.08133
 Alpha virt. eigenvalues --    4.08555   4.08891   4.09106   4.09378   4.09562
 Alpha virt. eigenvalues --    4.10353   4.10535   4.10682   4.11066   4.11507
 Alpha virt. eigenvalues --    4.11697   4.11724   4.12192   4.12323   4.12572
 Alpha virt. eigenvalues --    4.12910   4.13035   4.13593   4.13857   4.13923
 Alpha virt. eigenvalues --    4.14221   4.14405   4.14532   4.14974   4.15209
 Alpha virt. eigenvalues --    4.15531   4.15649   4.15839   4.16226   4.16436
 Alpha virt. eigenvalues --    4.16642   4.16798   4.17190   4.17444   4.17538
 Alpha virt. eigenvalues --    4.17884   4.18114   4.18689   4.18902   4.19074
 Alpha virt. eigenvalues --    4.19322   4.20055   4.20667   4.20787   4.21008
 Alpha virt. eigenvalues --    4.21318   4.21538   4.21719   4.22061   4.22416
 Alpha virt. eigenvalues --    4.22687   4.22914   4.23390   4.23428   4.24046
 Alpha virt. eigenvalues --    4.24140   4.24502   4.24820   4.25014   4.25179
 Alpha virt. eigenvalues --    4.25917   4.26094   4.26322   4.26543   4.26645
 Alpha virt. eigenvalues --    4.26896   4.26993   4.27475   4.27889   4.28224
 Alpha virt. eigenvalues --    4.28260   4.28671   4.28921   4.29298   4.29639
 Alpha virt. eigenvalues --    4.30394   4.31140   4.31494   4.31682   4.31817
 Alpha virt. eigenvalues --    4.32462   4.32762   4.33380   4.33521   4.34094
 Alpha virt. eigenvalues --    4.34777   4.34910   4.35672   4.35834   4.36116
 Alpha virt. eigenvalues --    4.36367   4.36610   4.37380   4.38475   4.38841
 Alpha virt. eigenvalues --    4.39094   4.40049   4.40732   4.41164   4.41577
 Alpha virt. eigenvalues --    4.42196   4.42547   4.42747   4.42916   4.43216
 Alpha virt. eigenvalues --    4.43831   4.44022   4.44472   4.45377   4.46103
 Alpha virt. eigenvalues --    4.46667   4.47050   4.47126   4.47189   4.47313
 Alpha virt. eigenvalues --    4.47659   4.47969   4.48549   4.48983   4.49252
 Alpha virt. eigenvalues --    4.49644   4.50061   4.50281   4.50594   4.50967
 Alpha virt. eigenvalues --    4.51474   4.51996   4.52052   4.52679   4.53176
 Alpha virt. eigenvalues --    4.53939   4.54370   4.54856   4.55441   4.55613
 Alpha virt. eigenvalues --    4.55706   4.56499   4.56718   4.56968   4.58322
 Alpha virt. eigenvalues --    4.59162   4.59667   4.59939   4.60149   4.60751
 Alpha virt. eigenvalues --    4.61335   4.61549   4.62221   4.62390   4.62852
 Alpha virt. eigenvalues --    4.63145   4.63768   4.64017   4.64470   4.65874
 Alpha virt. eigenvalues --    4.66675   4.67295   4.67401   4.68288   4.69454
 Alpha virt. eigenvalues --    4.70007   4.70954   4.71700   4.71794   4.72302
 Alpha virt. eigenvalues --    4.72925   4.73931   4.74606   4.75555   4.75913
 Alpha virt. eigenvalues --    4.76068   4.76294   4.76804   4.77180   4.77905
 Alpha virt. eigenvalues --    4.78043   4.78551   4.78722   4.79210   4.80093
 Alpha virt. eigenvalues --    4.80522   4.81646   4.82942   4.83108   4.83152
 Alpha virt. eigenvalues --    4.83687   4.84077   4.84936   4.85073   4.85445
 Alpha virt. eigenvalues --    4.85711   4.87261   4.87855   4.88209   4.88321
 Alpha virt. eigenvalues --    4.88770   4.89289   4.89573   4.90016   4.90209
 Alpha virt. eigenvalues --    4.90628   4.91238   4.91389   4.91887   4.92214
 Alpha virt. eigenvalues --    4.92547   4.92677   4.93065   4.93522   4.93637
 Alpha virt. eigenvalues --    4.94303   4.95055   4.95156   4.95463   4.96136
 Alpha virt. eigenvalues --    4.96460   4.96760   4.97727   4.97894   4.98323
 Alpha virt. eigenvalues --    4.98413   4.99074   4.99552   4.99649   5.00651
 Alpha virt. eigenvalues --    5.01826   5.02543   5.02771   5.03065   5.03263
 Alpha virt. eigenvalues --    5.04015   5.04351   5.05960   5.07025   5.07506
 Alpha virt. eigenvalues --    5.08466   5.09121   5.09313   5.09471   5.10359
 Alpha virt. eigenvalues --    5.10556   5.11015   5.11575   5.12712   5.13736
 Alpha virt. eigenvalues --    5.14081   5.15108   5.16092   5.16869   5.18667
 Alpha virt. eigenvalues --    5.19089   5.19746   5.20024   5.20367   5.22788
 Alpha virt. eigenvalues --    5.23113   5.23276   5.23699   5.24431   5.24624
 Alpha virt. eigenvalues --    5.25610   5.26273   5.26921   5.27364   5.27844
 Alpha virt. eigenvalues --    5.28516   5.29404   5.29598   5.29789   5.31140
 Alpha virt. eigenvalues --    5.31469   5.31977   5.32610   5.32833   5.33476
 Alpha virt. eigenvalues --    5.33622   5.34567   5.34988   5.35498   5.36123
 Alpha virt. eigenvalues --    5.36250   5.36390   5.37111   5.37693   5.38200
 Alpha virt. eigenvalues --    5.38732   5.38906   5.39490   5.39828   5.40345
 Alpha virt. eigenvalues --    5.40930   5.41212   5.41333   5.41850   5.42325
 Alpha virt. eigenvalues --    5.43303   5.43583   5.44920   5.45333   5.45538
 Alpha virt. eigenvalues --    5.46332   5.46573   5.47036   5.47504   5.47732
 Alpha virt. eigenvalues --    5.48476   5.49938   5.51084   5.52411   5.53232
 Alpha virt. eigenvalues --    5.53917   5.56635   5.56738   5.59345   5.60358
 Alpha virt. eigenvalues --    5.61326   5.61795   5.62137   5.62973   5.63669
 Alpha virt. eigenvalues --    5.65344   5.65437   5.69977   5.70386   5.70816
 Alpha virt. eigenvalues --    5.71150   5.72311   5.73615   5.75180   5.75652
 Alpha virt. eigenvalues --    5.76561   5.77157   5.78185   5.78940   5.79474
 Alpha virt. eigenvalues --    5.79758   5.82179   5.83629   5.84233   5.85430
 Alpha virt. eigenvalues --    5.91620   5.91754   5.92496   5.93308   5.93501
 Alpha virt. eigenvalues --    5.94414   5.95443   5.95756   5.96743   5.98824
 Alpha virt. eigenvalues --    5.99587   5.99881   6.00488   6.01352   6.04667
 Alpha virt. eigenvalues --    6.07864   6.08358   6.09031   6.13583   6.15390
 Alpha virt. eigenvalues --    6.15983  22.46347  22.46842  22.51485  22.51591
 Alpha virt. eigenvalues --   22.51804  22.52147  22.52276  22.53129  22.53856
 Alpha virt. eigenvalues --   22.54020  22.56868  22.57716  22.58006  22.58352
 Alpha virt. eigenvalues --   22.59702  22.69995  22.70329  22.70922  22.72625
 Alpha virt. eigenvalues --   22.72831  22.75521  22.80185  22.80441  22.81923
 Alpha virt. eigenvalues --   22.85735  22.87673  22.90412  22.90466  22.91269
 Alpha virt. eigenvalues --   22.91602  22.93013  22.94516  22.95501  23.02681
 Alpha virt. eigenvalues --   23.06362  23.08275  23.11694  23.13570  23.14939
 Alpha virt. eigenvalues --   23.15566  23.16141  23.16558  23.17300  23.18624
 Alpha virt. eigenvalues --   23.20227  23.20636  23.22767  23.28611  23.51839
 Alpha virt. eigenvalues --   23.53240  23.53732  32.22244  32.23063  32.27577
 Alpha virt. eigenvalues --   32.72011  32.75866  32.76145  32.77712  32.79100
 Alpha virt. eigenvalues --   32.82933  32.94329  32.95828  32.97641
          Condensed to atoms (all electrons):
 Mulliken charges:
               1
     1  C    0.368452
     2  C   -0.185342
     3  C   -0.383107
     4  C    0.377870
     5  H    0.126201
     6  C   -0.339935
     7  C    0.306628
     8  H    0.171560
     9  C   -0.324512
    10  C   -0.189190
    11  H    0.128323
    12  C   -0.172840
    13  H    0.083515
    14  H    0.081155
    15  H    0.119743
    16  C    0.364847
    17  C   -0.181248
    18  C   -0.353453
    19  C    0.349489
    20  H    0.134163
    21  C   -0.338742
    22  C    0.376257
    23  H    0.144170
    24  C   -0.357146
    25  C   -0.228653
    26  H    0.127577
    27  C   -0.149522
    28  H    0.106726
    29  H    0.086441
    30  H    0.102327
    31  C    0.346371
    32  C   -0.197206
    33  C   -0.390492
    34  C    0.411581
    35  H    0.125962
    36  C   -0.386369
    37  C    0.354020
    38  H    0.121108
    39  C   -0.291234
    40  C   -0.180418
    41  H    0.125671
    42  C   -0.178260
    43  H    0.099866
    44  H    0.086050
    45  H    0.097065
    46  C    0.152191
    47  C   -0.130945
    48  N   -0.540813
    49  N   -0.182557
    50  C    0.152302
    51  C   -0.134983
    52  N   -0.539927
    53  N   -0.188347
    54  C    0.144871
    55  C   -0.123567
    56  N   -0.527183
    57  C   -0.403879
    58  N   -0.190561
    59  C    0.200115
    60  C   -0.175779
    61  N   -0.192637
    62  N   -0.190802
    63  C   -0.398432
    64  C   -0.122746
    65  C    0.180051
    66  N   -0.184934
    67  N   -0.185276
    68  C   -0.360417
    69  C   -0.089245
    70  C    0.145724
    71  N   -0.216357
    72  N   -0.195102
    73  C   -0.358775
    74  H    0.228582
    75  H    0.218285
    76  H    0.219876
    77  H    0.232767
    78  H    0.220410
    79  H    0.229531
    80  H    0.142838
    81  H    0.126875
    82  H    0.121956
    83  H    0.080916
    84  H    0.121642
    85  H    0.081635
    86  H    0.121656
    87  C   -0.385489
    88  H    0.117402
    89  H    0.128480
    90  H    0.132737
    91  H    0.135410
    92  H    0.110008
    93  C   -0.360599
    94  H    0.126405
    95  H    0.131923
    96  H    0.121469
    97  H    0.120745
    98  H    0.136261
    99  H    0.138694
   100  C   -0.369187
   101  C   -0.385973
   102  H    0.086467
   103  H    0.124515
   104  C   -0.428895
   105  H    0.139418
   106  H    0.133691
   107  H    0.143819
   108  H    0.129625
   109  H    0.118951
   110  H    0.127417
   111  H    0.120315
   112  H    0.128980
   113  H    0.126642
   114  C   -0.420728
   115  H    0.134726
   116  H    0.141275
   117  H    0.133050
   118  H    0.097697
   119  H    0.123343
   120  H    0.127313
   121  H    0.115530
   122  H    0.133650
   123  H    0.121256
   124  H    0.078131
   125  C   -0.369278
   126  C   -0.369879
   127  H    0.122679
   128  H    0.119580
   129  H    0.129672
   130  H    0.120261
   131  H    0.124949
   132  H    0.128944
   133  H    0.120803
   134  H    0.122901
   135  H    0.130469
 Sum of Mulliken charges =   0.00000
 Mulliken charges with hydrogens summed into heavy atoms:
               1
     1  C    0.368452
     2  C   -0.104187
     3  C   -0.256906
     4  C    0.377870
     6  C   -0.168375
     7  C    0.306628
     9  C   -0.196190
    10  C   -0.105675
    12  C   -0.053097
    16  C    0.364847
    17  C   -0.094808
    18  C   -0.219290
    19  C    0.349489
    21  C   -0.194572
    22  C    0.376257
    24  C   -0.229569
    25  C   -0.121927
    27  C   -0.047195
    31  C    0.346371
    32  C   -0.111156
    33  C   -0.264529
    34  C    0.411581
    36  C   -0.265261
    37  C    0.354020
    39  C   -0.165563
    40  C   -0.080552
    42  C   -0.081195
    46  C    0.152191
    47  C    0.068443
    48  N   -0.088171
    49  N   -0.182557
    50  C    0.152302
    51  C    0.068308
    52  N   -0.089986
    53  N   -0.188347
    54  C    0.144871
    55  C    0.078991
    56  N   -0.080317
    57  C   -0.012211
    58  N   -0.190561
    59  C    0.200115
    60  C    0.069639
    61  N   -0.192637
    62  N   -0.190802
    63  C   -0.002733
    64  C    0.088236
    65  C    0.180051
    66  N   -0.184934
    67  N   -0.185276
    68  C    0.015575
    69  C    0.131795
    70  C    0.145724
    71  N   -0.216357
    72  N   -0.195102
    73  C    0.017162
    87  C   -0.006870
    93  C    0.019198
   100  C    0.002744
   101  C   -0.009480
   104  C   -0.011967
   114  C   -0.011677
   125  C    0.004895
   126  C    0.004276
 Electronic spatial extent (au):  <R**2>=          65476.6305
 Charge=              0.0000 electrons
 Dipole moment (field-independent basis, Debye):
    X=             -0.9137    Y=              4.0598    Z=              1.1752  Tot=              4.3241
 Quadrupole moment (field-independent basis, Debye-Ang):
   XX=           -323.3578   YY=           -407.5938   ZZ=           -374.4607
   XY=             15.0506   XZ=             -2.8144   YZ=            -13.2635
 Traceless Quadrupole moment (field-independent basis, Debye-Ang):
   XX=             45.1130   YY=            -39.1230   ZZ=             -5.9899
   XY=             15.0506   XZ=             -2.8144   YZ=            -13.2635
 Octapole moment (field-independent basis, Debye-Ang**2):
  XXX=            140.9744  YYY=            156.3892  ZZZ=             33.6083  XYY=             90.3719
  XXY=            140.9083  XXZ=            -22.8395  XZZ=            -74.0814  YZZ=             75.2022
  YYZ=             63.8761  XYZ=              2.9658
 Hexadecapole moment (field-independent basis, Debye-Ang**3):
 XXXX=         -43320.1980 YYYY=         -28411.6534 ZZZZ=         -14551.5517 XXXY=            148.7192
 XXXZ=           -263.7464 YYYX=            -39.2116 YYYZ=           -694.6191 ZZZX=             -3.3332
 ZZZY=            -23.5127 XXYY=         -12876.9284 XXZZ=         -10315.2063 YYZZ=          -7084.0770
 XXYZ=           -479.4150 YYXZ=            272.7999 ZZXY=            128.9448
 N-N= 9.296161201870D+03 E-N=-2.473293281382D+04  KE= 2.629424165596D+03
 Leave Link  601 at Mon Oct 18 15:53:29 2021, MaxMem=  7864320000 cpu:              43.1 elap:               1.7
 (Enter /apps/gaussian/g16-c01-avx/g16/l9999.exe)
 Unable to Open any file for archive entry.
 1\1\GINC-CX3-6-2\SP\RPBE1PBE\def2TZVP\C51H72N12\ATARZIA\18-Oct-2021\0\
 \#P PBE1PBE/Def2TZVP SP SCF=(YQC,MaxCycle=900) int=(Grid=Superfinegrid
 ) EmpiricalDispersion=GD3 SCRF=(PCM,Solvent=Chloroform)\\_3_alde1_6_am
 i2_2_opt_cfm\\0,1\C,0,-5.5631,-0.5077,2.1037\C,0,-6.616,-1.2385,2.7939
 \C,0,-4.5745,-1.1862,1.3966\C,0,-3.5588,-0.4897,0.746\H,0,-4.5967,-2.2
 622,1.3449\C,0,-3.538,0.8986,0.8094\C,0,-4.5304,1.5941,1.4994\H,0,-2.7
 624,1.469,0.3202\C,0,-5.5388,0.8857,2.1445\C,0,-4.5126,3.05,1.5157\H,0
 ,-6.3099,1.4207,2.6828\C,0,-2.5395,-1.1962,-0.0242\H,0,-5.3795,3.5473,
 1.9813\H,0,-7.3487,-0.6258,3.3445\H,0,-1.7527,-0.5698,-0.4561\C,0,4.79
 97,-0.9326,-0.0913\C,0,6.1807,-1.3731,-0.2227\C,0,4.4873,0.1505,0.7214
 \C,0,3.166,0.5739,0.868\H,0,5.257,0.6822,1.2602\C,0,2.1534,-0.0936,0.1
 879\C,0,2.4504,-1.189,-0.6246\H,0,1.1243,0.2184,0.2826\C,0,3.7726,-1.5
 984,-0.76\C,0,1.4044,-1.9351,-1.3061\H,0,4.0288,-2.4413,-1.3839\C,0,2.
 8585,1.7249,1.7048\H,0,1.748,-2.8292,-1.8507\H,0,6.9262,-0.7864,0.3365
 \H,0,1.7946,1.9899,1.7858\C,0,1.2267,2.2052,-2.9724\C,0,1.5662,1.3832,
 -4.1236\C,0,-0.0762,2.6652,-2.7803\C,0,-0.3737,3.5366,-1.7379\H,0,-0.8
 387,2.3483,-3.4759\C,0,0.6395,3.929,-0.8673\C,0,1.9374,3.4553,-1.0268\
 H,0,0.4142,4.6054,-0.0596\C,0,2.225,2.5949,-2.0835\C,0,2.9842,3.8237,-
 0.0812\H,0,3.2344,2.2284,-2.2174\C,0,-1.7315,4.0451,-1.5539\H,0,3.9788
 ,3.4195,-0.3097\H,0,2.6364,1.1476,-4.2413\H,0,-2.5073,3.5256,-2.13\C,0
 ,-7.0326,-4.1826,4.4866\C,0,-7.6908,-3.1994,3.4729\N,0,-6.0641,-5.0543
 ,3.8464\N,0,-6.6796,-2.4974,2.7611\C,0,7.965,-4.2534,-0.4263\C,0,7.849
 1,-2.8086,-0.9998\N,0,7.0341,-5.1683,-1.0623\N,0,6.4977,-2.3686,-0.930
 3\C,0,0.5526,-1.2091,-5.9967\C,0,1.0765,0.2542,-6.109\N,0,-0.842,-1.26
 54,-5.5933\C,0,1.3788,-1.957,-4.9497\N,0,0.6999,1.0134,-4.9637\C,0,-1.
 6643,-3.2157,-0.9276\C,0,-0.7791,-2.4152,-1.9271\N,0,-2.6048,-2.4454,-
 0.1722\N,0,0.1881,-1.5953,-1.2785\C,0,-0.7862,-3.9691,0.0803\C,0,-3.52
 05,5.1036,0.9697\C,0,-3.2271,5.568,-0.4823\N,0,-3.5479,3.6844,1.0122\N
 ,0,-1.9363,5.0229,-0.7889\C,0,-3.073,7.0929,-0.4957\C,0,3.4431,3.5747,
 2.9732\C,0,3.6548,4.7718,1.9829\N,0,3.7704,2.3645,2.3067\N,0,2.7202,4.
 5415,0.924\C,0,3.2351,6.069,2.6778\H,0,-0.9535,-0.7703,-4.7144\H,0,-1.
 4223,-0.7954,-6.2802\H,0,-6.5139,-5.612,3.128\H,0,-5.3534,-4.4898,3.39
 27\H,0,7.2156,-5.2192,-2.0593\H,0,6.0877,-4.8241,-0.9403\H,0,1.3352,-1
 .4359,-3.9953\H,0,2.4178,-2.0318,-5.2616\H,0,0.9746,-2.9574,-4.8214\H,
 0,2.167,0.2343,-6.269\H,0,0.5975,0.7279,-6.9727\H,0,8.5457,-2.1413,-0.
 4653\H,0,8.1284,-2.8394,-2.0589\C,0,7.6576,-4.2343,1.0723\H,0,8.3803,-
 3.6213,1.605\H,0,7.6967,-5.248,1.4605\H,0,6.6612,-3.8347,1.2488\H,0,-1
 .4387,-1.7643,-2.5092\H,0,-0.3116,-3.1458,-2.6054\C,0,-2.4952,-4.2215,
 -1.7365\H,0,-3.0649,-3.7057,-2.5057\H,0,-3.1897,-4.7267,-1.0714\H,0,-1
 .8529,-4.9596,-2.2094\H,0,-0.0964,-4.6291,-0.4403\H,0,-1.4163,-4.5602,
 0.7393\H,0,-0.2166,-3.2643,0.6823\C,0,-8.1225,-5.0504,5.1172\C,0,-6.30
 4,-3.3843,5.5695\H,0,-4.4531,5.5699,1.3307\H,0,-2.6859,5.434,1.5954\C,
 0,-4.3833,5.1486,-1.3986\H,0,-4.1485,5.3861,-2.4344\H,0,-5.2846,5.6869
 ,-1.1152\H,0,-4.5786,4.0818,-1.3118\H,0,-2.2107,7.3797,0.0993\H,0,-3.9
 62,7.5728,-0.0942\H,0,-2.9174,7.4377,-1.5151\H,0,3.7799,6.2021,3.6088\
 H,0,2.1693,6.0457,2.8861\H,0,3.439,6.9141,2.025\C,0,5.1312,4.8378,1.57
 61\H,0,5.2547,5.5244,0.7404\H,0,5.4978,3.8551,1.2929\H,0,5.7239,5.1954
 ,2.4139\H,0,2.3987,3.6056,3.3161\H,0,4.1228,3.7035,3.8174\H,0,-5.8115,
 -4.0703,6.2526\H,0,-7.0032,-2.7668,6.1281\H,0,-5.5496,-2.7425,5.1196\H
 ,0,-8.2518,-3.7919,2.7413\H,0,-8.3917,-2.53,4.0005\C,0,9.3854,-4.7676,
 -0.6638\C,0,0.6897,-1.8924,-7.3578\H,0,-8.6495,-5.6186,4.3535\H,0,-8.8
 424,-4.4365,5.6522\H,0,-7.6671,-5.7497,5.8127\H,0,1.7278,-1.903,-7.679
 8\H,0,0.0981,-1.3732,-8.1089\H,0,0.3303,-2.9151,-7.2846\H,0,10.1124,-4
 .1388,-0.1564\H,0,9.6168,-4.7787,-1.7269\H,0,9.4675,-5.7819,-0.2835\\V
 ersion=ES64L-G16RevC.01\State=1-A\HF=-2641.6434401\RMSD=2.073e-09\Dipo
 le=0.1860812,1.5562039,-0.6616846\Quadrupole=29.4520601,-27.3455094,-2
 .1065507,-7.851479,-11.8923573,14.469227\PG=C01 [X(C51H72N12)]\\@
 The archive entry for this job was punched.


 WHEN A MATHEMATICIAN ENGAGED IN INVESTIGATING
 PHYSICAL ACTIONS AND RESULTS HAS ARRIVED AT HIS
 CONCLUSIONS, MAY THEY NOT BE EXPRESSED IN COMMON
 LANGUAGE AS FULLY, CLEARLY, AND DEFINITELY AS IN
 MATHEMATICAL FORMULAE?
           - LETTER FROM M. FARADAY TO J.C. MAXWELL, 1857.
 Job cpu time:       1 days 18 hours 14 minutes 15.5 seconds.
 Elapsed time:       0 days  1 hours 19 minutes 58.7 seconds.
 File lengths (MBytes):  RWF=   4424 Int=      0 D2E=      0 Chk=    344 Scr=     16
 Normal termination of Gaussian 16 at Mon Oct 18 15:53:30 2021.
