 Entering Gaussian System, Link 0=g16
 Initial command:
 /apps/gaussian/g16-c01-avx/g16/l1.exe "/rds/general/ephemeral/user/atarzia/ephemeral/xtb_spe_DFT/Gau-3007540.inp" -scrdir="/rds/general/ephemeral/user/atarzia/ephemeral/xtb_spe_DFT/"
 Entering Link 1 = /apps/gaussian/g16-c01-avx/g16/l1.exe PID=   3007541.
  
 Copyright (c) 1988-2019, Gaussian, Inc.  All Rights Reserved.
  
 This is part of the Gaussian(R) 16 program.  It is based on
 the Gaussian(R) 09 system (copyright 2009, Gaussian, Inc.),
 the Gaussian(R) 03 system (copyright 2003, Gaussian, Inc.),
 the Gaussian(R) 98 system (copyright 1998, Gaussian, Inc.),
 the Gaussian(R) 94 system (copyright 1995, Gaussian, Inc.),
 the Gaussian 92(TM) system (copyright 1992, Gaussian, Inc.),
 the Gaussian 90(TM) system (copyright 1990, Gaussian, Inc.),
 the Gaussian 88(TM) system (copyright 1988, Gaussian, Inc.),
 the Gaussian 86(TM) system (copyright 1986, Carnegie Mellon
 University), and the Gaussian 82(TM) system (copyright 1983,
 Carnegie Mellon University). Gaussian is a federally registered
 trademark of Gaussian, Inc.
  
 This software contains proprietary and confidential information,
 including trade secrets, belonging to Gaussian, Inc.
  
 This software is provided under written license and may be
 used, copied, transmitted, or stored only in accord with that
 written license.
  
 The following legend is applicable only to US Government
 contracts under FAR:
  
                    RESTRICTED RIGHTS LEGEND
  
 Use, reproduction and disclosure by the US Government is
 subject to restrictions as set forth in subparagraphs (a)
 and (c) of the Commercial Computer Software - Restricted
 Rights clause in FAR 52.227-19.
  
 Gaussian, Inc.
 340 Quinnipiac St., Bldg. 40, Wallingford CT 06492
  
  
 ---------------------------------------------------------------
 Warning -- This program may not be used in any manner that
 competes with the business of Gaussian, Inc. or will provide
 assistance to any competitor of Gaussian, Inc.  The licensee
 of this program is prohibited from giving any competitor of
 Gaussian, Inc. access to this program.  By using this program,
 the user acknowledges that Gaussian, Inc. is engaged in the
 business of creating and licensing software in the field of
 computational chemistry and represents and warrants to the
 licensee that it is not a competitor of Gaussian, Inc. and that
 it will not use this program in any manner prohibited above.
 ---------------------------------------------------------------
  

 Cite this work as:
 Gaussian 16, Revision C.01,
 M. J. Frisch, G. W. Trucks, H. B. Schlegel, G. E. Scuseria, 
 M. A. Robb, J. R. Cheeseman, G. Scalmani, V. Barone, 
 G. A. Petersson, H. Nakatsuji, X. Li, M. Caricato, A. V. Marenich, 
 J. Bloino, B. G. Janesko, R. Gomperts, B. Mennucci, H. P. Hratchian, 
 J. V. Ortiz, A. F. Izmaylov, J. L. Sonnenberg, D. Williams-Young, 
 F. Ding, F. Lipparini, F. Egidi, J. Goings, B. Peng, A. Petrone, 
 T. Henderson, D. Ranasinghe, V. G. Zakrzewski, J. Gao, N. Rega, 
 G. Zheng, W. Liang, M. Hada, M. Ehara, K. Toyota, R. Fukuda, 
 J. Hasegawa, M. Ishida, T. Nakajima, Y. Honda, O. Kitao, H. Nakai, 
 T. Vreven, K. Throssell, J. A. Montgomery, Jr., J. E. Peralta, 
 F. Ogliaro, M. J. Bearpark, J. J. Heyd, E. N. Brothers, K. N. Kudin, 
 V. N. Staroverov, T. A. Keith, R. Kobayashi, J. Normand, 
 K. Raghavachari, A. P. Rendell, J. C. Burant, S. S. Iyengar, 
 J. Tomasi, M. Cossi, J. M. Millam, M. Klene, C. Adamo, R. Cammi, 
 J. W. Ochterski, R. L. Martin, K. Morokuma, O. Farkas, 
 J. B. Foresman, and D. J. Fox, Gaussian, Inc., Wallingford CT, 2019.
 
 ******************************************
 Gaussian 16:  ES64L-G16RevC.01  3-Jul-2019
                 1-Nov-2021 
 ******************************************
 %chk=_3_alde1_5_ami1_1_opt_cfm_mp2.chk
 %mem=60000mb
 %nprocshared=32
 Will use up to   32 processors via shared memory.
 ----------------------------------------------------------------------
 #P MP2/aug-cc-pVDZ SP SCF=(YQC,MaxCycle=900) int=(Grid=Superfinegrid) 
 SCRF=(PCM,Solvent=Chloroform)
 ----------------------------------------------------------------------
 1/38=1,172=1/1;
 2/12=2,17=6,18=5,40=1/2;
 3/5=16,7=10,11=9,25=1,30=1,70=2201,72=7,75=-7/1,2,3;
 4//1;
 5/5=2,7=900,8=4,13=1,38=1,53=7/8,2,8;
 8/10=1/1;
 9/16=-3/6;
 6/7=2,8=2,9=2,10=2/1;
 99/5=1,9=1/99;
 Leave Link    1 at Mon Nov  1 18:25:30 2021, MaxMem=  7864320000 cpu:               5.9 elap:               0.2
 (Enter /apps/gaussian/g16-c01-avx/g16/l101.exe)
 -----------------------------
 _3_alde1_5_ami1_1_opt_cfm_mp2
 -----------------------------
 Symbolic Z-matrix:
 Charge =  0 Multiplicity = 1
 C                    -2.9936   -1.9118   -0.4933 
 C                    -3.1751   -1.5398    0.9008 
 C                    -2.2452   -3.0216   -0.8826 
 C                    -2.0713   -3.3167   -2.2316 
 H                    -1.8073   -3.649    -0.1213 
 C                    -2.5974   -2.4575   -3.1965 
 C                    -3.3426   -1.3459   -2.8233 
 H                    -2.4196   -2.6866   -4.2362 
 C                    -3.5636   -1.1017   -1.4699 
 C                    -3.8373   -0.4059   -3.821 
 H                    -4.1636   -0.2473   -1.1997 
 C                    -1.3315   -4.5056   -2.6289 
 H                    -3.3642   -0.4738   -4.8132 
 H                    -3.9162   -0.7437    1.0682 
 H                    -0.9492   -5.1243   -1.8041 
 C                     1.7441   -2.3367    0.2375 
 C                     1.1364   -2.7972    1.5446 
 C                     2.4797   -1.165     0.1591 
 C                     2.9977   -0.7286   -1.06 
 H                     2.6567   -0.5946    1.0593 
 C                     2.7568   -1.4731   -2.2117 
 C                     2.0399   -2.6608   -2.1383 
 H                     3.1522   -1.1151   -3.1499 
 C                     1.5395   -3.085    -0.9085 
 C                     1.7686   -3.449    -3.3324 
 H                     0.9905   -4.0095   -0.8583 
 C                     3.7515    0.513    -1.1104 
 H                     1.8368   -2.9118   -4.2921 
 H                     3.881     1.0261   -0.1444 
 C                    -0.7616    1.4573    0.2956 
 C                    -0.6602    0.6623    1.5125 
 C                    -2.0126    1.7552   -0.2418 
 C                    -2.1278    2.3506   -1.4927 
 H                    -2.8892    1.4751    0.3211 
 C                    -0.972     2.6895   -2.1943 
 C                     0.2824    2.4661   -1.6388 
 H                    -1.0756    3.1341   -3.1724 
 C                     0.3815    1.8377   -0.3983 
 C                     1.4858    2.8271   -2.3787 
 H                     1.3632    1.6376    0.0002 
 C                    -3.4464    2.5236   -2.0826 
 H                     1.3623    2.9189   -3.4697 
 H                    -4.294     2.3112   -1.4135 
 C                    -1.554    -0.4491    3.365 
 C                    -2.7139   -1.4637    3.1641 
 N                    -1.6526    0.4637    2.2646 
 H                    -0.5969   -0.996     3.3314 
 C                    -1.6195    0.3209    4.6997 
 N                    -2.5224   -2.0383    1.8594 
 H                    -3.6484   -0.8782    3.1912 
 C                    -2.8027   -2.5785    4.2193 
 H                    -1.6189   -0.4133    5.5122 
 C                    -2.871     1.1873    4.8058 
 C                    -0.3669    1.1859    4.8424 
 H                    -2.9286   -2.1133    5.2023 
 C                    -1.5573   -3.4582    4.2343 
 C                    -4.0397   -3.43      3.9318 
 H                    -0.3462    1.9504    4.0688 
 H                     0.5342    0.5819    4.7526 
 H                    -0.3567    1.6764    5.8132 
 H                    -3.7675    0.577     4.8765 
 H                    -2.9496    1.8263    3.9304 
 H                    -2.8161    1.8124    5.6945 
 H                    -4.9384   -2.8167    3.9334 
 H                    -4.1518   -4.2054    4.6863 
 H                    -3.9471   -3.9017    2.9561 
 H                    -1.71     -4.3163    4.8862 
 H                    -0.6957   -2.9054    4.6001 
 H                    -1.3585   -3.8111    3.2258 
 C                     2.9984   -3.0979    2.8611 
 C                     2.5717   -4.4823    2.265 
 N                     1.8516   -2.2135    2.6731 
 H                     3.8049   -2.6963    2.2349 
 C                     3.4987   -3.1478    4.3109 
 N                     1.2575   -4.2486    1.6665 
 H                     2.4957   -5.24      3.0524 
 C                     3.557    -5.0044    1.2055 
 H                     4.2703   -3.9241    4.3519 
 C                     2.4107   -3.5088    5.3246 
 C                     4.1335   -1.8095    4.6871 
 H                     3.6606   -4.2392    0.43 
 C                     3.0002   -6.271     0.5599 
 C                     4.9262   -5.2907    1.8164 
 H                     4.4751   -1.826     5.7197 
 H                     3.4094   -1.0065    4.571 
 H                     4.9851   -1.5958    4.0455 
 H                     1.7371   -2.6701    5.4943 
 H                     2.8681   -3.7568    6.2798 
 H                     1.8272   -4.3675    4.9987 
 H                     4.8386   -6.0212    2.6191 
 H                     5.3811   -4.3887    2.2176 
 H                     5.5923   -5.6966    1.0585 
 H                     2.9022   -7.0636    1.2996 
 H                     3.6651   -6.6155   -0.2285 
 H                     2.0232   -6.0699    0.1323 
 C                    -0.3333   -5.9495   -4.1507 
 C                     1.0925   -5.3993   -4.4316 
 N                    -1.1475   -4.8109   -3.839 
 H                    -0.2499   -6.6168   -3.2767 
 C                    -0.9631   -6.7247   -5.3199 
 N                     1.4571   -4.6668   -3.2577 
 H                     1.0413   -4.7359   -5.3126 
 C                     2.1385   -6.499    -4.7051 
 H                    -0.3227   -7.5824   -5.5493 
 C                    -1.1135   -5.8582   -6.5669 
 C                    -2.3293   -7.252    -4.8803 
 H                     1.7982   -7.0817   -5.567 
 C                     2.323    -7.4258   -3.5067 
 C                     3.4712   -5.8452   -5.0712 
 H                    -2.9886   -6.4197   -4.6449 
 H                    -2.2345   -7.8778   -3.995 
 H                    -2.7819   -7.8436   -5.6729 
 H                    -0.1456   -5.6224   -7.0016 
 H                    -1.617    -4.9319   -6.3058 
 H                    -1.7031   -6.3813   -7.3167 
 H                     4.2045   -6.605    -5.332 
 H                     3.8522   -5.2705   -4.2297 
 H                     3.3538   -5.1765   -5.9219 
 H                     3.1733   -8.084    -3.6729 
 H                     1.4439   -8.0446   -3.3478 
 H                     2.5024   -6.835    -2.6128 
 C                    -5.1016    1.4313   -4.5214 
 C                    -4.9433    2.8146   -3.8292 
 N                    -4.7185    0.4521   -3.5485 
 H                    -4.4261    1.4015   -5.393 
 C                    -6.5381    1.1485   -5.0094 
 N                    -3.6136    2.8408   -3.2917 
 H                    -5.6895    2.8553   -3.0177 
 C                    -5.1476    4.0209   -4.7607 
 H                    -6.839     1.9748   -5.6613 
 C                    -7.5292    1.0327   -3.8545 
 C                    -6.5481   -0.1366   -5.8372 
 H                    -6.1567    3.9656   -5.1821 
 C                    -4.1274    4.0494   -5.8954 
 C                    -5.0447    5.3016   -3.932 
 H                    -5.8537   -0.0653   -6.6721 
 H                    -7.5436   -0.3197   -6.2353 
 H                    -6.2621   -0.9862   -5.2205 
 H                    -7.6602    1.9861   -3.3499 
 H                    -7.171     0.3017   -3.1345 
 H                    -8.4993    0.7129   -4.2289 
 H                    -5.7739    5.2986   -3.1242 
 H                    -5.2263    6.1741   -4.5554 
 H                    -4.0505    5.3824   -3.4984 
 H                    -3.1275    3.935    -5.4868 
 H                    -4.1863    4.997    -6.4263 
 H                    -4.3091    3.2507   -6.6098 
 C                     4.8434    2.2782   -2.1451 
 C                     3.7616    3.3052   -2.5778 
 N                     4.218     0.9877   -2.1821 
 H                     5.1383    2.5353   -1.1134 
 C                     6.0975    2.2677   -3.0358 
 N                     2.5909    3.0124   -1.8055 
 H                     3.5633    3.1675   -3.6543 
 C                     4.1822    4.7722   -2.3457 
 H                     6.5228    3.2768   -3.0478 
 C                     5.7829    1.8364   -4.4656 
 C                     7.1271    1.3198   -2.4203 
 H                     5.1555    4.9214   -2.824 
 C                     4.2951    5.1142   -0.8623 
 C                     3.1733    5.7023   -3.0192 
 H                     6.726     0.3093   -2.39 
 H                     7.3739    1.624    -1.4049 
 H                     8.0414    1.3156   -3.0093 
 H                     6.7059    1.679    -5.0194 
 H                     5.2014    2.5917   -4.9878 
 H                     5.2184    0.9087   -4.4475 
 H                     3.0953    5.485    -4.0827 
 H                     3.4817    6.739    -2.9041 
 H                     2.1902    5.5837   -2.568 
 H                     3.3681    4.8618   -0.3544 
 H                     4.4869    6.1781   -0.7406 
 H                     5.1091    4.5689   -0.3924 
 H                     0.3209    0.201     1.6959 
 H                     0.5242   -4.6088    2.2674 
 H                     0.0805   -2.497     1.5499 
 H                     1.2589   -2.255     3.497 
 
 ITRead=  0  0  0  0  0  0  0  0  0  0  0  0  0  0  0  0  0  0  0  0
 ITRead=  0  0  0  0  0  0  0  0  0  0  0  0  0  0  0  0  0  0  0  0
 ITRead=  0  0  0  0  0  0  0  0  0  0  0  0  0  0  0  0  0  0  0  0
 ITRead=  0  0  0  0  0  0  0  0  0  0  0  0  0  0  0  0  0  0  0  0
 ITRead=  0  0  0  0  0  0  0  0  0  0  0  0  0  0  0  0  0  0  0  0
 ITRead=  0  0  0  0  0  0  0  0  0  0  0  0  0  0  0  0  0  0  0  0
 ITRead=  0  0  0  0  0  0  0  0  0  0  0  0  0  0  0  0  0  0  0  0
 ITRead=  0  0  0  0  0  0  0  0  0  0  0  0  0  0  0  0  0  0  0  0
 ITRead=  0  0  0  0  0  0  0  0  0  0  0  0  0  0  0  0  0
 MicOpt= -1 -1 -1 -1 -1 -1 -1 -1 -1 -1 -1 -1 -1 -1 -1 -1 -1 -1 -1 -1
 MicOpt= -1 -1 -1 -1 -1 -1 -1 -1 -1 -1 -1 -1 -1 -1 -1 -1 -1 -1 -1 -1
 MicOpt= -1 -1 -1 -1 -1 -1 -1 -1 -1 -1 -1 -1 -1 -1 -1 -1 -1 -1 -1 -1
 MicOpt= -1 -1 -1 -1 -1 -1 -1 -1 -1 -1 -1 -1 -1 -1 -1 -1 -1 -1 -1 -1
 MicOpt= -1 -1 -1 -1 -1 -1 -1 -1 -1 -1 -1 -1 -1 -1 -1 -1 -1 -1 -1 -1
 MicOpt= -1 -1 -1 -1 -1 -1 -1 -1 -1 -1 -1 -1 -1 -1 -1 -1 -1 -1 -1 -1
 MicOpt= -1 -1 -1 -1 -1 -1 -1 -1 -1 -1 -1 -1 -1 -1 -1 -1 -1 -1 -1 -1
 MicOpt= -1 -1 -1 -1 -1 -1 -1 -1 -1 -1 -1 -1 -1 -1 -1 -1 -1 -1 -1 -1
 MicOpt= -1 -1 -1 -1 -1 -1 -1 -1 -1 -1 -1 -1 -1 -1 -1 -1 -1
 NAtoms=    177 NQM=      177 NQMF=       0 NMMI=      0 NMMIF=      0
                NMic=       0 NMicF=      0.
                    Isotopes and Nuclear Properties:
 (Nuclear quadrupole moments (NQMom) in fm**2, nuclear magnetic moments (NMagM)
  in nuclear magnetons)

  Atom         1           2           3           4           5           6           7           8           9          10
 IAtWgt=          12          12          12          12           1          12          12           1          12          12
 AtmWgt=  12.0000000  12.0000000  12.0000000  12.0000000   1.0078250  12.0000000  12.0000000   1.0078250  12.0000000  12.0000000
 NucSpn=           0           0           0           0           1           0           0           1           0           0
 AtZEff=  -0.0000000  -0.0000000  -0.0000000  -0.0000000  -0.0000000  -0.0000000  -0.0000000  -0.0000000  -0.0000000  -0.0000000
 NQMom=    0.0000000   0.0000000   0.0000000   0.0000000   0.0000000   0.0000000   0.0000000   0.0000000   0.0000000   0.0000000
 NMagM=    0.0000000   0.0000000   0.0000000   0.0000000   2.7928460   0.0000000   0.0000000   2.7928460   0.0000000   0.0000000
 AtZNuc=   6.0000000   6.0000000   6.0000000   6.0000000   1.0000000   6.0000000   6.0000000   1.0000000   6.0000000   6.0000000

  Atom        11          12          13          14          15          16          17          18          19          20
 IAtWgt=           1          12           1           1           1          12          12          12          12           1
 AtmWgt=   1.0078250  12.0000000   1.0078250   1.0078250   1.0078250  12.0000000  12.0000000  12.0000000  12.0000000   1.0078250
 NucSpn=           1           0           1           1           1           0           0           0           0           1
 AtZEff=  -0.0000000  -0.0000000  -0.0000000  -0.0000000  -0.0000000  -0.0000000  -0.0000000  -0.0000000  -0.0000000  -0.0000000
 NQMom=    0.0000000   0.0000000   0.0000000   0.0000000   0.0000000   0.0000000   0.0000000   0.0000000   0.0000000   0.0000000
 NMagM=    2.7928460   0.0000000   2.7928460   2.7928460   2.7928460   0.0000000   0.0000000   0.0000000   0.0000000   2.7928460
 AtZNuc=   1.0000000   6.0000000   1.0000000   1.0000000   1.0000000   6.0000000   6.0000000   6.0000000   6.0000000   1.0000000

  Atom        21          22          23          24          25          26          27          28          29          30
 IAtWgt=          12          12           1          12          12           1          12           1           1          12
 AtmWgt=  12.0000000  12.0000000   1.0078250  12.0000000  12.0000000   1.0078250  12.0000000   1.0078250   1.0078250  12.0000000
 NucSpn=           0           0           1           0           0           1           0           1           1           0
 AtZEff=  -0.0000000  -0.0000000  -0.0000000  -0.0000000  -0.0000000  -0.0000000  -0.0000000  -0.0000000  -0.0000000  -0.0000000
 NQMom=    0.0000000   0.0000000   0.0000000   0.0000000   0.0000000   0.0000000   0.0000000   0.0000000   0.0000000   0.0000000
 NMagM=    0.0000000   0.0000000   2.7928460   0.0000000   0.0000000   2.7928460   0.0000000   2.7928460   2.7928460   0.0000000
 AtZNuc=   6.0000000   6.0000000   1.0000000   6.0000000   6.0000000   1.0000000   6.0000000   1.0000000   1.0000000   6.0000000

  Atom        31          32          33          34          35          36          37          38          39          40
 IAtWgt=          12          12          12           1          12          12           1          12          12           1
 AtmWgt=  12.0000000  12.0000000  12.0000000   1.0078250  12.0000000  12.0000000   1.0078250  12.0000000  12.0000000   1.0078250
 NucSpn=           0           0           0           1           0           0           1           0           0           1
 AtZEff=  -0.0000000  -0.0000000  -0.0000000  -0.0000000  -0.0000000  -0.0000000  -0.0000000  -0.0000000  -0.0000000  -0.0000000
 NQMom=    0.0000000   0.0000000   0.0000000   0.0000000   0.0000000   0.0000000   0.0000000   0.0000000   0.0000000   0.0000000
 NMagM=    0.0000000   0.0000000   0.0000000   2.7928460   0.0000000   0.0000000   2.7928460   0.0000000   0.0000000   2.7928460
 AtZNuc=   6.0000000   6.0000000   6.0000000   1.0000000   6.0000000   6.0000000   1.0000000   6.0000000   6.0000000   1.0000000

  Atom        41          42          43          44          45          46          47          48          49          50
 IAtWgt=          12           1           1          12          12          14           1          12          14           1
 AtmWgt=  12.0000000   1.0078250   1.0078250  12.0000000  12.0000000  14.0030740   1.0078250  12.0000000  14.0030740   1.0078250
 NucSpn=           0           1           1           0           0           2           1           0           2           1
 AtZEff=  -0.0000000  -0.0000000  -0.0000000  -0.0000000  -0.0000000  -0.0000000  -0.0000000  -0.0000000  -0.0000000  -0.0000000
 NQMom=    0.0000000   0.0000000   0.0000000   0.0000000   0.0000000   2.0440000   0.0000000   0.0000000   2.0440000   0.0000000
 NMagM=    0.0000000   2.7928460   2.7928460   0.0000000   0.0000000   0.4037610   2.7928460   0.0000000   0.4037610   2.7928460
 AtZNuc=   6.0000000   1.0000000   1.0000000   6.0000000   6.0000000   7.0000000   1.0000000   6.0000000   7.0000000   1.0000000

  Atom        51          52          53          54          55          56          57          58          59          60
 IAtWgt=          12           1          12          12           1          12          12           1           1           1
 AtmWgt=  12.0000000   1.0078250  12.0000000  12.0000000   1.0078250  12.0000000  12.0000000   1.0078250   1.0078250   1.0078250
 NucSpn=           0           1           0           0           1           0           0           1           1           1
 AtZEff=  -0.0000000  -0.0000000  -0.0000000  -0.0000000  -0.0000000  -0.0000000  -0.0000000  -0.0000000  -0.0000000  -0.0000000
 NQMom=    0.0000000   0.0000000   0.0000000   0.0000000   0.0000000   0.0000000   0.0000000   0.0000000   0.0000000   0.0000000
 NMagM=    0.0000000   2.7928460   0.0000000   0.0000000   2.7928460   0.0000000   0.0000000   2.7928460   2.7928460   2.7928460
 AtZNuc=   6.0000000   1.0000000   6.0000000   6.0000000   1.0000000   6.0000000   6.0000000   1.0000000   1.0000000   1.0000000

  Atom        61          62          63          64          65          66          67          68          69          70
 IAtWgt=           1           1           1           1           1           1           1           1           1          12
 AtmWgt=   1.0078250   1.0078250   1.0078250   1.0078250   1.0078250   1.0078250   1.0078250   1.0078250   1.0078250  12.0000000
 NucSpn=           1           1           1           1           1           1           1           1           1           0
 AtZEff=  -0.0000000  -0.0000000  -0.0000000  -0.0000000  -0.0000000  -0.0000000  -0.0000000  -0.0000000  -0.0000000  -0.0000000
 NQMom=    0.0000000   0.0000000   0.0000000   0.0000000   0.0000000   0.0000000   0.0000000   0.0000000   0.0000000   0.0000000
 NMagM=    2.7928460   2.7928460   2.7928460   2.7928460   2.7928460   2.7928460   2.7928460   2.7928460   2.7928460   0.0000000
 AtZNuc=   1.0000000   1.0000000   1.0000000   1.0000000   1.0000000   1.0000000   1.0000000   1.0000000   1.0000000   6.0000000

  Atom        71          72          73          74          75          76          77          78          79          80
 IAtWgt=          12          14           1          12          14           1          12           1          12          12
 AtmWgt=  12.0000000  14.0030740   1.0078250  12.0000000  14.0030740   1.0078250  12.0000000   1.0078250  12.0000000  12.0000000
 NucSpn=           0           2           1           0           2           1           0           1           0           0
 AtZEff=  -0.0000000  -0.0000000  -0.0000000  -0.0000000  -0.0000000  -0.0000000  -0.0000000  -0.0000000  -0.0000000  -0.0000000
 NQMom=    0.0000000   2.0440000   0.0000000   0.0000000   2.0440000   0.0000000   0.0000000   0.0000000   0.0000000   0.0000000
 NMagM=    0.0000000   0.4037610   2.7928460   0.0000000   0.4037610   2.7928460   0.0000000   2.7928460   0.0000000   0.0000000
 AtZNuc=   6.0000000   7.0000000   1.0000000   6.0000000   7.0000000   1.0000000   6.0000000   1.0000000   6.0000000   6.0000000

  Atom        81          82          83          84          85          86          87          88          89          90
 IAtWgt=           1          12          12           1           1           1           1           1           1           1
 AtmWgt=   1.0078250  12.0000000  12.0000000   1.0078250   1.0078250   1.0078250   1.0078250   1.0078250   1.0078250   1.0078250
 NucSpn=           1           0           0           1           1           1           1           1           1           1
 AtZEff=  -0.0000000  -0.0000000  -0.0000000  -0.0000000  -0.0000000  -0.0000000  -0.0000000  -0.0000000  -0.0000000  -0.0000000
 NQMom=    0.0000000   0.0000000   0.0000000   0.0000000   0.0000000   0.0000000   0.0000000   0.0000000   0.0000000   0.0000000
 NMagM=    2.7928460   0.0000000   0.0000000   2.7928460   2.7928460   2.7928460   2.7928460   2.7928460   2.7928460   2.7928460
 AtZNuc=   1.0000000   6.0000000   6.0000000   1.0000000   1.0000000   1.0000000   1.0000000   1.0000000   1.0000000   1.0000000

  Atom        91          92          93          94          95          96          97          98          99         100
 IAtWgt=           1           1           1           1           1          12          12          14           1          12
 AtmWgt=   1.0078250   1.0078250   1.0078250   1.0078250   1.0078250  12.0000000  12.0000000  14.0030740   1.0078250  12.0000000
 NucSpn=           1           1           1           1           1           0           0           2           1           0
 AtZEff=  -0.0000000  -0.0000000  -0.0000000  -0.0000000  -0.0000000  -0.0000000  -0.0000000  -0.0000000  -0.0000000  -0.0000000
 NQMom=    0.0000000   0.0000000   0.0000000   0.0000000   0.0000000   0.0000000   0.0000000   2.0440000   0.0000000   0.0000000
 NMagM=    2.7928460   2.7928460   2.7928460   2.7928460   2.7928460   0.0000000   0.0000000   0.4037610   2.7928460   0.0000000
 AtZNuc=   1.0000000   1.0000000   1.0000000   1.0000000   1.0000000   6.0000000   6.0000000   7.0000000   1.0000000   6.0000000

  Atom       101         102         103         104         105         106         107         108         109         110
 IAtWgt=          14           1          12           1          12          12           1          12          12           1
 AtmWgt=  14.0030740   1.0078250  12.0000000   1.0078250  12.0000000  12.0000000   1.0078250  12.0000000  12.0000000   1.0078250
 NucSpn=           2           1           0           1           0           0           1           0           0           1
 AtZEff=  -0.0000000  -0.0000000  -0.0000000  -0.0000000  -0.0000000  -0.0000000  -0.0000000  -0.0000000  -0.0000000  -0.0000000
 NQMom=    2.0440000   0.0000000   0.0000000   0.0000000   0.0000000   0.0000000   0.0000000   0.0000000   0.0000000   0.0000000
 NMagM=    0.4037610   2.7928460   0.0000000   2.7928460   0.0000000   0.0000000   2.7928460   0.0000000   0.0000000   2.7928460
 AtZNuc=   7.0000000   1.0000000   6.0000000   1.0000000   6.0000000   6.0000000   1.0000000   6.0000000   6.0000000   1.0000000

  Atom       111         112         113         114         115         116         117         118         119         120
 IAtWgt=           1           1           1           1           1           1           1           1           1           1
 AtmWgt=   1.0078250   1.0078250   1.0078250   1.0078250   1.0078250   1.0078250   1.0078250   1.0078250   1.0078250   1.0078250
 NucSpn=           1           1           1           1           1           1           1           1           1           1
 AtZEff=  -0.0000000  -0.0000000  -0.0000000  -0.0000000  -0.0000000  -0.0000000  -0.0000000  -0.0000000  -0.0000000  -0.0000000
 NQMom=    0.0000000   0.0000000   0.0000000   0.0000000   0.0000000   0.0000000   0.0000000   0.0000000   0.0000000   0.0000000
 NMagM=    2.7928460   2.7928460   2.7928460   2.7928460   2.7928460   2.7928460   2.7928460   2.7928460   2.7928460   2.7928460
 AtZNuc=   1.0000000   1.0000000   1.0000000   1.0000000   1.0000000   1.0000000   1.0000000   1.0000000   1.0000000   1.0000000

  Atom       121         122         123         124         125         126         127         128         129         130
 IAtWgt=           1          12          12          14           1          12          14           1          12           1
 AtmWgt=   1.0078250  12.0000000  12.0000000  14.0030740   1.0078250  12.0000000  14.0030740   1.0078250  12.0000000   1.0078250
 NucSpn=           1           0           0           2           1           0           2           1           0           1
 AtZEff=  -0.0000000  -0.0000000  -0.0000000  -0.0000000  -0.0000000  -0.0000000  -0.0000000  -0.0000000  -0.0000000  -0.0000000
 NQMom=    0.0000000   0.0000000   0.0000000   2.0440000   0.0000000   0.0000000   2.0440000   0.0000000   0.0000000   0.0000000
 NMagM=    2.7928460   0.0000000   0.0000000   0.4037610   2.7928460   0.0000000   0.4037610   2.7928460   0.0000000   2.7928460
 AtZNuc=   1.0000000   6.0000000   6.0000000   7.0000000   1.0000000   6.0000000   7.0000000   1.0000000   6.0000000   1.0000000

  Atom       131         132         133         134         135         136         137         138         139         140
 IAtWgt=          12          12           1          12          12           1           1           1           1           1
 AtmWgt=  12.0000000  12.0000000   1.0078250  12.0000000  12.0000000   1.0078250   1.0078250   1.0078250   1.0078250   1.0078250
 NucSpn=           0           0           1           0           0           1           1           1           1           1
 AtZEff=  -0.0000000  -0.0000000  -0.0000000  -0.0000000  -0.0000000  -0.0000000  -0.0000000  -0.0000000  -0.0000000  -0.0000000
 NQMom=    0.0000000   0.0000000   0.0000000   0.0000000   0.0000000   0.0000000   0.0000000   0.0000000   0.0000000   0.0000000
 NMagM=    0.0000000   0.0000000   2.7928460   0.0000000   0.0000000   2.7928460   2.7928460   2.7928460   2.7928460   2.7928460
 AtZNuc=   6.0000000   6.0000000   1.0000000   6.0000000   6.0000000   1.0000000   1.0000000   1.0000000   1.0000000   1.0000000

  Atom       141         142         143         144         145         146         147         148         149         150
 IAtWgt=           1           1           1           1           1           1           1          12          12          14
 AtmWgt=   1.0078250   1.0078250   1.0078250   1.0078250   1.0078250   1.0078250   1.0078250  12.0000000  12.0000000  14.0030740
 NucSpn=           1           1           1           1           1           1           1           0           0           2
 AtZEff=  -0.0000000  -0.0000000  -0.0000000  -0.0000000  -0.0000000  -0.0000000  -0.0000000  -0.0000000  -0.0000000  -0.0000000
 NQMom=    0.0000000   0.0000000   0.0000000   0.0000000   0.0000000   0.0000000   0.0000000   0.0000000   0.0000000   2.0440000
 NMagM=    2.7928460   2.7928460   2.7928460   2.7928460   2.7928460   2.7928460   2.7928460   0.0000000   0.0000000   0.4037610
 AtZNuc=   1.0000000   1.0000000   1.0000000   1.0000000   1.0000000   1.0000000   1.0000000   6.0000000   6.0000000   7.0000000

  Atom       151         152         153         154         155         156         157         158         159         160
 IAtWgt=           1          12          14           1          12           1          12          12           1          12
 AtmWgt=   1.0078250  12.0000000  14.0030740   1.0078250  12.0000000   1.0078250  12.0000000  12.0000000   1.0078250  12.0000000
 NucSpn=           1           0           2           1           0           1           0           0           1           0
 AtZEff=  -0.0000000  -0.0000000  -0.0000000  -0.0000000  -0.0000000  -0.0000000  -0.0000000  -0.0000000  -0.0000000  -0.0000000
 NQMom=    0.0000000   0.0000000   2.0440000   0.0000000   0.0000000   0.0000000   0.0000000   0.0000000   0.0000000   0.0000000
 NMagM=    2.7928460   0.0000000   0.4037610   2.7928460   0.0000000   2.7928460   0.0000000   0.0000000   2.7928460   0.0000000
 AtZNuc=   1.0000000   6.0000000   7.0000000   1.0000000   6.0000000   1.0000000   6.0000000   6.0000000   1.0000000   6.0000000

  Atom       161         162         163         164         165         166         167         168         169         170
 IAtWgt=          12           1           1           1           1           1           1           1           1           1
 AtmWgt=  12.0000000   1.0078250   1.0078250   1.0078250   1.0078250   1.0078250   1.0078250   1.0078250   1.0078250   1.0078250
 NucSpn=           0           1           1           1           1           1           1           1           1           1
 AtZEff=  -0.0000000  -0.0000000  -0.0000000  -0.0000000  -0.0000000  -0.0000000  -0.0000000  -0.0000000  -0.0000000  -0.0000000
 NQMom=    0.0000000   0.0000000   0.0000000   0.0000000   0.0000000   0.0000000   0.0000000   0.0000000   0.0000000   0.0000000
 NMagM=    0.0000000   2.7928460   2.7928460   2.7928460   2.7928460   2.7928460   2.7928460   2.7928460   2.7928460   2.7928460
 AtZNuc=   6.0000000   1.0000000   1.0000000   1.0000000   1.0000000   1.0000000   1.0000000   1.0000000   1.0000000   1.0000000

  Atom       171         172         173         174         175         176         177
 IAtWgt=           1           1           1           1           1           1           1
 AtmWgt=   1.0078250   1.0078250   1.0078250   1.0078250   1.0078250   1.0078250   1.0078250
 NucSpn=           1           1           1           1           1           1           1
 AtZEff=  -0.0000000  -0.0000000  -0.0000000  -0.0000000  -0.0000000  -0.0000000  -0.0000000
 NQMom=    0.0000000   0.0000000   0.0000000   0.0000000   0.0000000   0.0000000   0.0000000
 NMagM=    2.7928460   2.7928460   2.7928460   2.7928460   2.7928460   2.7928460   2.7928460
 AtZNuc=   1.0000000   1.0000000   1.0000000   1.0000000   1.0000000   1.0000000   1.0000000
 Leave Link  101 at Mon Nov  1 18:25:30 2021, MaxMem=  7864320000 cpu:               8.1 elap:               0.3
 (Enter /apps/gaussian/g16-c01-avx/g16/l202.exe)
 Stoichiometry    C67H100N10
 Framework group  C1[X(C67H100N10)]
 Deg. of freedom   525
 Full point group                 C1      NOp   1
 Largest Abelian subgroup         C1      NOp   1
 Largest concise Abelian subgroup C1      NOp   1
                         Standard orientation:                         
 ---------------------------------------------------------------------
 Center     Atomic      Atomic             Coordinates (Angstroms)
 Number     Number       Type             X           Y           Z
 ---------------------------------------------------------------------
      1          6           0       -1.202505   -2.021158    2.071857
      2          6           0       -0.877007   -1.403254    3.347430
      3          6           0       -0.253648   -2.684745    1.295562
      4          6           0       -0.606324   -3.229952    0.064508
      5          1           0        0.756093   -2.771744    1.666802
      6          6           0       -1.902556   -3.052784   -0.419674
      7          6           0       -2.857858   -2.390764    0.341498
      8          1           0       -2.143752   -3.453067   -1.392646
      9          6           0       -2.506375   -1.909224    1.600365
     10          6           0       -4.193792   -2.141011   -0.184465
     11          1           0       -3.266961   -1.418388    2.186535
     12          6           0        0.377479   -3.965311   -0.716526
     13          1           0       -4.303106   -2.250992   -1.274809
     14          1           0       -1.748971   -1.058604    3.923558
     15          1           0        1.374591   -4.053992   -0.261399
     16          6           0        2.594661    0.141657    0.055879
     17          6           0        3.058982   -0.159885    1.464193
     18          6           0        2.396516    1.444256   -0.373200
     19          6           0        1.926482    1.707466   -1.659576
     20          1           0        2.620220    2.258922    0.300091
     21          6           0        1.638783    0.646000   -2.513534
     22          6           0        1.856262   -0.662144   -2.099495
     23          1           0        1.262374    0.865272   -3.500935
     24          6           0        2.336410   -0.903659   -0.813461
     25          6           0        1.552545   -1.786609   -2.973607
     26          1           0        2.508545   -1.919503   -0.501933
     27          6           0        1.714525    3.084636   -2.072856
     28          1           0        0.843161   -1.584706   -3.792306
     29          1           0        1.969355    3.847734   -1.320565
     30          6           0       -1.214167    2.071543    1.619436
     31          6           0       -0.123142    1.812944    2.549998
     32          6           0       -2.484014    1.555148    1.871167
     33          6           0       -3.488019    1.632529    0.912779
     34          1           0       -2.654975    1.058695    2.813529
     35          6           0       -3.226317    2.273616   -0.296968
     36          6           0       -1.987583    2.858348   -0.532838
     37          1           0       -4.008734    2.310247   -1.039641
     38          6           0       -0.980817    2.742916    0.424579
     39          6           0       -1.724129    3.529867   -1.799960
     40          1           0       -0.014252    3.169299    0.208875
     41          6           0       -4.758141    0.965118    1.153549
     42          1           0       -2.374618    3.233257   -2.638319
     43          1           0       -4.897435    0.569059    2.170884
     44          6           0        0.771260    0.991052    4.547592
     45          6           0        0.461330   -0.468190    4.983136
     46          7           0       -0.329222    1.381609    3.716803
     47          1           0        1.712500    0.995483    3.972861
     48          6           0        0.923202    1.976927    5.723848
     49          7           0        0.298934   -1.222886    3.769406
     50          1           0       -0.489395   -0.431625    5.541366
     51          6           0        1.527170   -1.129590    5.872319
     52          1           0        1.720717    1.603722    6.374920
     53          6           0       -0.363422    2.113809    6.532564
     54          6           0        1.352786    3.341099    5.183398
     55          1           0        1.643807   -0.525392    6.777798
     56          6           0        2.874316   -1.245751    5.167464
     57          6           0        1.032205   -2.516483    6.283922
     58          1           0        0.571012    3.760812    4.554100
     59          1           0        2.261682    3.255067    4.590635
     60          1           0        1.541709    4.028888    6.004617
     61          1           0       -0.594242    1.194189    7.063787
     62          1           0       -1.189903    2.352479    5.868644
     63          1           0       -0.258759    2.910950    7.265477
     64          1           0        0.078061   -2.446855    6.802153
     65          1           0        1.749119   -2.995118    6.947265
     66          1           0        0.900092   -3.140154    5.402646
     67          1           0        3.561846   -1.841776    5.764695
     68          1           0        3.319916   -0.265615    5.017376
     69          1           0        2.731823   -1.729086    4.204544
     70          6           0        5.112544    0.874418    1.525334
     71          6           0        5.321563   -0.646613    1.214291
     72          7           0        3.747947    0.992891    2.031787
     73          1           0        5.137649    1.418954    0.573125
     74          6           0        6.164337    1.491602    2.456744
     75          7           0        4.016175   -1.264238    1.447620
     76          1           0        6.068520   -1.083660    1.885803
     77          6           0        5.783659   -0.901680   -0.230477
     78          1           0        7.144212    1.237791    2.038275
     79          6           0        6.108395    0.954594    3.888576
     80          6           0        6.018599    3.012844    2.468150
     81          1           0        5.056812   -0.441611   -0.907008
     82          6           0        5.814730   -2.402915   -0.506935
     83          6           0        7.161826   -0.297176   -0.485635
     84          1           0        6.747009    3.460978    3.140325
     85          1           0        5.020445    3.290300    2.798778
     86          1           0        6.172855    3.419793    1.471587
     87          1           0        5.259297    1.367901    4.430944
     88          1           0        7.009191    1.245788    4.424204
     89          1           0        6.042525   -0.131379    3.907861
     90          1           0        7.892818   -0.713031    0.205990
     91          1           0        7.151644    0.783548   -0.369748
     92          1           0        7.484384   -0.525234   -1.498948
     93          1           0        6.543908   -2.893128    0.135689
     94          1           0        6.087491   -2.589601   -1.542838
     95          1           0        4.837052   -2.834517   -0.318049
     96          6           0        1.149302   -5.107406   -2.586562
     97          6           0        1.673686   -4.040127   -3.586796
     98          7           0        0.102968   -4.474263   -1.837694
     99          1           0        1.994317   -5.367504   -1.927458
    100          6           0        0.606903   -6.388382   -3.241937
    101          7           0        2.062512   -2.922046   -2.782906
    102          1           0        0.849400   -3.769590   -4.269616
    103          6           0        2.873337   -4.517477   -4.430144
    104          1           0        1.416006   -6.850612   -3.816463
    105          6           0       -0.571834   -6.103208   -4.168062
    106          6           0        0.184955   -7.362335   -2.141405
    107          1           0        2.563900   -5.410760   -4.981967
    108          6           0        4.086220   -4.849756   -3.565467
    109          6           0        3.236011   -3.434349   -5.446448
    110          1           0       -0.619826   -6.928548   -1.552363
    111          1           0        1.019660   -7.579396   -1.477687
    112          1           0       -0.162910   -8.297749   -2.573891
    113          1           0       -0.253485   -5.562218   -5.055406
    114          1           0       -1.311774   -5.508686   -3.640095
    115          1           0       -1.030983   -7.036457   -4.486951
    116          1           0        4.038147   -3.779565   -6.094865
    117          1           0        3.567924   -2.533713   -4.934341
    118          1           0        2.378150   -3.182961   -6.067343
    119          1           0        4.955129   -5.027111   -4.195866
    120          1           0        3.913624   -5.742681   -2.970593
    121          1           0        4.297088   -4.018885   -2.898028
    122          6           0       -6.416641   -1.439824   -0.006703
    123          6           0       -6.761687   -0.022737    0.532302
    124          7           0       -5.146015   -1.783317    0.558677
    125          1           0       -6.353227   -1.385383   -1.106653
    126          6           0       -7.461875   -2.511679    0.367816
    127          7           0       -5.620977    0.799515    0.248793
    128          1           0       -6.907557   -0.119773    1.621480
    129          6           0       -8.019434    0.607048   -0.089013
    130          1           0       -8.439099   -2.162532    0.019368
    131          6           0       -7.523561   -2.758718    1.872691
    132          6           0       -7.135585   -3.814387   -0.362473
    133          1           0       -8.871532   -0.050053    0.113632
    134          6           0       -7.879305    0.801957   -1.596175
    135          6           0       -8.279821    1.951567    0.590687
    136          1           0       -7.098976   -3.656787   -1.438649
    137          1           0       -7.895476   -4.563704   -0.152428
    138          1           0       -6.171959   -4.200092   -0.035991
    139          1           0       -7.911208   -1.890937    2.399417
    140          1           0       -6.529011   -2.981828    2.249732
    141          1           0       -8.178041   -3.601745    2.083653
    142          1           0       -8.391294    1.825666    1.665864
    143          1           0       -9.188711    2.405038    0.201912
    144          1           0       -7.446431    2.625965    0.407329
    145          1           0       -6.943902    1.310830   -1.810444
    146          1           0       -8.703621    1.403584   -1.972762
    147          1           0       -7.889892   -0.150271   -2.120059
    148          6           0        0.972261    4.776717   -3.474529
    149          6           0       -0.544095    4.974473   -3.202856
    150          7           0        1.257577    3.396611   -3.206599
    151          1           0        1.514468    5.427740   -2.767668
    152          6           0        1.408162    5.123047   -4.908499
    153          7           0       -0.808493    4.384435   -1.924315
    154          1           0       -1.109195    4.456177   -3.996056
    155          6           0       -0.975609    6.456522   -3.189019
    156          1           0        1.122521    6.159500   -5.117024
    157          6           0        0.762785    4.204673   -5.942616
    158          6           0        2.930859    5.017530   -4.996192
    159          1           0       -0.625403    6.916167   -4.118764
    160          6           0       -0.391412    7.218417   -2.002252
    161          6           0       -2.501623    6.540810   -3.161722
    162          1           0        3.242339    3.996931   -4.785792
    163          1           0        3.406222    5.679373   -4.274749
    164          1           0        3.275202    5.290154   -5.991173
    165          1           0        1.215937    4.365137   -6.918477
    166          1           0       -0.303507    4.395857   -6.030845
    167          1           0        0.911058    3.169458   -5.649426
    168          1           0       -2.934170    6.019037   -4.013187
    169          1           0       -2.822085    7.579572   -3.198887
    170          1           0       -2.888505    6.093900   -2.248088
    171          1           0       -0.638118    6.704572   -1.076998
    172          1           0       -0.803150    8.224810   -1.968709
    173          1           0        0.689573    7.298705   -2.078276
    174          1           0        0.888598    1.961833    2.146011
    175          1           0        4.005448   -1.746237    2.339873
    176          1           0        2.176340   -0.424127    2.061010
    177          1           0        3.758327    0.906209    3.043817
 ---------------------------------------------------------------------
 Rotational constants (GHZ):           0.0250422           0.0210003           0.0198461
 Leave Link  202 at Mon Nov  1 18:25:31 2021, MaxMem=  7864320000 cpu:               0.2 elap:               0.0
 (Enter /apps/gaussian/g16-c01-avx/g16/l301.exe)
 Standard basis: Aug-CC-pVDZ (5D, 7F)
 Ernie: Thresh=  0.10000D-02 Tol=  0.10000D-05 Strict=F.
 Ernie:  154 primitive shells out of 2625 were deleted.
 There are  2825 symmetry adapted cartesian basis functions of A   symmetry.
 There are  2671 symmetry adapted basis functions of A   symmetry.
  2671 basis functions,  4411 primitive gaussians,  2825 cartesian basis functions
   286 alpha electrons      286 beta electrons
       nuclear repulsion energy     14221.5290992844 Hartrees.
 IExCor=    0 DFT=F Ex=HF Corr=None ExCW=0 ScaHFX=  1.000000
 ScaDFX=  1.000000  1.000000  1.000000  1.000000 ScalE2=  1.000000  1.000000
 IRadAn=      7 IRanWt=     -1 IRanGd=            0 ICorTp=0 IEmpDi=  4
 NAtoms=  177 NActive=  177 NUniq=  177 SFac= 1.00D+00 NAtFMM=   60 NAOKFM=T Big=T
 Integral buffers will be    131072 words long.
 Raffenetti 1 integral format.
 Two-electron integral symmetry is turned on.
 ------------------------------------------------------------------------------
 Polarizable Continuum Model (PCM)
 =================================
 Model                : PCM.
 Atomic radii         : UFF (Universal Force Field).
 Polarization charges : Total charges.
 Charge compensation  : None.
 Solution method      : On-the-fly selection.
 Cavity type          : Scaled VdW (van der Waals Surface) (Alpha=1.100).
 Cavity algorithm     : GePol (No added spheres)
                        Default sphere list used, NSphG=  177.
                        Lebedev-Laikov grids with approx.  5.0 points / Ang**2.
                        Smoothing algorithm: York/Karplus (Gamma=1.0000).
                        Polarization charges: spherical gaussians, with
                                              point-specific exponents (IZeta= 3).
                        Self-potential: point-specific (ISelfS= 7).
                        Self-field    : sphere-specific E.n sum rule (ISelfD= 2).
 Solvent              : Chloroform, Eps=   4.711300 Eps(inf)=   2.090627
 ------------------------------------------------------------------------------
 GePol: Number of generator spheres                  =     177
 GePol: Total number of spheres                      =     177
 GePol: Number of exposed spheres                    =     177 (100.00%)
 GePol: Number of points                             =    9476
 GePol: Average weight of points                     =       0.13
 GePol: Minimum weight of points                     =   0.26D-09
 GePol: Maximum weight of points                     =    0.20577
 GePol: Number of points with low weight             =     754
 GePol: Fraction of low-weight points (<1% of avg)   =       7.96%
 GePol: Cavity surface area                          =   1201.490 Ang**2
 GePol: Cavity volume                                =   1563.672 Ang**3
 Leave Link  301 at Mon Nov  1 18:25:31 2021, MaxMem=  7864320000 cpu:              17.6 elap:               0.6
 (Enter /apps/gaussian/g16-c01-avx/g16/l302.exe)
 NPDir=0 NMtPBC=     1 NCelOv=     1 NCel=       1 NClECP=     1 NCelD=      1
         NCelK=      1 NCelE2=     1 NClLst=     1 CellRange=     0.0.
 One-electron integrals computed using PRISM.
 One-electron integral symmetry used in STVInt
 NBasis=  2671 RedAO= T EigKep=  1.03D-06  NBF=  2671
 NBsUse=  2627 1.00D-06 EigRej=  9.88D-07 NBFU=  2627
 Leave Link  302 at Mon Nov  1 18:26:01 2021, MaxMem=  7864320000 cpu:             939.8 elap:              29.6
 (Enter /apps/gaussian/g16-c01-avx/g16/l303.exe)
 DipDrv:  MaxL=1.
 Leave Link  303 at Mon Nov  1 18:26:03 2021, MaxMem=  7864320000 cpu:              49.5 elap:               2.2
 (Enter /apps/gaussian/g16-c01-avx/g16/l401.exe)
 ExpMin= 2.97D-02 ExpMax= 9.05D+03 ExpMxC= 3.09D+02 IAcc=3 IRadAn=         7 AccDes= 0.00D+00
 Harris functional with IExCor=  205 and IRadAn=       7 diagonalized for initial guess.
 HarFok:  IExCor=  205 AccDes= 0.00D+00 IRadAn=         7 IDoV= 1 UseB2=F ITyADJ=14
 ICtDFT=  3500011 ScaDFX=  1.000000  1.000000  1.000000  1.000000
 FoFCou: FMM=F IPFlag=           0 FMFlag=      100000 FMFlg1=        2001
         NFxFlg=           0 DoJE=T BraDBF=F KetDBF=T FulRan=T
         wScrn=  0.000000 ICntrl=       500 IOpCl=  0 I1Cent=   200000004 NGrid=           0
         NMat0=    1 NMatS0=      1 NMatT0=    0 NMatD0=    1 NMtDS0=    0 NMtDT0=    0
 Petite list used in FoFCou.
 Harris En= -3145.72090919257    
 JPrj=0 DoOrth=F DoCkMO=F.
 Leave Link  401 at Mon Nov  1 18:27:31 2021, MaxMem=  7864320000 cpu:            2802.7 elap:              88.1
 (Enter /apps/gaussian/g16-c01-avx/g16/l508.exe)
 Integral symmetry usage will be decided dynamically.
 Tight linear equation convergence will be used.
 RHF wavefunction.
 Linear searches until partial convergence.
 Full line searches.
 Fock matrices will be formed incrementally for  20 cycles.
 Inv3:  Mode=1 IEnd=   269383728.
 Iteration    1 A*A^-1 deviation from unit magnitude is 1.32D-14 for   9473.
 Iteration    1 A*A^-1 deviation from orthogonality  is 3.36D-15 for   6359   5594.
 Iteration    1 A^-1*A deviation from unit magnitude is 1.32D-14 for   9473.
 Iteration    1 A^-1*A deviation from orthogonality  is 3.05D-14 for   6793   6765.
 FoFJK:  IHMeth= 1 ICntrl=       0 DoSepK=F KAlg= 0 I1Cent=           0 FoldK=F
 IRaf= 910000000 NMat=       1 IRICut=       1 DoRegI=T DoRafI=F ISym2E= 1 IDoP0=0 IntGTp=1.
 Iteration   1 EE= -3136.74051089645                                    Grad=2.868D+00 Max rot=    1.9203 deg.
 Gradient too large for Newton-Raphson -- use scaled steepest descent instead.
 Alpha Gap=     0.439 HL deriv= 3.65D-03
     ILin= 1 X=0.000D+00 Y=-3.136740510896D+03 DE= 0.00D+00 F= -1.07D+01
 RMSU=  6.69D-03    CP:  7.70D-01
     ILin= 2 X=3.000D-01 Y=-3.139140217633D+03 DE=-2.40D+00 F= -5.29D+00 OKLS=F
 RMSU=  1.55D-03    CP:  6.50D-01  1.55D+00
     ILin= 3 X=5.000D-01 Y=-3.139835552330D+03 DE=-3.10D+00 F= -1.66D+00
 RMSU=  3.69D-03    CP:  4.93D-01  2.38D+00  3.00D+00
     ILin= 4 X=9.000D-01 Y=-3.139061305373D+03 DE=-2.32D+00 F=  5.50D+00
     An  expanding polynomial of degree  4 produced  0.5926
 RMSU=  4.12D-06    CP:  6.04D-01  1.78D+00  1.73D+00  1.58D-05
 Iteration   2 EE= -3139.91205390973     Delta-E=       -3.171543013275 Grad=9.321D-01 Max rot=    0.9792 deg.
 Gradient too large for Newton-Raphson -- use scaled steepest descent instead.
 Alpha Gap=     0.464 HL deriv= 2.94D-03
     ILin= 1 X=0.000D+00 Y=-3.139912053910D+03 DE= 0.00D+00 F= -4.72D-01
 RMSU=  1.63D-03    CP:  5.44D-01  1.97D+00  2.83D+00  2.53D-03  3.00D+00
     ILin= 2 X=4.000D-01 Y=-3.140057371131D+03 DE=-1.45D-01 F= -2.54D-01 OKLS=F
 RMSU=  3.07D-04    CP:  4.96D-01  2.13D+00  3.00D+00  5.10D-01  3.00D+00
                    CP:  1.91D+00
     ILin= 3 X=8.000D-01 Y=-3.140115564707D+03 DE=-2.04D-01 F= -3.68D-02
 RMSU=  1.61D-03    CP:  4.31D-01  2.36D+00  3.00D+00  2.22D+00  3.00D+00
                    CP:  3.00D+00  3.00D+00
     ILin= 4 X=1.700D+00 Y=-3.139929284467D+03 DE=-1.72D-02 F=  4.50D-01
     An  expanding polynomial of degree  4 produced  0.8678
     Minimum is close to point  3 DX=  6.78D-02 DF= -1.25D-03 DXR=  7.81D-02 DFR=  6.13D-03 which will be used.
 Iteration   3 EE= -3140.11556470733     Delta-E=       -0.203510797604 Grad=2.560D-01 Max rot=    0.2550 deg.
 Gradient too large for Newton-Raphson -- use scaled steepest descent instead.
 Alpha Gap=     0.451 HL deriv= 9.00D-04
     ILin= 1 X=0.000D+00 Y=-3.140115564707D+03 DE= 0.00D+00 F= -5.83D-02
 RMSU=  7.94D-04    CP:  4.72D-01  2.12D+00  3.00D+00  7.26D-01  3.00D+00
                    CP:  2.11D+00  2.11D+00 -1.67D-03
     ILin= 2 X=7.000D-01 Y=-3.140138101878D+03 DE=-2.25D-02 F= -6.07D-03 OKLS=T
     Reject lnstep IMin12=  1  2 Big=T Turn=F Min= 1.333D+00 FVal=-3.140142237118D+03 Lims=  0.00D+00  7.00D-01
 RMSU=  1.05D-04    CP:  4.50D-01  2.11D+00  3.00D+00  9.59D-01  3.00D+00
                    CP:  2.30D+00  3.00D+00  4.42D-02  1.97D+00
     ILin= 3 X=1.400D+00 Y=-3.140124051723D+03 DE=-8.49D-03 F=  4.62D-02
     An  expanding polynomial of degree  3 produced  0.7812
 RMSU=  3.39D-06    CP:  4.69D-01  2.12D+00  3.00D+00  7.52D-01  3.00D+00
                    CP:  2.14D+00  2.25D+00 -1.84D-03  1.11D+00  3.75D-02
 Iteration   4 EE= -3140.13834824561     Delta-E=       -0.022783538276 Grad=9.421D-02 Max rot=    0.2097 deg.
 Gradient too large for Newton-Raphson -- use scaled steepest descent instead.
 Alpha Gap=     0.461 HL deriv= 5.93D-04
     ILin= 1 X=0.000D+00 Y=-3.140138348246D+03 DE= 0.00D+00 F= -1.08D-02
 RMSU=  2.99D-04    CP:  4.59D-01  2.09D+00  3.00D+00  7.75D-01  3.00D+00
                    CP:  2.30D+00  2.68D+00 -1.15D-03  1.39D+00  8.71D-01
                    CP:  3.00D+00
     ILin= 2 X=8.000D-01 Y=-3.140142248719D+03 DE=-3.90D-03 F=  1.06D-03 OKLS=T
     Accept linear search using points  1 and  2.
     An  expanding polynomial of degree  2 produced  0.6818
 RMSU=  1.53D-06    CP:  4.60D-01  2.09D+00  3.00D+00  7.71D-01  3.00D+00
                    CP:  2.27D+00  2.61D+00 -1.26D-03  1.35D+00  7.46D-01
                    CP:  3.00D+00  8.52D-01
 Iteration   5 EE= -3140.14227039308     Delta-E=       -0.003922147476 Grad=3.778D-02 Max rot=    0.0801 deg.
 Gradient too large for Newton-Raphson -- use scaled steepest descent instead.
 Alpha Gap=     0.459 HL deriv= 2.62D-04
     ILin= 1 X=0.000D+00 Y=-3.140142270393D+03 DE= 0.00D+00 F= -2.01D-03
 RMSU=  6.60D-05    CP:  4.57D-01  2.08D+00  3.00D+00  7.80D-01  3.00D+00
                    CP:  2.31D+00  2.84D+00 -1.25D-03  1.58D+00  9.50D-01
                    CP:  3.00D+00  1.02D+00 -2.27D+00
     ILin= 2 X=7.000D-01 Y=-3.140143119265D+03 DE=-8.49D-04 F= -4.14D-04 OKLS=T
     Reject lnstep IMin12=  1  2 Big=T Turn=F Min= 1.250D+00 FVal=-3.140143372110D+03 Lims=  0.00D+00  7.00D-01
 RMSU=  8.40D-06    CP:  4.53D-01  2.06D+00  3.00D+00  7.91D-01  3.00D+00
                    CP:  2.35D+00  3.00D+00  1.13D-02  1.85D+00  1.32D+00
                    CP:  3.00D+00  1.20D+00 -6.64D-01  2.12D+00
     ILin= 3 X=1.500D+00 Y=-3.140142720145D+03 DE=-4.50D-04 F=  1.41D-03
     An  expanding polynomial of degree  3 produced  0.8814
 RMSU=  5.95D-07    CP:  4.56D-01  2.08D+00  3.00D+00  7.83D-01  3.00D+00
                    CP:  2.32D+00  2.89D+00 -1.25D-03  1.65D+00  1.01D+00
                    CP:  3.00D+00  1.06D+00 -3.00D+00  1.26D+00  1.12D-02
 Iteration   6 EE= -3140.14315684302     Delta-E=       -0.000886449936 Grad=1.897D-02 Max rot=    0.0732 deg.
 Gradient too large for Newton-Raphson -- use scaled steepest descent instead.
 Alpha Gap=     0.460 HL deriv= 7.97D-05
     ILin= 1 X=0.000D+00 Y=-3.140143156843D+03 DE= 0.00D+00 F= -6.86D-04
 RMSU=  2.87D-05    CP:  4.55D-01  2.07D+00  3.00D+00  7.75D-01  3.00D+00
                    CP:  2.33D+00  2.96D+00 -1.12D-03  1.70D+00  1.18D+00
                    CP:  3.00D+00  1.34D+00 -1.31D+00  1.45D+00  1.84D-01
                    CP: -8.42D-01
     ILin= 2 X=8.000D-01 Y=-3.140143358776D+03 DE=-2.02D-04 F=  1.81D-04 OKLS=T
     Accept linear search using points  1 and  2.
     An  expanding polynomial of degree  2 produced  0.5785
 RMSU=  7.35D-08    CP:  4.55D-01  2.07D+00  3.00D+00  7.77D-01  3.00D+00
                    CP:  2.33D+00  2.94D+00 -1.16D-03  1.69D+00  1.13D+00
                    CP:  3.00D+00  1.26D+00 -1.84D+00  1.40D+00  1.30D-01
                    CP: -5.58D-01  7.23D-01
 Iteration   7 EE= -3140.14337226893     Delta-E=       -0.000215425905 Grad=7.877D-03 Max rot=    0.0257 deg.
 SCF Done:  E(RHF) =  -3140.14337227     a.u. after    7 cycles
            Convg  =    0.7877D-02                    18 Fock formations.
              S**2 =  0.0000                  -V/T =  2.0001
 Leave Link  508 at Tue Nov  2 02:45:14 2021, MaxMem=  7864320000 cpu:          948166.2 elap:           29862.2
 (Enter /apps/gaussian/g16-c01-avx/g16/l502.exe)
 Integral symmetry usage will be decided dynamically.
 Closed shell SCF:
 Using DIIS extrapolation, IDIIS=  1040.
 NGot=  7864320000 LenX=  7848237812 LenY=  7840254362
 Requested convergence on RMS density matrix=1.00D-08 within 128 cycles.
 Requested convergence on MAX density matrix=1.00D-06.
 Requested convergence on             energy=1.00D-06.
 No special actions if energy rises.
 Fock matrices will be formed incrementally for  20 cycles.

 Cycle   1  Pass 1  IDiag  1:
 FoFJK:  IHMeth= 1 ICntrl=       0 DoSepK=F KAlg= 0 I1Cent=           0 FoldK=F
 IRaf= 910000000 NMat=       1 IRICut=       1 DoRegI=T DoRafI=F ISym2E= 0 IDoP0=0 IntGTp=1.
 FoFCou: FMM=T IPFlag=           0 FMFlag=      100000 FMFlg1=        2001
         NFxFlg=           0 DoJE=F BraDBF=F KetDBF=F FulRan=T
         wScrn=  0.000000 ICntrl=         0 IOpCl=  0 I1Cent=           0 NGrid=           0
         NMat0=    1 NMatS0=      1 NMatT0=    0 NMatD0=    1 NMtDS0=    0 NMtDT0=    0
 Symmetry not used in FoFCou.
 FMM levels:  10  Number of levels for PrismC:   9
 E= -3140.14337219854    
 DIIS: error= 3.98D-05 at cycle   1 NSaved=   1.
 NSaved= 1 IEnMin= 1 EnMin= -3140.14337219854     IErMin= 1 ErrMin= 3.98D-05
 ErrMax= 3.98D-05  0.00D+00 EMaxC= 1.00D-01 BMatC= 3.10D-05 BMatP= 3.10D-05
 IDIUse=1 WtCom= 1.00D+00 WtEn= 0.00D+00
 Coeff-Com:  0.100D+01
 Coeff:      0.100D+01
 Gap=     0.460 Goal=   None    Shift=    0.000
 RMSDP=1.14D-04 MaxDP=2.26D-02              OVMax= 2.10D-03

 Cycle   2  Pass 1  IDiag  1:
 RMSU=  9.41D-05    CP:  9.98D-01
 E= -3140.14344845723     Delta-E=       -0.000076258688 Rises=F Damp=F
 DIIS: error= 1.77D-05 at cycle   2 NSaved=   2.
 NSaved= 2 IEnMin= 2 EnMin= -3140.14344845723     IErMin= 2 ErrMin= 1.77D-05
 ErrMax= 1.77D-05  0.00D+00 EMaxC= 1.00D-01 BMatC= 6.90D-06 BMatP= 3.10D-05
 IDIUse=1 WtCom= 1.00D+00 WtEn= 0.00D+00
 Coeff-Com:  0.114D+00 0.886D+00
 Coeff:      0.114D+00 0.886D+00
 Gap=     0.338 Goal=   None    Shift=    0.000
 RMSDP=2.99D-05 MaxDP=7.60D-03 DE=-7.63D-05 OVMax= 7.77D-04

 Cycle   3  Pass 1  IDiag  1:
 RMSU=  1.52D-05    CP:  9.97D-01  1.18D+00
 E= -3140.14346231479     Delta-E=       -0.000013857552 Rises=F Damp=F
 DIIS: error= 9.61D-06 at cycle   3 NSaved=   3.
 NSaved= 3 IEnMin= 3 EnMin= -3140.14346231479     IErMin= 3 ErrMin= 9.61D-06
 ErrMax= 9.61D-06  0.00D+00 EMaxC= 1.00D-01 BMatC= 2.71D-06 BMatP= 6.90D-06
 IDIUse=1 WtCom= 1.00D+00 WtEn= 0.00D+00
 Coeff-Com: -0.232D+00 0.297D+00 0.934D+00
 Coeff:     -0.232D+00 0.297D+00 0.934D+00
 Gap=     0.338 Goal=   None    Shift=    0.000
 RMSDP=1.36D-05 MaxDP=2.54D-03 DE=-1.39D-05 OVMax= 7.56D-04

 Cycle   4  Pass 1  IDiag  1:
 RMSU=  8.56D-06    CP:  9.97D-01  1.29D+00  1.11D+00
 E= -3140.14346847192     Delta-E=       -0.000006157135 Rises=F Damp=F
 DIIS: error= 3.97D-06 at cycle   4 NSaved=   4.
 NSaved= 4 IEnMin= 4 EnMin= -3140.14346847192     IErMin= 4 ErrMin= 3.97D-06
 ErrMax= 3.97D-06  0.00D+00 EMaxC= 1.00D-01 BMatC= 1.81D-07 BMatP= 2.71D-06
 IDIUse=1 WtCom= 1.00D+00 WtEn= 0.00D+00
 Coeff-Com:  0.111D+00-0.203D+00-0.505D+00 0.160D+01
 Coeff:      0.111D+00-0.203D+00-0.505D+00 0.160D+01
 Gap=     0.338 Goal=   None    Shift=    0.000
 RMSDP=5.93D-06 MaxDP=8.42D-04 DE=-6.16D-06 OVMax= 4.97D-04

 Cycle   5  Pass 1  IDiag  1:
 RMSU=  3.90D-06    CP:  9.97D-01  1.28D+00  1.25D+00  1.42D+00
 E= -3140.14346972893     Delta-E=       -0.000001257007 Rises=F Damp=F
 DIIS: error= 1.78D-06 at cycle   5 NSaved=   5.
 NSaved= 5 IEnMin= 5 EnMin= -3140.14346972893     IErMin= 5 ErrMin= 1.78D-06
 ErrMax= 1.78D-06  0.00D+00 EMaxC= 1.00D-01 BMatC= 4.46D-08 BMatP= 1.81D-07
 IDIUse=1 WtCom= 1.00D+00 WtEn= 0.00D+00
 Coeff-Com:  0.393D-01-0.438D-01-0.174D+00 0.215D-01 0.116D+01
 Coeff:      0.393D-01-0.438D-01-0.174D+00 0.215D-01 0.116D+01
 Gap=     0.338 Goal=   None    Shift=    0.000
 RMSDP=2.87D-06 MaxDP=3.55D-04 DE=-1.26D-06 OVMax= 2.18D-04

 Cycle   6  Pass 1  IDiag  1:
 RMSU=  1.74D-06    CP:  9.97D-01  1.27D+00  1.24D+00  1.60D+00  1.37D+00
 E= -3140.14346997879     Delta-E=       -0.000000249860 Rises=F Damp=F
 DIIS: error= 8.31D-07 at cycle   6 NSaved=   6.
 NSaved= 6 IEnMin= 6 EnMin= -3140.14346997879     IErMin= 6 ErrMin= 8.31D-07
 ErrMax= 8.31D-07  0.00D+00 EMaxC= 1.00D-01 BMatC= 8.36D-09 BMatP= 4.46D-08
 IDIUse=1 WtCom= 1.00D+00 WtEn= 0.00D+00
 Coeff-Com: -0.288D-01 0.612D-01 0.127D+00-0.496D+00 0.110D+00 0.123D+01
 Coeff:     -0.288D-01 0.612D-01 0.127D+00-0.496D+00 0.110D+00 0.123D+01
 Gap=     0.338 Goal=   None    Shift=    0.000
 RMSDP=1.46D-06 MaxDP=1.46D-04 DE=-2.50D-07 OVMax= 1.42D-04

 Cycle   7  Pass 1  IDiag  1:
 RMSU=  6.42D-07    CP:  9.97D-01  1.28D+00  1.24D+00  1.65D+00  1.62D+00
                    CP:  1.36D+00
 E= -3140.14347003481     Delta-E=       -0.000000056021 Rises=F Damp=F
 DIIS: error= 1.56D-07 at cycle   7 NSaved=   7.
 NSaved= 7 IEnMin= 7 EnMin= -3140.14347003481     IErMin= 7 ErrMin= 1.56D-07
 ErrMax= 1.56D-07  0.00D+00 EMaxC= 1.00D-01 BMatC= 7.46D-10 BMatP= 8.36D-09
 IDIUse=1 WtCom= 1.00D+00 WtEn= 0.00D+00
 Coeff-Com: -0.560D-02 0.992D-02 0.223D-01-0.426D-01-0.950D-01 0.166D+00
 Coeff-Com:  0.945D+00
 Coeff:     -0.560D-02 0.992D-02 0.223D-01-0.426D-01-0.950D-01 0.166D+00
 Coeff:      0.945D+00
 Gap=     0.338 Goal=   None    Shift=    0.000
 RMSDP=3.40D-07 MaxDP=2.95D-05 DE=-5.60D-08 OVMax= 2.08D-05

 Cycle   8  Pass 1  IDiag  1:
 RMSU=  2.18D-07    CP:  9.97D-01  1.28D+00  1.24D+00  1.67D+00  1.62D+00
                    CP:  1.46D+00  1.21D+00
 E= -3140.14347003436     Delta-E=        0.000000000447 Rises=F Damp=F
 DIIS: error= 7.91D-08 at cycle   8 NSaved=   8.
 NSaved= 8 IEnMin= 7 EnMin= -3140.14347003481     IErMin= 8 ErrMin= 7.91D-08
 ErrMax= 7.91D-08  0.00D+00 EMaxC= 1.00D-01 BMatC= 1.97D-10 BMatP= 7.46D-10
 IDIUse=1 WtCom= 1.00D+00 WtEn= 0.00D+00
 Coeff-Com:  0.464D-02-0.982D-02-0.230D-01 0.954D-01-0.609D-01-0.206D+00
 Coeff-Com:  0.248D+00 0.952D+00
 Coeff:      0.464D-02-0.982D-02-0.230D-01 0.954D-01-0.609D-01-0.206D+00
 Coeff:      0.248D+00 0.952D+00
 Gap=     0.338 Goal=   None    Shift=    0.000
 RMSDP=3.50D-07 MaxDP=2.33D-05 DE= 4.47D-10 OVMax= 1.04D-05

 Cycle   9  Pass 1  IDiag  1:
 RMSU=  1.98D-07    CP:  9.97D-01  1.28D+00  1.24D+00  1.68D+00  1.60D+00
                    CP:  1.56D+00  1.41D+00  1.77D+00
 E= -3140.14347003489     Delta-E=       -0.000000000526 Rises=F Damp=F
 DIIS: error= 2.96D-08 at cycle   9 NSaved=   9.
 NSaved= 9 IEnMin= 9 EnMin= -3140.14347003489     IErMin= 9 ErrMin= 2.96D-08
 ErrMax= 2.96D-08  0.00D+00 EMaxC= 1.00D-01 BMatC= 2.52D-11 BMatP= 1.97D-10
 IDIUse=1 WtCom= 1.00D+00 WtEn= 0.00D+00
 Coeff-Com:  0.257D-03 0.106D-03-0.169D-02-0.223D-02 0.129D-01 0.430D-02
 Coeff-Com: -0.131D+00-0.106D+00 0.122D+01
 Coeff:      0.257D-03 0.106D-03-0.169D-02-0.223D-02 0.129D-01 0.430D-02
 Coeff:     -0.131D+00-0.106D+00 0.122D+01
 Gap=     0.338 Goal=   None    Shift=    0.000
 RMSDP=4.97D-07 MaxDP=4.54D-05 DE=-5.26D-10 OVMax= 3.73D-06

 Cycle  10  Pass 1  IDiag  1:
 RMSU=  1.41D-07    CP:  9.97D-01  1.28D+00  1.23D+00  1.68D+00  1.58D+00
                    CP:  1.65D+00  1.57D+00  3.00D+00  2.56D+00
 E= -3140.14347003176     Delta-E=        0.000000003129 Rises=F Damp=F
 DIIS: error= 4.52D-08 at cycle  10 NSaved=  10.
 NSaved=10 IEnMin= 9 EnMin= -3140.14347003489     IErMin= 9 ErrMin= 2.96D-08
 ErrMax= 4.52D-08  0.00D+00 EMaxC= 1.00D-01 BMatC= 6.42D-12 BMatP= 2.52D-11
 IDIUse=1 WtCom= 1.00D+00 WtEn= 0.00D+00
 Coeff-Com: -0.971D-03 0.226D-02 0.447D-02-0.198D-01 0.135D-01 0.464D-01
 Coeff-Com: -0.610D-01-0.216D+00 0.695D-01 0.116D+01
 Coeff:     -0.971D-03 0.226D-02 0.447D-02-0.198D-01 0.135D-01 0.464D-01
 Coeff:     -0.610D-01-0.216D+00 0.695D-01 0.116D+01
 Gap=     0.338 Goal=   None    Shift=    0.000
 RMSDP=9.02D-07 MaxDP=7.85D-05 DE= 3.13D-09 OVMax= 2.11D-06

 Cycle  11  Pass 1  IDiag  1:
 RMSU=  6.87D-07    CP:  9.97D-01  1.28D+00  1.23D+00  1.67D+00  1.53D+00
                    CP:  1.80D+00  1.82D+00  3.00D+00  3.00D+00  2.97D+00
 E= -3140.14347002908     Delta-E=        0.000000002683 Rises=F Damp=F
 DIIS: error= 5.04D-08 at cycle  11 NSaved=  11.
 NSaved=11 IEnMin= 9 EnMin= -3140.14347003489     IErMin= 9 ErrMin= 2.96D-08
 ErrMax= 5.04D-08  0.00D+00 EMaxC= 1.00D-01 BMatC= 2.16D-12 BMatP= 6.42D-12
 IDIUse=1 WtCom= 1.00D+00 WtEn= 0.00D+00
 Coeff-Com: -0.180D-04-0.242D-04 0.985D-04 0.607D-03-0.222D-02-0.919D-03
 Coeff-Com:  0.178D-01 0.158D-01-0.163D+00 0.195D-01 0.111D+01
 Coeff:     -0.180D-04-0.242D-04 0.985D-04 0.607D-03-0.222D-02-0.919D-03
 Coeff:      0.178D-01 0.158D-01-0.163D+00 0.195D-01 0.111D+01
 Gap=     0.338 Goal=   None    Shift=    0.000
 RMSDP=9.19D-07 MaxDP=7.15D-05 DE= 2.68D-09 OVMax= 7.55D-07

 Cycle  12  Pass 1  IDiag  1:
 RMSU=  3.05D-07    CP:  9.97D-01  1.28D+00  1.22D+00  1.66D+00  1.48D+00
                    CP:  1.97D+00  2.07D+00  3.00D+00  3.00D+00  3.00D+00
                    CP:  2.09D+00
 E= -3140.14347002805     Delta-E=        0.000000001028 Rises=F Damp=F
 DIIS: error= 4.68D-08 at cycle  12 NSaved=  12.
 NSaved=12 IEnMin= 9 EnMin= -3140.14347003489     IErMin= 9 ErrMin= 2.96D-08
 ErrMax= 4.68D-08  0.00D+00 EMaxC= 1.00D-01 BMatC= 1.34D-12 BMatP= 2.16D-12
 IDIUse=1 WtCom= 1.00D+00 WtEn= 0.00D+00
 Coeff-Com:  0.319D-03-0.715D-03-0.150D-02 0.619D-02-0.366D-02-0.140D-01
 Coeff-Com:  0.117D-01 0.606D-01 0.463D-01-0.378D+00-0.175D+00 0.145D+01
 Coeff:      0.319D-03-0.715D-03-0.150D-02 0.619D-02-0.366D-02-0.140D-01
 Coeff:      0.117D-01 0.606D-01 0.463D-01-0.378D+00-0.175D+00 0.145D+01
 Gap=     0.338 Goal=   None    Shift=    0.000
 RMSDP=1.18D-06 MaxDP=9.52D-05 DE= 1.03D-09 OVMax= 4.92D-07

 Cycle  13  Pass 1  IDiag  1:
 RMSU=  3.43D-07    CP:  9.97D-01  1.28D+00  1.22D+00  1.65D+00  1.41D+00
                    CP:  2.18D+00  2.39D+00  3.00D+00  3.00D+00  3.00D+00
                    CP:  3.00D+00  2.33D+00
 E= -3140.14347002267     Delta-E=        0.000000005377 Rises=F Damp=F
 DIIS: error= 4.62D-08 at cycle  13 NSaved=  13.
 NSaved=13 IEnMin= 9 EnMin= -3140.14347003489     IErMin= 9 ErrMin= 2.96D-08
 ErrMax= 4.62D-08  0.00D+00 EMaxC= 1.00D-01 BMatC= 1.27D-12 BMatP= 1.34D-12
 IDIUse=1 WtCom= 1.00D+00 WtEn= 0.00D+00
 Coeff-Com:  0.146D-03-0.279D-03-0.713D-03 0.226D-02-0.161D-03-0.507D-02
 Coeff-Com: -0.805D-02 0.132D-01 0.141D+00-0.167D+00-0.595D+00 0.744D+00
 Coeff-Com:  0.876D+00
 Coeff:      0.146D-03-0.279D-03-0.713D-03 0.226D-02-0.161D-03-0.507D-02
 Coeff:     -0.805D-02 0.132D-01 0.141D+00-0.167D+00-0.595D+00 0.744D+00
 Coeff:      0.876D+00
 Gap=     0.338 Goal=   None    Shift=    0.000
 RMSDP=9.70D-07 MaxDP=7.73D-05 DE= 5.38D-09 OVMax= 1.71D-07

 Cycle  14  Pass 1  IDiag  1:
 RMSU=  2.02D-07    CP:  9.97D-01  1.28D+00  1.21D+00  1.65D+00  1.35D+00
                    CP:  2.35D+00  2.66D+00  3.00D+00  3.00D+00  3.00D+00
                    CP:  3.00D+00  3.00D+00  3.00D+00
 E= -3140.14347001998     Delta-E=        0.000000002690 Rises=F Damp=F
 DIIS: error= 6.01D-08 at cycle  14 NSaved=  14.
 NSaved=14 IEnMin= 9 EnMin= -3140.14347003489     IErMin= 9 ErrMin= 2.96D-08
 ErrMax= 6.01D-08  0.00D+00 EMaxC= 1.00D-01 BMatC= 2.03D-12 BMatP= 1.27D-12
 IDIUse=1 WtCom= 1.00D+00 WtEn= 0.00D+00
 Coeff-Com:  0.147D-03-0.313D-03-0.678D-03 0.253D-02-0.876D-03-0.527D-02
 Coeff-Com: -0.217D-02 0.184D-01 0.896D-01-0.178D+00-0.513D+00 0.101D+01
 Coeff-Com:  0.295D+01-0.237D+01
 Coeff:      0.147D-03-0.313D-03-0.678D-03 0.253D-02-0.876D-03-0.527D-02
 Coeff:     -0.217D-02 0.184D-01 0.896D-01-0.178D+00-0.513D+00 0.101D+01
 Coeff:      0.295D+01-0.237D+01
 Gap=     0.338 Goal=   None    Shift=    0.000
 RMSDP=2.99D-06 MaxDP=2.42D-04 DE= 2.69D-09 OVMax= 4.22D-07

 Cycle  15  Pass 1  IDiag  1:
 RMSU=  1.92D-07    CP:  9.97D-01  1.28D+00  1.23D+00  1.67D+00  1.52D+00
                    CP:  1.82D+00  1.82D+00  3.00D+00  3.00D+00  2.97D+00
                    CP:  1.10D+00  8.24D-02 -9.45D-03 -1.02D-01
 E= -3140.14347003043     Delta-E=       -0.000000010446 Rises=F Damp=F
 DIIS: error= 4.85D-08 at cycle  15 NSaved=  15.
 NSaved=15 IEnMin= 9 EnMin= -3140.14347003489     IErMin= 9 ErrMin= 2.96D-08
 ErrMax= 4.85D-08  0.00D+00 EMaxC= 1.00D-01 BMatC= 1.40D-12 BMatP= 1.27D-12
 IDIUse=1 WtCom= 1.00D+00 WtEn= 0.00D+00
 Coeff-Com:  0.794D-04-0.172D-03-0.344D-03 0.129D-02-0.356D-03-0.229D-02
 Coeff-Com: -0.327D-02 0.615D-02 0.723D-01-0.709D-01-0.465D+00 0.383D+00
 Coeff-Com:  0.292D+01-0.300D+01 0.116D+01
 Coeff:      0.794D-04-0.172D-03-0.344D-03 0.129D-02-0.356D-03-0.229D-02
 Coeff:     -0.327D-02 0.615D-02 0.723D-01-0.709D-01-0.465D+00 0.383D+00
 Coeff:      0.292D+01-0.300D+01 0.116D+01
 Gap=     0.338 Goal=   None    Shift=    0.000
 RMSDP=2.71D-06 MaxDP=2.23D-04 DE=-1.04D-08 OVMax= 3.75D-07

 Cycle  16  Pass 1  IDiag  1:
 RMSU=  3.32D-07    CP:  9.97D-01  1.28D+00  1.24D+00  1.69D+00  1.68D+00
                    CP:  1.34D+00  1.08D+00 -1.22D+00 -2.85D+00 -2.64D+00
                    CP: -4.43D-03 -1.32D-01 -8.74D-02  1.23D-01  7.17D-01
 E= -3140.14347004036     Delta-E=       -0.000000009937 Rises=F Damp=F
 DIIS: error= 1.66D-08 at cycle  16 NSaved=  16.
 NSaved=16 IEnMin=16 EnMin= -3140.14347004036     IErMin=16 ErrMin= 1.66D-08
 ErrMax= 1.66D-08  0.00D+00 EMaxC= 1.00D-01 BMatC= 6.05D-13 BMatP= 1.27D-12
 IDIUse=1 WtCom= 1.00D+00 WtEn= 0.00D+00
 Coeff-Com:  0.306D-04-0.653D-04-0.120D-03 0.404D-03 0.367D-04-0.412D-03
 Coeff-Com: -0.353D-02-0.118D-02 0.487D-01-0.264D-01-0.313D+00 0.257D+00
 Coeff-Com:  0.201D+01-0.184D+01 0.603D+00 0.262D+00
 Coeff:      0.306D-04-0.653D-04-0.120D-03 0.404D-03 0.367D-04-0.412D-03
 Coeff:     -0.353D-02-0.118D-02 0.487D-01-0.264D-01-0.313D+00 0.257D+00
 Coeff:      0.201D+01-0.184D+01 0.603D+00 0.262D+00
 Gap=     0.338 Goal=   None    Shift=    0.000
 RMSDP=7.84D-07 MaxDP=6.16D-05 DE=-9.94D-09 OVMax= 1.13D-07

 Cycle  17  Pass 1  IDiag  1:
 RMSU=  3.45D-08    CP:  9.97D-01  1.28D+00  1.24D+00  1.68D+00  1.64D+00
                    CP:  1.48D+00  1.30D+00  7.00D-01 -4.63D-01 -9.99D-01
                    CP: -8.75D-03 -4.58D-02 -4.17D-02  1.67D-02  5.10D-01
                    CP:  5.42D-01
 E= -3140.14347003624     Delta-E=        0.000000004127 Rises=F Damp=F
 DIIS: error= 1.08D-08 at cycle  17 NSaved=  17.
 NSaved=17 IEnMin=16 EnMin= -3140.14347004036     IErMin=17 ErrMin= 1.08D-08
 ErrMax= 1.08D-08  0.00D+00 EMaxC= 1.00D-01 BMatC= 1.83D-13 BMatP= 6.05D-13
 IDIUse=1 WtCom= 1.00D+00 WtEn= 0.00D+00
 Coeff-Com:  0.420D-04-0.101D-03-0.172D-03 0.773D-03-0.499D-03-0.140D-02
 Coeff-Com:  0.596D-03 0.537D-02 0.181D-01-0.322D-01-0.143D+00 0.847D-01
 Coeff-Com:  0.102D+01-0.109D+01-0.794D-03-0.333D+00 0.148D+01
 Coeff:      0.420D-04-0.101D-03-0.172D-03 0.773D-03-0.499D-03-0.140D-02
 Coeff:      0.596D-03 0.537D-02 0.181D-01-0.322D-01-0.143D+00 0.847D-01
 Coeff:      0.102D+01-0.109D+01-0.794D-03-0.333D+00 0.148D+01
 Gap=     0.338 Goal=   None    Shift=    0.000
 RMSDP=1.11D-06 MaxDP=9.17D-05 DE= 4.13D-09 OVMax= 1.52D-07

 Cycle  18  Pass 1  IDiag  1:
 RMSU=  1.47D-07    CP:  9.97D-01  1.28D+00  1.24D+00  1.69D+00  1.70D+00
                    CP:  1.29D+00  9.96D-01 -2.04D+00 -3.00D+00 -3.00D+00
                    CP: -2.18D-01 -3.19D-01 -2.39D-02 -2.93D-02 -5.19D-02
                    CP:  8.52D-01  1.55D+00
 E= -3140.14347004141     Delta-E=       -0.000000005171 Rises=F Damp=F
 DIIS: error= 1.77D-08 at cycle  18 NSaved=  18.
 NSaved=18 IEnMin=18 EnMin= -3140.14347004141     IErMin=17 ErrMin= 1.08D-08
 ErrMax= 1.77D-08  0.00D+00 EMaxC= 1.00D-01 BMatC= 3.54D-13 BMatP= 1.83D-13
 IDIUse=1 WtCom= 1.00D+00 WtEn= 0.00D+00
 Coeff-Com: -0.923D-05 0.218D-04 0.526D-04-0.248D-03 0.230D-03 0.739D-03
 Coeff-Com: -0.198D-02-0.435D-02 0.150D-01 0.171D-01-0.855D-01-0.672D-01
 Coeff-Com:  0.184D+00-0.939D-01-0.318D-01-0.827D+00 0.857D+00 0.104D+01
 Coeff:     -0.923D-05 0.218D-04 0.526D-04-0.248D-03 0.230D-03 0.739D-03
 Coeff:     -0.198D-02-0.435D-02 0.150D-01 0.171D-01-0.855D-01-0.672D-01
 Coeff:      0.184D+00-0.939D-01-0.318D-01-0.827D+00 0.857D+00 0.104D+01
 Gap=     0.338 Goal=   None    Shift=    0.000
 RMSDP=5.02D-07 MaxDP=3.98D-05 DE=-5.17D-09 OVMax= 1.16D-07

 Cycle  19  Pass 1  IDiag  1:
 RMSU=  1.01D-07    CP:  9.97D-01  1.28D+00  1.24D+00  1.69D+00  1.67D+00
                    CP:  1.37D+00  1.14D+00 -8.21D-01 -2.59D+00 -2.03D+00
                    CP: -2.22D-02 -7.49D-02  1.05D-02 -8.69D-02 -3.21D-01
                    CP:  5.16D-01  3.00D+00  3.52D-01
 E= -3140.14347004018     Delta-E=        0.000000001226 Rises=F Damp=F
 DIIS: error= 6.89D-09 at cycle  19 NSaved=  19.
 NSaved=19 IEnMin=18 EnMin= -3140.14347004141     IErMin=19 ErrMin= 6.89D-09
 ErrMax= 6.89D-09  0.00D+00 EMaxC= 1.00D-01 BMatC= 3.70D-14 BMatP= 1.83D-13
 IDIUse=1 WtCom= 1.00D+00 WtEn= 0.00D+00
 Coeff-Com: -0.191D-04 0.450D-04 0.952D-04-0.435D-03 0.339D-03 0.110D-02
 Coeff-Com: -0.217D-02-0.583D-02 0.111D-01 0.252D-01-0.605D-01-0.706D-01
 Coeff-Com:  0.993D-01-0.228D-01 0.914D-01-0.344D+00 0.230D+00 0.394D+00
 Coeff-Com:  0.655D+00
 Coeff:     -0.191D-04 0.450D-04 0.952D-04-0.435D-03 0.339D-03 0.110D-02
 Coeff:     -0.217D-02-0.583D-02 0.111D-01 0.252D-01-0.605D-01-0.706D-01
 Coeff:      0.993D-01-0.228D-01 0.914D-01-0.344D+00 0.230D+00 0.394D+00
 Coeff:      0.655D+00
 Gap=     0.338 Goal=   None    Shift=    0.000
 RMSDP=2.25D-07 MaxDP=1.45D-05 DE= 1.23D-09 OVMax= 3.58D-08

 Cycle  20  Pass 1  IDiag  1:
 RMSU=  3.17D-08    CP:  9.97D-01  1.28D+00  1.24D+00  1.69D+00  1.66D+00
                    CP:  1.41D+00  1.20D+00 -2.95D-01 -1.86D+00 -1.64D+00
                    CP: -1.95D-02 -4.43D-02  1.57D-02 -1.01D-01 -2.46D-01
                    CP:  3.93D-01  3.00D+00  3.65D-01  9.95D-01
 E= -3140.14347003873     Delta-E=        0.000000001455 Rises=F Damp=F
 DIIS: error= 4.87D-09 at cycle  20 NSaved=  20.
 NSaved=20 IEnMin=18 EnMin= -3140.14347004141     IErMin=20 ErrMin= 4.87D-09
 ErrMax= 4.87D-09  0.00D+00 EMaxC= 1.00D-01 BMatC= 1.99D-14 BMatP= 3.70D-14
 IDIUse=1 WtCom= 1.00D+00 WtEn= 0.00D+00
 Large coefficients: NSaved= 20 BigCof=    0.00 CofMax=   10.00 Det=-8.49D-15
 Inversion failed.  Reducing to 19 matrices.
 Large coefficients: NSaved= 19 BigCof=    0.00 CofMax=   10.00 Det=-8.55D-15
 Inversion failed.  Reducing to 18 matrices.
 Large coefficients: NSaved= 18 BigCof=    0.00 CofMax=   10.00 Det=-8.58D-15
 Inversion failed.  Reducing to 17 matrices.
 Large coefficients: NSaved= 17 BigCof=    0.00 CofMax=   10.00 Det=-8.59D-15
 Inversion failed.  Reducing to 16 matrices.
 Large coefficients: NSaved= 16 BigCof=    0.00 CofMax=   10.00 Det=-8.59D-15
 Inversion failed.  Reducing to 15 matrices.
 Coeff-Com:  0.167D-03-0.667D-03-0.150D-02 0.751D-02 0.104D-01-0.476D-01
 Coeff-Com: -0.451D-01 0.873D-01-0.420D-01 0.902D-01-0.316D+00 0.210D+00
 Coeff-Com:  0.361D+00 0.568D+00 0.118D+00
 Coeff:      0.167D-03-0.667D-03-0.150D-02 0.751D-02 0.104D-01-0.476D-01
 Coeff:     -0.451D-01 0.873D-01-0.420D-01 0.902D-01-0.316D+00 0.210D+00
 Coeff:      0.361D+00 0.568D+00 0.118D+00
 Gap=     0.338 Goal=   None    Shift=    0.000
 RMSDP=4.28D-08 MaxDP=3.79D-06 DE= 1.46D-09 OVMax= 5.99D-09

 Cycle  21  Pass 1  IDiag  1:
 Restarting incremental Fock formation.
 E= -3140.14347004616     Delta-E=       -0.000000007434 Rises=F Damp=F
 DIIS: error= 6.25D-08 at cycle  21 NSaved=  16.
 NSaved=16 IEnMin=16 EnMin= -3140.14347004616     IErMin=15 ErrMin= 4.87D-09
 ErrMax= 6.25D-08  0.00D+00 EMaxC= 1.00D-01 BMatC= 3.61D-12 BMatP= 1.99D-14
 IDIUse=1 WtCom= 1.00D+00 WtEn= 0.00D+00
 Large coefficients: NSaved= 16 BigCof=    0.00 CofMax=   10.00 Det=-7.83D-15
 Inversion failed.  Reducing to 15 matrices.
 Coeff-Com: -0.403D-03-0.695D-03 0.516D-02 0.441D-02-0.325D-01-0.183D-01
 Coeff-Com:  0.277D-01 0.559D-01 0.265D-01-0.272D+00 0.204D+00 0.318D+00
 Coeff-Com:  0.478D+00 0.168D+00 0.366D-01
 Coeff:     -0.403D-03-0.695D-03 0.516D-02 0.441D-02-0.325D-01-0.183D-01
 Coeff:      0.277D-01 0.559D-01 0.265D-01-0.272D+00 0.204D+00 0.318D+00
 Coeff:      0.478D+00 0.168D+00 0.366D-01
 Gap=     0.338 Goal=   None    Shift=    0.000
 RMSDP=2.56D-07 MaxDP=2.18D-05 DE=-7.43D-09 OVMax= 3.49D-08

 Cycle  22  Pass 1  IDiag  1:
 RMSU=  2.53D-07    CP:  1.00D+00
 E= -3140.14347004470     Delta-E=        0.000000001462 Rises=F Damp=F
 DIIS: error= 5.73D-08 at cycle  22 NSaved=  16.
 NSaved=16 IEnMin=15 EnMin= -3140.14347004616     IErMin=14 ErrMin= 4.87D-09
 ErrMax= 5.73D-08  0.00D+00 EMaxC= 1.00D-01 BMatC= 3.17D-12 BMatP= 1.99D-14
 IDIUse=1 WtCom= 1.00D+00 WtEn= 0.00D+00
 Large coefficients: NSaved= 16 BigCof=    0.00 CofMax=   10.00 Det=-4.64D-15
 Inversion failed.  Reducing to 15 matrices.
 Coeff-Com: -0.432D-03-0.645D-03 0.604D-02 0.369D-02-0.384D-01-0.148D-01
 Coeff-Com:  0.726D-01 0.460D-01-0.275D+00 0.206D+00 0.313D+00 0.470D+00
 Coeff-Com:  0.175D+00-0.194D-01 0.571D-01
 Coeff:     -0.432D-03-0.645D-03 0.604D-02 0.369D-02-0.384D-01-0.148D-01
 Coeff:      0.726D-01 0.460D-01-0.275D+00 0.206D+00 0.313D+00 0.470D+00
 Coeff:      0.175D+00-0.194D-01 0.571D-01
 Gap=     0.338 Goal=   None    Shift=    0.000
 RMSDP=3.87D-08 MaxDP=3.39D-06 DE= 1.46D-09 OVMax= 5.53D-09

 Cycle  23  Pass 1  IDiag  1:
 RMSU=  6.63D-09    CP:  1.00D+00  8.51D-01
 E= -3140.14347004667     Delta-E=       -0.000000001975 Rises=F Damp=F
 DIIS: error= 5.79D-08 at cycle  23 NSaved=  16.
 NSaved=16 IEnMin=16 EnMin= -3140.14347004667     IErMin=13 ErrMin= 4.87D-09
 ErrMax= 5.79D-08  0.00D+00 EMaxC= 1.00D-01 BMatC= 3.26D-12 BMatP= 1.99D-14
 IDIUse=1 WtCom= 1.00D+00 WtEn= 0.00D+00
 Large coefficients: NSaved= 16 BigCof=    0.00 CofMax=   10.00 Det=-1.72D-15
 Inversion failed.  Reducing to 15 matrices.
 Coeff-Com: -0.138D-03-0.334D-03 0.245D-02 0.242D-02-0.166D-01-0.806D-02
 Coeff-Com:  0.571D-01-0.260D+00 0.199D+00 0.279D+00 0.376D+00 0.335D+00
 Coeff-Com: -0.163D+00-0.435D+00 0.633D+00
 Coeff:     -0.138D-03-0.334D-03 0.245D-02 0.242D-02-0.166D-01-0.806D-02
 Coeff:      0.571D-01-0.260D+00 0.199D+00 0.279D+00 0.376D+00 0.335D+00
 Coeff:     -0.163D+00-0.435D+00 0.633D+00
 Gap=     0.338 Goal=   None    Shift=    0.000
 RMSDP=1.79D-07 MaxDP=1.53D-05 DE=-1.98D-09 OVMax= 2.48D-08

 Cycle  24  Pass 1  IDiag  1:
 RMSU=  1.48D-08    CP:  1.00D+00  1.54D-01  2.60D+00
 E= -3140.14347004529     Delta-E=        0.000000001388 Rises=F Damp=F
 DIIS: error= 6.12D-08 at cycle  24 NSaved=  16.
 NSaved=16 IEnMin=15 EnMin= -3140.14347004667     IErMin=12 ErrMin= 4.87D-09
 ErrMax= 6.12D-08  0.00D+00 EMaxC= 1.00D-01 BMatC= 3.63D-12 BMatP= 1.99D-14
 IDIUse=1 WtCom= 1.00D+00 WtEn= 0.00D+00
 Large coefficients: NSaved= 16 BigCof=    0.00 CofMax=   10.00 Det=-6.10D-16
 Inversion failed.  Reducing to 15 matrices.
 Coeff-Com: -0.148D-03-0.298D-03 0.271D-02 0.128D-02-0.182D-01 0.544D-01
 Coeff-Com: -0.257D+00 0.195D+00 0.278D+00 0.373D+00 0.336D+00-0.168D+00
 Coeff-Com: -0.405D+00 0.590D+00 0.179D-01
 Coeff:     -0.148D-03-0.298D-03 0.271D-02 0.128D-02-0.182D-01 0.544D-01
 Coeff:     -0.257D+00 0.195D+00 0.278D+00 0.373D+00 0.336D+00-0.168D+00
 Coeff:     -0.405D+00 0.590D+00 0.179D-01
 Gap=     0.338 Goal=   None    Shift=    0.000
 RMSDP=1.30D-08 MaxDP=1.08D-06 DE= 1.39D-09 OVMax= 1.76D-09

 Cycle  25  Pass 1  IDiag  1:
 RMSU=  8.44D-10    CP:  1.00D+00  2.05D-01  2.55D+00  9.68D-01
 E= -3140.14347004560     Delta-E=       -0.000000000311 Rises=F Damp=F
 DIIS: error= 6.08D-08 at cycle  25 NSaved=  16.
 NSaved=16 IEnMin=14 EnMin= -3140.14347004667     IErMin=11 ErrMin= 4.87D-09
 ErrMax= 6.08D-08  0.00D+00 EMaxC= 1.00D-01 BMatC= 3.62D-12 BMatP= 1.99D-14
 IDIUse=1 WtCom= 1.00D+00 WtEn= 0.00D+00
 Large coefficients: NSaved= 16 BigCof=    0.00 CofMax=   10.00 Det=-5.99D-16
 Inversion failed.  Reducing to 15 matrices.
 Coeff-Com:  0.514D-04-0.135D-03 0.746D-05 0.243D-03 0.451D-01-0.232D+00
 Coeff-Com:  0.175D+00 0.251D+00 0.363D+00 0.358D+00-0.250D+00-0.342D+00
 Coeff-Com:  0.544D+00 0.405D+00-0.319D+00
 Coeff:      0.514D-04-0.135D-03 0.746D-05 0.243D-03 0.451D-01-0.232D+00
 Coeff:      0.175D+00 0.251D+00 0.363D+00 0.358D+00-0.250D+00-0.342D+00
 Coeff:      0.544D+00 0.405D+00-0.319D+00
 Gap=     0.338 Goal=   None    Shift=    0.000
 RMSDP=2.67D-08 MaxDP=1.91D-06 DE=-3.11D-10 OVMax= 4.88D-09

 Cycle  26  Pass 1  IDiag  1:
 RMSU=  6.59D-09    CP:  1.00D+00  3.06D-01  2.82D+00  9.61D-01  1.91D+00
 E= -3140.14347004513     Delta-E=        0.000000000471 Rises=F Damp=F
 DIIS: error= 6.08D-08 at cycle  26 NSaved=  16.
 NSaved=16 IEnMin=13 EnMin= -3140.14347004667     IErMin=10 ErrMin= 4.87D-09
 ErrMax= 6.08D-08  0.00D+00 EMaxC= 1.00D-01 BMatC= 3.65D-12 BMatP= 1.99D-14
 IDIUse=1 WtCom= 1.00D+00 WtEn= 0.00D+00
 Large coefficients: NSaved= 16 BigCof=    0.00 CofMax=   10.00 Det=-5.30D-16
 Inversion failed.  Reducing to 15 matrices.
 Coeff-Com:  0.645D-04-0.712D-04 0.140D-03-0.402D-03-0.254D+00 0.262D+00
 Coeff-Com:  0.257D+00 0.279D+00 0.417D+00-0.351D+00-0.611D-01 0.238D+00
 Coeff-Com:  0.831D+00-0.934D+00 0.316D+00
 Coeff:      0.645D-04-0.712D-04 0.140D-03-0.402D-03-0.254D+00 0.262D+00
 Coeff:      0.257D+00 0.279D+00 0.417D+00-0.351D+00-0.611D-01 0.238D+00
 Coeff:      0.831D+00-0.934D+00 0.316D+00
 Gap=     0.338 Goal=   None    Shift=    0.000
 RMSDP=3.48D-08 MaxDP=2.96D-06 DE= 4.71D-10 OVMax= 4.55D-09

 Cycle  27  Pass 1  IDiag  1:
 RMSU=  9.33D-09    CP:  1.00D+00  1.76D-01  3.00D+00  1.18D+00 -1.72D+00
                    CP:  1.32D+00
 E= -3140.14347004521     Delta-E=       -0.000000000084 Rises=F Damp=F
 DIIS: error= 6.11D-08 at cycle  27 NSaved=  16.
 NSaved=16 IEnMin=12 EnMin= -3140.14347004667     IErMin= 9 ErrMin= 4.87D-09
 ErrMax= 6.11D-08  0.00D+00 EMaxC= 1.00D-01 BMatC= 3.68D-12 BMatP= 1.99D-14
 IDIUse=1 WtCom= 1.00D+00 WtEn= 0.00D+00
 Large coefficients: NSaved= 16 BigCof=    0.00 CofMax=   10.00 Det=-2.19D-16
 Inversion failed.  Reducing to 15 matrices.
 Coeff-Com:  0.804D-04-0.751D-04-0.311D-04-0.247D+00 0.251D+00 0.255D+00
 Coeff-Com:  0.262D+00 0.441D+00-0.369D+00-0.821D-01 0.291D+00 0.195D+01
 Coeff-Com: -0.204D+01 0.539D+00-0.253D+00
 Coeff:      0.804D-04-0.751D-04-0.311D-04-0.247D+00 0.251D+00 0.255D+00
 Coeff:      0.262D+00 0.441D+00-0.369D+00-0.821D-01 0.291D+00 0.195D+01
 Coeff:     -0.204D+01 0.539D+00-0.253D+00
 Gap=     0.338 Goal=   None    Shift=    0.000
 RMSDP=8.50D-09 MaxDP=7.71D-07 DE=-8.37D-11 OVMax= 1.20D-09

 Error on total polarization charges =  0.02471
 SCF Done:  E(RHF) =  -3140.14347005     A.U. after   27 cycles
            NFock= 27  Conv=0.85D-08     -V/T= 2.0001
 KE= 3.139788709707D+03 PE=-3.576279024392D+04 EE= 1.526132896489D+04
 Leave Link  502 at Tue Nov  2 12:21:10 2021, MaxMem=  7864320000 cpu:         1096645.1 elap:           34555.3
 (Enter /apps/gaussian/g16-c01-avx/g16/l508.exe)
 QCSCF skips out because SCF is already converged.
 Leave Link  508 at Tue Nov  2 12:21:11 2021, MaxMem=  7864320000 cpu:               1.4 elap:               0.1
 (Enter /apps/gaussian/g16-c01-avx/g16/l801.exe)
 ExpMin= 2.97D-02 ExpMax= 9.05D+03 ExpMxC= 3.09D+02 IAcc=3 IRadAn=         7 AccDes= 0.00D+00
 HarFok:  IExCor=  205 AccDes= 0.00D+00 IRadAn=         7 IDoV=-2 UseB2=F ITyADJ=14
 ICtDFT= 12500011 ScaDFX=  1.000000  1.000000  1.000000  1.000000
 GSVD:  LWork=       -6545 too small for GESVD, short by       30800 words or       30800 for optimal perf.
 Largest valence mixing into a core orbital is  1.13D-04
 Largest core mixing into a valence orbital is  4.74D-05
 Range of M.O.s used for correlation:    78  2627
 NBasis=  2671 NAE=   286 NBE=   286 NFC=    77 NFV=     0
 NROrb=   2550 NOA=   209 NOB=   209 NVA=  2341 NVB=  2341

 **** Warning!!: The largest alpha MO coefficient is  0.15812159D+03

 Leave Link  801 at Tue Nov  2 12:21:13 2021, MaxMem=  7864320000 cpu:              44.8 elap:               1.5
 (Enter /apps/gaussian/g16-c01-avx/g16/l906.exe)
 FulOut=F Deriv=F AODrv=F NAtomX=   177
   MMem=           0  MDisk=         209 MDiskD=         209
  W3Min=  1382184925 MinDsk=  1213265454 NBas6D=        2825
 NBas2D=     3995328    NTT=     3991725    LW2=     2000000
    MDV=  7829030051 MDiskM=       38480 NBas2p=     2506725
 Disk-based method using OVN memory for209 occupieds at a time.
 Estimated scratch disk usage=************ words.
 IMap=   1   2   3   4   5   6   7   8   9  10  11  12  13  14  15  16  17  18  19  20
 IMap=  21  22  23  24  25  26  27  28  29  30  31  32  33  34  35  36  37  38  39  40
 IMap=  41  42  43  44  45  46  47  48  49  50  51  52  53  54  55  56  57  58  59  60
 IMap=  61  62  63  64  65  66  67  68  69  70  71  72  73  74  75  76  77  78  79  80
 IMap=  81  82  83  84  85  86  87  88  89  90  91  92  93  94  95  96  97  98  99 100
 IMap= 101 102 103 104 105 106 107 108 109 110 111 112 113 114 115 116 117 118 119 120
 IMap= 121 122 123 124 125 126 127 128 129 130 131 132 133 134 135 136 137 138 139 140
 IMap= 141 142 143 144 145 146 147 148 149 150 151 152 153 154 155 156 157 158 159 160
 IMap= 161 162 163 164 165 166 167 168 169 170 171 172 173 174 175 176 177 178 179 180
 IMap= 181 182 183 184 185 186 187 188 189 190 191 192 193 194 195 196 197 198 199 200
 IMap= 201 202 203 204 205 206 207 208 209
 Actual    scratch disk usage=************ words.
 JobTyp=1 Pass  1:  I=   1 to 209 NPSUse= 32 ParTrn=T ParDer=T DoDerP=F.
