 Entering Gaussian System, Link 0=g16
 Initial command:
 /apps/gaussian/g16-c01-avx/g16/l1.exe "/rds/general/ephemeral/user/atarzia/ephemeral/Gau-2789763.inp" -scrdir="/rds/general/ephemeral/user/atarzia/ephemeral/"
 Entering Link 1 = /apps/gaussian/g16-c01-avx/g16/l1.exe PID=   2789764.
  
 Copyright (c) 1988-2019, Gaussian, Inc.  All Rights Reserved.
  
 This is part of the Gaussian(R) 16 program.  It is based on
 the Gaussian(R) 09 system (copyright 2009, Gaussian, Inc.),
 the Gaussian(R) 03 system (copyright 2003, Gaussian, Inc.),
 the Gaussian(R) 98 system (copyright 1998, Gaussian, Inc.),
 the Gaussian(R) 94 system (copyright 1995, Gaussian, Inc.),
 the Gaussian 92(TM) system (copyright 1992, Gaussian, Inc.),
 the Gaussian 90(TM) system (copyright 1990, Gaussian, Inc.),
 the Gaussian 88(TM) system (copyright 1988, Gaussian, Inc.),
 the Gaussian 86(TM) system (copyright 1986, Carnegie Mellon
 University), and the Gaussian 82(TM) system (copyright 1983,
 Carnegie Mellon University). Gaussian is a federally registered
 trademark of Gaussian, Inc.
  
 This software contains proprietary and confidential information,
 including trade secrets, belonging to Gaussian, Inc.
  
 This software is provided under written license and may be
 used, copied, transmitted, or stored only in accord with that
 written license.
  
 The following legend is applicable only to US Government
 contracts under FAR:
  
                    RESTRICTED RIGHTS LEGEND
  
 Use, reproduction and disclosure by the US Government is
 subject to restrictions as set forth in subparagraphs (a)
 and (c) of the Commercial Computer Software - Restricted
 Rights clause in FAR 52.227-19.
  
 Gaussian, Inc.
 340 Quinnipiac St., Bldg. 40, Wallingford CT 06492
  
  
 ---------------------------------------------------------------
 Warning -- This program may not be used in any manner that
 competes with the business of Gaussian, Inc. or will provide
 assistance to any competitor of Gaussian, Inc.  The licensee
 of this program is prohibited from giving any competitor of
 Gaussian, Inc. access to this program.  By using this program,
 the user acknowledges that Gaussian, Inc. is engaged in the
 business of creating and licensing software in the field of
 computational chemistry and represents and warrants to the
 licensee that it is not a competitor of Gaussian, Inc. and that
 it will not use this program in any manner prohibited above.
 ---------------------------------------------------------------
  

 Cite this work as:
 Gaussian 16, Revision C.01,
 M. J. Frisch, G. W. Trucks, H. B. Schlegel, G. E. Scuseria, 
 M. A. Robb, J. R. Cheeseman, G. Scalmani, V. Barone, 
 G. A. Petersson, H. Nakatsuji, X. Li, M. Caricato, A. V. Marenich, 
 J. Bloino, B. G. Janesko, R. Gomperts, B. Mennucci, H. P. Hratchian, 
 J. V. Ortiz, A. F. Izmaylov, J. L. Sonnenberg, D. Williams-Young, 
 F. Ding, F. Lipparini, F. Egidi, J. Goings, B. Peng, A. Petrone, 
 T. Henderson, D. Ranasinghe, V. G. Zakrzewski, J. Gao, N. Rega, 
 G. Zheng, W. Liang, M. Hada, M. Ehara, K. Toyota, R. Fukuda, 
 J. Hasegawa, M. Ishida, T. Nakajima, Y. Honda, O. Kitao, H. Nakai, 
 T. Vreven, K. Throssell, J. A. Montgomery, Jr., J. E. Peralta, 
 F. Ogliaro, M. J. Bearpark, J. J. Heyd, E. N. Brothers, K. N. Kudin, 
 V. N. Staroverov, T. A. Keith, R. Kobayashi, J. Normand, 
 K. Raghavachari, A. P. Rendell, J. C. Burant, S. S. Iyengar, 
 J. Tomasi, M. Cossi, J. M. Millam, M. Klene, C. Adamo, R. Cammi, 
 J. W. Ochterski, R. L. Martin, K. Morokuma, O. Farkas, 
 J. B. Foresman, and D. J. Fox, Gaussian, Inc., Wallingford CT, 2019.
 
 ******************************************
 Gaussian 16:  ES64L-G16RevC.01  3-Jul-2019
                18-Oct-2021 
 ******************************************
 %chk=_3_alde1_5_ami2_1_opt_dcm.chk
 %mem=60000mb
 %nprocshared=32
 Will use up to   32 processors via shared memory.
 ----------------------------------------------------------------------
 #P PBE1PBE/Def2TZVP SP SCF=(YQC,MaxCycle=900) int=(Grid=Superfinegrid)
  EmpiricalDispersion=GD3 SCRF=(PCM,Solvent=Dichloromethane)
 ----------------------------------------------------------------------
 1/38=1,172=1/1;
 2/12=2,17=6,18=5,40=1/2;
 3/5=44,7=101,11=2,25=1,30=1,70=2201,72=9,74=-13,75=-7,124=31/1,2,3;
 4//1;
 5/5=2,7=900,8=4,13=1,38=1,53=9/8,2,8;
 6/7=2,8=2,9=2,10=2,28=1/1;
 99/5=1,9=1/99;
 Leave Link    1 at Mon Oct 18 13:16:08 2021, MaxMem=  7864320000 cpu:               6.3 elap:               0.2
 (Enter /apps/gaussian/g16-c01-avx/g16/l101.exe)
 -------------------------
 _3_alde1_5_ami2_1_opt_dcm
 -------------------------
 Symbolic Z-matrix:
 Charge =  0 Multiplicity = 1
 C                    -3.5783   -1.7631   -1.1263 
 C                    -4.4619   -0.8438   -0.4249 
 C                    -3.0545   -2.8938   -0.5046 
 C                    -2.1457   -3.7092   -1.1735 
 H                    -3.354    -3.1404    0.5006 
 C                    -1.7306   -3.363    -2.4583 
 C                    -2.2515   -2.2411   -3.0953 
 H                    -1.004    -3.9823   -2.9661 
 C                    -3.1947   -1.4628   -2.4299 
 C                    -1.7652   -1.847    -4.4132 
 H                    -3.5957   -0.6034   -2.9434 
 C                    -1.602    -4.9055   -0.5483 
 H                    -0.8508   -2.3619   -4.7331 
 H                    -4.9333   -0.0734   -1.0544 
 H                    -0.7966   -5.4074   -1.1064 
 C                     3.0826   -2.8636   -0.8295 
 C                     3.688    -3.3913   -2.1159 
 C                     3.4466   -1.6169   -0.3483 
 C                     2.8582   -1.1036    0.8071 
 H                     4.1762   -1.0228   -0.8736 
 C                     1.9018   -1.8595    1.4775 
 C                     1.5682   -3.1342    1.0312 
 H                     1.4312   -1.4628    2.3673 
 C                     2.1651   -3.6293   -0.1269 
 C                     0.5956   -3.9281    1.7739 
 H                     1.8895   -4.6093   -0.4806 
 C                     3.2191    0.2161    1.2981 
 H                    -0.0241   -3.3546    2.4746 
 H                     2.6092    0.5987    2.1327 
 C                    -1.4509    1.8657   -0.1995 
 C                    -2.2548    1.6244    0.9947 
 C                    -2.0258    1.7627   -1.4647 
 C                    -1.246     1.8511   -2.6121 
 H                    -3.087     1.5809   -1.5258 
 C                     0.1228    2.0861   -2.4894 
 C                     0.7006    2.253    -1.2362 
 H                     0.7176    2.1487   -3.3876 
 C                    -0.0894    2.125    -0.0945 
 C                     2.1292    2.5302   -1.1223 
 H                     0.3855    2.231     0.869 
 C                    -1.8677    1.6414   -3.9099 
 H                     2.7071    2.3345   -2.0322 
 H                    -2.9679    1.6242   -3.9047 
 C                    -4.3668    1.2024    2.0319 
 C                    -5.3756    0.1782    1.4332 
 N                    -3.5101    1.5513    0.93 
 N                    -4.6395   -0.8824    0.8237 
 H                    -6.014     0.7093    0.7103 
 C                     2.9232   -1.9904   -3.846 
 C                     1.9201   -3.1428   -3.5252 
 N                     4.076    -2.2815   -2.9837 
 N                     2.6836   -4.1705   -2.8372 
 C                    -1.4008   -6.4843    1.1362 
 C                    -0.4503   -6.0106    2.2725 
 N                    -2.034    -5.3489    0.551 
 H                    -2.1735   -7.1231    1.5697 
 N                     0.5169   -5.175     1.6157 
 C                     0.3152   -7.2215    2.8169 
 C                    -1.8848   -0.4368   -6.3402 
 C                    -1.9257    1.1091   -6.1553 
 N                    -2.3546   -0.9621   -5.0873 
 C                    -0.4757   -0.8582   -6.7672 
 N                    -1.2064    1.4554   -4.9697 
 H                    -2.9806    1.4182   -6.1023 
 C                     4.422     2.2032    1.2752 
 C                     4.0171    3.2124    0.1651 
 N                     4.1729    0.8801    0.8079 
 H                     3.8556    2.4415    2.19 
 N                     2.616     2.9717   -0.0482 
 H                    -1.6722    1.4827    1.9133 
 H                     3.1429   -4.7734   -3.5152 
 H                     4.5542   -4.0141   -1.8643 
 H                     4.8904   -2.5177   -3.5384 
 H                    -5.9882   -0.2344    2.237 
 H                    -0.8051   -7.0553    0.4074 
 C                    -1.2777   -5.3619    3.3865 
 C                    -2.9038   -0.8382   -7.413 
 H                    -1.4423    1.5851   -7.0107 
 H                     5.4928    2.3055    1.4671 
 C                     4.9359    3.0266   -1.0456 
 C                     4.1415    4.6377    0.7143 
 H                     4.6206    3.6665   -1.8679 
 H                     4.9289    1.9876   -1.3649 
 H                     5.9518    3.2963   -0.7697 
 C                    -5.126     2.4689    2.4441 
 C                    -3.6748    0.5792    3.2476 
 H                    -5.5685    2.9403    1.5704 
 H                    -4.4408    3.1761    2.9067 
 H                    -5.9122    2.2222    3.153 
 H                    -3.9102   -0.6037   -7.0766 
 H                    -2.8435   -1.9087   -7.5972 
 H                    -2.7041   -0.3076   -8.3404 
 H                    -1.9017   -6.1177    3.8559 
 H                    -1.9232   -4.5889    2.9775 
 H                    -0.6255   -4.9323    4.145 
 H                    -4.4219    0.3014    3.9862 
 H                    -2.9865    1.2843    3.7096 
 H                    -3.1341   -0.3143    2.9446 
 H                     0.2472   -0.5342   -6.0222 
 H                    -0.2307   -0.3897   -7.7169 
 H                    -0.4133   -1.9377   -6.8935 
 H                     3.9088    5.3551   -0.0694 
 H                     5.1514    4.8205    1.0725 
 H                     3.4402    4.7825    1.5316 
 H                    -0.3757   -7.9879    3.1589 
 H                     0.943    -6.9141    3.6501 
 H                     0.9533   -7.6342    2.0404 
 H                     1.4435   -3.5415   -4.4201 
 H                     1.1535   -2.7769   -2.8368 
 C                     2.3343   -0.6292   -3.4729 
 H                     1.4128   -0.4455   -4.021 
 H                     3.0487    0.1558   -3.7083 
 H                     2.1183   -0.593    -2.4084 
 C                     3.3283   -2.0031   -5.3206 
 H                     3.7038   -2.9844   -5.612 
 H                     4.109    -1.2665   -5.5009 
 H                     2.4762   -1.7601   -5.9509 
 
 ITRead=  0  0  0  0  0  0  0  0  0  0  0  0  0  0  0  0  0  0  0  0
 ITRead=  0  0  0  0  0  0  0  0  0  0  0  0  0  0  0  0  0  0  0  0
 ITRead=  0  0  0  0  0  0  0  0  0  0  0  0  0  0  0  0  0  0  0  0
 ITRead=  0  0  0  0  0  0  0  0  0  0  0  0  0  0  0  0  0  0  0  0
 ITRead=  0  0  0  0  0  0  0  0  0  0  0  0  0  0  0  0  0  0  0  0
 ITRead=  0  0  0  0  0  0  0  0  0  0  0  0  0  0  0  0  0
 MicOpt= -1 -1 -1 -1 -1 -1 -1 -1 -1 -1 -1 -1 -1 -1 -1 -1 -1 -1 -1 -1
 MicOpt= -1 -1 -1 -1 -1 -1 -1 -1 -1 -1 -1 -1 -1 -1 -1 -1 -1 -1 -1 -1
 MicOpt= -1 -1 -1 -1 -1 -1 -1 -1 -1 -1 -1 -1 -1 -1 -1 -1 -1 -1 -1 -1
 MicOpt= -1 -1 -1 -1 -1 -1 -1 -1 -1 -1 -1 -1 -1 -1 -1 -1 -1 -1 -1 -1
 MicOpt= -1 -1 -1 -1 -1 -1 -1 -1 -1 -1 -1 -1 -1 -1 -1 -1 -1 -1 -1 -1
 MicOpt= -1 -1 -1 -1 -1 -1 -1 -1 -1 -1 -1 -1 -1 -1 -1 -1 -1
 NAtoms=    117 NQM=      117 NQMF=       0 NMMI=      0 NMMIF=      0
                NMic=       0 NMicF=      0.
                    Isotopes and Nuclear Properties:
 (Nuclear quadrupole moments (NQMom) in fm**2, nuclear magnetic moments (NMagM)
  in nuclear magnetons)

  Atom         1           2           3           4           5           6           7           8           9          10
 IAtWgt=          12          12          12          12           1          12          12           1          12          12
 AtmWgt=  12.0000000  12.0000000  12.0000000  12.0000000   1.0078250  12.0000000  12.0000000   1.0078250  12.0000000  12.0000000
 NucSpn=           0           0           0           0           1           0           0           1           0           0
 AtZEff=  -0.0000000  -0.0000000  -0.0000000  -0.0000000  -0.0000000  -0.0000000  -0.0000000  -0.0000000  -0.0000000  -0.0000000
 NQMom=    0.0000000   0.0000000   0.0000000   0.0000000   0.0000000   0.0000000   0.0000000   0.0000000   0.0000000   0.0000000
 NMagM=    0.0000000   0.0000000   0.0000000   0.0000000   2.7928460   0.0000000   0.0000000   2.7928460   0.0000000   0.0000000
 AtZNuc=   6.0000000   6.0000000   6.0000000   6.0000000   1.0000000   6.0000000   6.0000000   1.0000000   6.0000000   6.0000000

  Atom        11          12          13          14          15          16          17          18          19          20
 IAtWgt=           1          12           1           1           1          12          12          12          12           1
 AtmWgt=   1.0078250  12.0000000   1.0078250   1.0078250   1.0078250  12.0000000  12.0000000  12.0000000  12.0000000   1.0078250
 NucSpn=           1           0           1           1           1           0           0           0           0           1
 AtZEff=  -0.0000000  -0.0000000  -0.0000000  -0.0000000  -0.0000000  -0.0000000  -0.0000000  -0.0000000  -0.0000000  -0.0000000
 NQMom=    0.0000000   0.0000000   0.0000000   0.0000000   0.0000000   0.0000000   0.0000000   0.0000000   0.0000000   0.0000000
 NMagM=    2.7928460   0.0000000   2.7928460   2.7928460   2.7928460   0.0000000   0.0000000   0.0000000   0.0000000   2.7928460
 AtZNuc=   1.0000000   6.0000000   1.0000000   1.0000000   1.0000000   6.0000000   6.0000000   6.0000000   6.0000000   1.0000000

  Atom        21          22          23          24          25          26          27          28          29          30
 IAtWgt=          12          12           1          12          12           1          12           1           1          12
 AtmWgt=  12.0000000  12.0000000   1.0078250  12.0000000  12.0000000   1.0078250  12.0000000   1.0078250   1.0078250  12.0000000
 NucSpn=           0           0           1           0           0           1           0           1           1           0
 AtZEff=  -0.0000000  -0.0000000  -0.0000000  -0.0000000  -0.0000000  -0.0000000  -0.0000000  -0.0000000  -0.0000000  -0.0000000
 NQMom=    0.0000000   0.0000000   0.0000000   0.0000000   0.0000000   0.0000000   0.0000000   0.0000000   0.0000000   0.0000000
 NMagM=    0.0000000   0.0000000   2.7928460   0.0000000   0.0000000   2.7928460   0.0000000   2.7928460   2.7928460   0.0000000
 AtZNuc=   6.0000000   6.0000000   1.0000000   6.0000000   6.0000000   1.0000000   6.0000000   1.0000000   1.0000000   6.0000000

  Atom        31          32          33          34          35          36          37          38          39          40
 IAtWgt=          12          12          12           1          12          12           1          12          12           1
 AtmWgt=  12.0000000  12.0000000  12.0000000   1.0078250  12.0000000  12.0000000   1.0078250  12.0000000  12.0000000   1.0078250
 NucSpn=           0           0           0           1           0           0           1           0           0           1
 AtZEff=  -0.0000000  -0.0000000  -0.0000000  -0.0000000  -0.0000000  -0.0000000  -0.0000000  -0.0000000  -0.0000000  -0.0000000
 NQMom=    0.0000000   0.0000000   0.0000000   0.0000000   0.0000000   0.0000000   0.0000000   0.0000000   0.0000000   0.0000000
 NMagM=    0.0000000   0.0000000   0.0000000   2.7928460   0.0000000   0.0000000   2.7928460   0.0000000   0.0000000   2.7928460
 AtZNuc=   6.0000000   6.0000000   6.0000000   1.0000000   6.0000000   6.0000000   1.0000000   6.0000000   6.0000000   1.0000000

  Atom        41          42          43          44          45          46          47          48          49          50
 IAtWgt=          12           1           1          12          12          14          14           1          12          12
 AtmWgt=  12.0000000   1.0078250   1.0078250  12.0000000  12.0000000  14.0030740  14.0030740   1.0078250  12.0000000  12.0000000
 NucSpn=           0           1           1           0           0           2           2           1           0           0
 AtZEff=  -0.0000000  -0.0000000  -0.0000000  -0.0000000  -0.0000000  -0.0000000  -0.0000000  -0.0000000  -0.0000000  -0.0000000
 NQMom=    0.0000000   0.0000000   0.0000000   0.0000000   0.0000000   2.0440000   2.0440000   0.0000000   0.0000000   0.0000000
 NMagM=    0.0000000   2.7928460   2.7928460   0.0000000   0.0000000   0.4037610   0.4037610   2.7928460   0.0000000   0.0000000
 AtZNuc=   6.0000000   1.0000000   1.0000000   6.0000000   6.0000000   7.0000000   7.0000000   1.0000000   6.0000000   6.0000000

  Atom        51          52          53          54          55          56          57          58          59          60
 IAtWgt=          14          14          12          12          14           1          14          12          12          12
 AtmWgt=  14.0030740  14.0030740  12.0000000  12.0000000  14.0030740   1.0078250  14.0030740  12.0000000  12.0000000  12.0000000
 NucSpn=           2           2           0           0           2           1           2           0           0           0
 AtZEff=  -0.0000000  -0.0000000  -0.0000000  -0.0000000  -0.0000000  -0.0000000  -0.0000000  -0.0000000  -0.0000000  -0.0000000
 NQMom=    2.0440000   2.0440000   0.0000000   0.0000000   2.0440000   0.0000000   2.0440000   0.0000000   0.0000000   0.0000000
 NMagM=    0.4037610   0.4037610   0.0000000   0.0000000   0.4037610   2.7928460   0.4037610   0.0000000   0.0000000   0.0000000
 AtZNuc=   7.0000000   7.0000000   6.0000000   6.0000000   7.0000000   1.0000000   7.0000000   6.0000000   6.0000000   6.0000000

  Atom        61          62          63          64          65          66          67          68          69          70
 IAtWgt=          14          12          14           1          12          12          14           1          14           1
 AtmWgt=  14.0030740  12.0000000  14.0030740   1.0078250  12.0000000  12.0000000  14.0030740   1.0078250  14.0030740   1.0078250
 NucSpn=           2           0           2           1           0           0           2           1           2           1
 AtZEff=  -0.0000000  -0.0000000  -0.0000000  -0.0000000  -0.0000000  -0.0000000  -0.0000000  -0.0000000  -0.0000000  -0.0000000
 NQMom=    2.0440000   0.0000000   2.0440000   0.0000000   0.0000000   0.0000000   2.0440000   0.0000000   2.0440000   0.0000000
 NMagM=    0.4037610   0.0000000   0.4037610   2.7928460   0.0000000   0.0000000   0.4037610   2.7928460   0.4037610   2.7928460
 AtZNuc=   7.0000000   6.0000000   7.0000000   1.0000000   6.0000000   6.0000000   7.0000000   1.0000000   7.0000000   1.0000000

  Atom        71          72          73          74          75          76          77          78          79          80
 IAtWgt=           1           1           1           1           1          12          12           1           1          12
 AtmWgt=   1.0078250   1.0078250   1.0078250   1.0078250   1.0078250  12.0000000  12.0000000   1.0078250   1.0078250  12.0000000
 NucSpn=           1           1           1           1           1           0           0           1           1           0
 AtZEff=  -0.0000000  -0.0000000  -0.0000000  -0.0000000  -0.0000000  -0.0000000  -0.0000000  -0.0000000  -0.0000000  -0.0000000
 NQMom=    0.0000000   0.0000000   0.0000000   0.0000000   0.0000000   0.0000000   0.0000000   0.0000000   0.0000000   0.0000000
 NMagM=    2.7928460   2.7928460   2.7928460   2.7928460   2.7928460   0.0000000   0.0000000   2.7928460   2.7928460   0.0000000
 AtZNuc=   1.0000000   1.0000000   1.0000000   1.0000000   1.0000000   6.0000000   6.0000000   1.0000000   1.0000000   6.0000000

  Atom        81          82          83          84          85          86          87          88          89          90
 IAtWgt=          12           1           1           1          12          12           1           1           1           1
 AtmWgt=  12.0000000   1.0078250   1.0078250   1.0078250  12.0000000  12.0000000   1.0078250   1.0078250   1.0078250   1.0078250
 NucSpn=           0           1           1           1           0           0           1           1           1           1
 AtZEff=  -0.0000000  -0.0000000  -0.0000000  -0.0000000  -0.0000000  -0.0000000  -0.0000000  -0.0000000  -0.0000000  -0.0000000
 NQMom=    0.0000000   0.0000000   0.0000000   0.0000000   0.0000000   0.0000000   0.0000000   0.0000000   0.0000000   0.0000000
 NMagM=    0.0000000   2.7928460   2.7928460   2.7928460   0.0000000   0.0000000   2.7928460   2.7928460   2.7928460   2.7928460
 AtZNuc=   6.0000000   1.0000000   1.0000000   1.0000000   6.0000000   6.0000000   1.0000000   1.0000000   1.0000000   1.0000000

  Atom        91          92          93          94          95          96          97          98          99         100
 IAtWgt=           1           1           1           1           1           1           1           1           1           1
 AtmWgt=   1.0078250   1.0078250   1.0078250   1.0078250   1.0078250   1.0078250   1.0078250   1.0078250   1.0078250   1.0078250
 NucSpn=           1           1           1           1           1           1           1           1           1           1
 AtZEff=  -0.0000000  -0.0000000  -0.0000000  -0.0000000  -0.0000000  -0.0000000  -0.0000000  -0.0000000  -0.0000000  -0.0000000
 NQMom=    0.0000000   0.0000000   0.0000000   0.0000000   0.0000000   0.0000000   0.0000000   0.0000000   0.0000000   0.0000000
 NMagM=    2.7928460   2.7928460   2.7928460   2.7928460   2.7928460   2.7928460   2.7928460   2.7928460   2.7928460   2.7928460
 AtZNuc=   1.0000000   1.0000000   1.0000000   1.0000000   1.0000000   1.0000000   1.0000000   1.0000000   1.0000000   1.0000000

  Atom       101         102         103         104         105         106         107         108         109         110
 IAtWgt=           1           1           1           1           1           1           1           1           1          12
 AtmWgt=   1.0078250   1.0078250   1.0078250   1.0078250   1.0078250   1.0078250   1.0078250   1.0078250   1.0078250  12.0000000
 NucSpn=           1           1           1           1           1           1           1           1           1           0
 AtZEff=  -0.0000000  -0.0000000  -0.0000000  -0.0000000  -0.0000000  -0.0000000  -0.0000000  -0.0000000  -0.0000000  -0.0000000
 NQMom=    0.0000000   0.0000000   0.0000000   0.0000000   0.0000000   0.0000000   0.0000000   0.0000000   0.0000000   0.0000000
 NMagM=    2.7928460   2.7928460   2.7928460   2.7928460   2.7928460   2.7928460   2.7928460   2.7928460   2.7928460   0.0000000
 AtZNuc=   1.0000000   1.0000000   1.0000000   1.0000000   1.0000000   1.0000000   1.0000000   1.0000000   1.0000000   6.0000000

  Atom       111         112         113         114         115         116         117
 IAtWgt=           1           1           1          12           1           1           1
 AtmWgt=   1.0078250   1.0078250   1.0078250  12.0000000   1.0078250   1.0078250   1.0078250
 NucSpn=           1           1           1           0           1           1           1
 AtZEff=  -0.0000000  -0.0000000  -0.0000000  -0.0000000  -0.0000000  -0.0000000  -0.0000000
 NQMom=    0.0000000   0.0000000   0.0000000   0.0000000   0.0000000   0.0000000   0.0000000
 NMagM=    2.7928460   2.7928460   2.7928460   0.0000000   2.7928460   2.7928460   2.7928460
 AtZNuc=   1.0000000   1.0000000   1.0000000   6.0000000   1.0000000   1.0000000   1.0000000
 Leave Link  101 at Mon Oct 18 13:16:08 2021, MaxMem=  7864320000 cpu:               3.7 elap:               0.1
 (Enter /apps/gaussian/g16-c01-avx/g16/l202.exe)
 Stoichiometry    C47H60N10
 Framework group  C1[X(C47H60N10)]
 Deg. of freedom   345
 Full point group                 C1      NOp   1
 Largest Abelian subgroup         C1      NOp   1
 Largest concise Abelian subgroup C1      NOp   1
                         Standard orientation:                         
 ---------------------------------------------------------------------
 Center     Atomic      Atomic             Coordinates (Angstroms)
 Number     Number       Type             X           Y           Z
 ---------------------------------------------------------------------
      1          6           0       -2.530528    2.457952   -0.535201
      2          6           0       -2.797442    3.357366    0.577289
      3          6           0       -3.255749    1.283195   -0.717855
      4          6           0       -2.922710    0.400773   -1.741886
      5          1           0       -4.080437    1.054732   -0.063154
      6          6           0       -1.829613    0.681240   -2.560025
      7          6           0       -1.100926    1.854913   -2.394886
      8          1           0       -1.555404   -0.018461   -3.337566
      9          6           0       -1.476456    2.748955   -1.395986
     10          6           0        0.081089    2.111986   -3.210617
     11          1           0       -0.906995    3.658632   -1.289898
     12          6           0       -3.680319   -0.822158   -1.961169
     13          1           0        0.441697    1.243130   -3.775095
     14          1           0       -2.270409    4.323092    0.537118
     15          1           0       -3.259448   -1.512653   -2.708252
     16          6           0        0.529899   -3.552440   -0.954428
     17          6           0        1.171023   -3.836214   -2.299134
     18          6           0        1.315164   -3.430603    0.179955
     19          6           0        0.738495   -3.121113    1.411340
     20          1           0        2.383635   -3.556074    0.117999
     21          6           0       -0.638478   -2.939462    1.491775
     22          6           0       -1.440949   -3.111373    0.368467
     23          1           0       -1.091946   -2.686337    2.440918
     24          6           0       -0.846210   -3.418229   -0.854126
     25          6           0       -2.887190   -2.960002    0.483813
     26          1           0       -1.469250   -3.531190   -1.726203
     27          6           0        1.564333   -2.965907    2.597443
     28          1           0       -3.222039   -2.436397    1.388039
     29          1           0        1.046729   -2.587242    3.493890
     30          6           0        0.613619    2.115977    2.388900
     31          6           0       -0.596176    2.231322    3.197408
     32          6           0        0.824927    2.979178    1.315549
     33          6           0        1.898985    2.794924    0.452486
     34          1           0        0.113329    3.773713    1.156574
     35          6           0        2.795810    1.754831    0.692914
     36          6           0        2.633334    0.923561    1.795099
     37          1           0        3.623139    1.620141    0.013315
     38          6           0        1.530468    1.099461    2.629790
     39          6           0        3.596863   -0.141960    2.053916
     40          1           0        1.409161    0.425052    3.463790
     41          6           0        2.029709    3.657326   -0.711106
     42          1           0        4.253063   -0.380289    1.209650
     43          1           0        1.369259    4.537393   -0.718167
     44          6           0       -2.615332    3.375293    3.770776
     45          6           0       -3.578723    3.921139    2.675771
     46          7           0       -1.349902    3.235246    3.100758
     47          7           0       -3.534551    3.042173    1.551639
     48          1           0       -3.259019    4.942417    2.416955
     49          6           0        2.468653   -1.948244   -2.839884
     50          6           0        0.978214   -1.791833   -3.277235
     51          7           0        2.538575   -3.322005   -2.324969
     52          7           0        0.428190   -3.135467   -3.344791
     53          6           0       -5.402034   -2.321757   -1.564268
     54          6           0       -5.090275   -3.269013   -0.370731
     55          7           0       -4.755860   -1.069177   -1.349710
     56          1           0       -6.480040   -2.150035   -1.602577
     57          7           0       -3.662078   -3.426730   -0.392369
     58          6           0       -5.687592   -4.649711   -0.663180
     59          6           0        1.859881    3.551903   -3.902596
     60          6           0        2.744645    4.246530   -2.825398
     61          7           0        0.634437    3.242741   -3.217675
     62          6           0        2.623864    2.364628   -4.496041
     63          7           0        2.814171    3.409001   -1.669251
     64          1           0        2.298383    5.226491   -2.598039
     65          6           0        3.566532   -2.996657    3.774862
     66          6           0        4.520882   -1.802818    3.494299
     67          7           0        2.792688   -3.252266    2.605741
     68          1           0        2.942231   -2.749331    4.648666
     69          7           0        3.645485   -0.707297    3.178023
     70          1           0       -0.792350    1.369183    3.846684
     71          1           0        0.638695   -3.551154   -4.248684
     72          1           0        1.155401   -4.918528   -2.471867
     73          1           0        3.134752   -3.896062   -2.909574
     74          1           0       -4.596702    3.938996    3.069485
     75          1           0       -5.066002   -2.814854   -2.489464
     76          6           0       -5.699818   -2.687917    0.908794
     77          6           0        1.523656    4.566149   -5.001977
     78          1           0        3.752747    4.381208   -3.222326
     79          1           0        4.168741   -3.882501    3.990561
     80          6           0        5.530308   -2.206086    2.415901
     81          6           0        5.247581   -1.427193    4.790212
     82          1           0        6.158641   -1.359938    2.143333
     83          1           0        5.010313   -2.576208    1.536050
     84          1           0        6.167512   -2.998467    2.799328
     85          6           0       -2.444015    4.439389    4.861036
     86          6           0       -3.202902    2.093414    4.368033
     87          1           0       -1.974312    5.327357    4.445983
     88          1           0       -1.809436    4.054316    5.656433
     89          1           0       -3.410673    4.709171    5.278530
     90          1           0        0.919762    5.371774   -4.592981
     91          1           0        0.957113    4.079091   -5.792762
     92          1           0        2.435295    4.981406   -5.423834
     93          1           0       -6.783472   -2.704162    0.828943
     94          1           0       -5.380788   -1.657961    1.046240
     95          1           0       -5.408027   -3.281251    1.773696
     96          1           0       -4.181123    2.306462    4.790591
     97          1           0       -2.567565    1.705058    5.161691
     98          1           0       -3.314832    1.342893    3.589125
     99          1           0        2.895562    1.669219   -3.705363
    100          1           0        3.532867    2.721915   -4.973019
    101          1           0        2.024559    1.851203   -5.245970
    102          1           0        5.955759   -0.625050    4.595150
    103          1           0        5.785052   -2.284624    5.187147
    104          1           0        4.531021   -1.080287    5.529784
    105          1           0       -6.755413   -4.571855   -0.851257
    106          1           0       -5.525460   -5.307126    0.187918
    107          1           0       -5.201138   -5.085846   -1.531277
    108          1           0        0.876016   -1.277876   -4.232410
    109          1           0        0.428860   -1.242657   -2.507776
    110          6           0        2.820307   -0.963585   -1.723793
    111          1           0        2.664037    0.061674   -2.052037
    112          1           0        3.862073   -1.089333   -1.439334
    113          1           0        2.198562   -1.147567   -0.851606
    114          6           0        3.416370   -1.761432   -4.025484
    115          1           0        3.144946   -2.423691   -4.848044
    116          1           0        4.439023   -1.983016   -3.726045
    117          1           0        3.379225   -0.735419   -4.383700
 ---------------------------------------------------------------------
 Rotational constants (GHZ):           0.0442393           0.0415164           0.0388546
 Leave Link  202 at Mon Oct 18 13:16:08 2021, MaxMem=  7864320000 cpu:               0.3 elap:               0.0
 (Enter /apps/gaussian/g16-c01-avx/g16/l301.exe)
 Standard basis: def2TZVP (5D, 7F)
 Ernie: Thresh=  0.10000D-02 Tol=  0.10000D-05 Strict=F.
 There are  2412 symmetry adapted cartesian basis functions of A   symmetry.
 There are  2127 symmetry adapted basis functions of A   symmetry.
  2127 basis functions,  3387 primitive gaussians,  2412 cartesian basis functions
   206 alpha electrons      206 beta electrons
       nuclear repulsion energy      8493.5020635774 Hartrees.
 IExCor= 1009 DFT=T Ex+Corr=PBE1PBE ExCW=0 ScaHFX=  0.250000
 ScaDFX=  0.750000  0.750000  1.000000  1.000000 ScalE2=  1.000000  1.000000
 IRadAn=      7 IRanWt=     -1 IRanGd=            0 ICorTp=0 IEmpDi=131
 NAtoms=  117 NActive=  117 NUniq=  117 SFac= 1.00D+00 NAtFMM=   60 NAOKFM=T Big=T
 Integral buffers will be    131072 words long.
 Raffenetti 2 integral format.
 Two-electron integral symmetry is turned on.
 R6Disp:  Grimme-D3 Dispersion energy=       -0.1080954505 Hartrees.
 Nuclear repulsion after empirical dispersion term =     8493.3939681269 Hartrees.
 ------------------------------------------------------------------------------
 Polarizable Continuum Model (PCM)
 =================================
 Model                : PCM.
 Atomic radii         : UFF (Universal Force Field).
 Polarization charges : Total charges.
 Charge compensation  : None.
 Solution method      : On-the-fly selection.
 Cavity type          : Scaled VdW (van der Waals Surface) (Alpha=1.100).
 Cavity algorithm     : GePol (No added spheres)
                        Default sphere list used, NSphG=  117.
                        Lebedev-Laikov grids with approx.  5.0 points / Ang**2.
                        Smoothing algorithm: York/Karplus (Gamma=1.0000).
                        Polarization charges: spherical gaussians, with
                                              point-specific exponents (IZeta= 3).
                        Self-potential: point-specific (ISelfS= 7).
                        Self-field    : sphere-specific E.n sum rule (ISelfD= 2).
 Solvent              : Dichloromethane, Eps=   8.930000 Eps(inf)=   2.028346
 ------------------------------------------------------------------------------
 GePol: Number of generator spheres                  =     117
 GePol: Total number of spheres                      =     117
 GePol: Number of exposed spheres                    =     117 (100.00%)
 GePol: Number of points                             =    6650
 GePol: Average weight of points                     =       0.13
 GePol: Minimum weight of points                     =   0.61D-11
 GePol: Maximum weight of points                     =    0.20577
 GePol: Number of points with low weight             =     561
 GePol: Fraction of low-weight points (<1% of avg)   =       8.44%
 GePol: Cavity surface area                          =    848.747 Ang**2
 GePol: Cavity volume                                =   1093.493 Ang**3
 Leave Link  301 at Mon Oct 18 13:16:08 2021, MaxMem=  7864320000 cpu:               2.5 elap:               0.1
 (Enter /apps/gaussian/g16-c01-avx/g16/l302.exe)
 NPDir=0 NMtPBC=     1 NCelOv=     1 NCel=       1 NClECP=     1 NCelD=      1
         NCelK=      1 NCelE2=     1 NClLst=     1 CellRange=     0.0.
 One-electron integrals computed using PRISM.
 One-electron integral symmetry used in STVInt
   1 Symmetry operations used in ECPInt.
 ECPInt:  NShTT=  376278 NPrTT= 1127184 LenC2=  268587 LenP2D=  519081.
 LDataN:  DoStor=T MaxTD1= 6 Len=  172
 NBasis=  2127 RedAO= T EigKep=  4.35D-06  NBF=  2127
 NBsUse=  2127 1.00D-06 EigRej= -1.00D+00 NBFU=  2127
 Precomputing XC quadrature grid using
 IXCGrd= 4 IRadAn=           7 IRanWt=          -1 IRanGd=           0 AccXCQ= 0.00D+00.
 Generated NRdTot=       0 NPtTot=           0 NUsed=           0 NTot=          32
 NSgBfM=  2076  2072  2072  2073  2076 MxSgAt=   117 MxSgA2=   117.
 Leave Link  302 at Mon Oct 18 13:16:25 2021, MaxMem=  7864320000 cpu:             546.1 elap:              17.2
 (Enter /apps/gaussian/g16-c01-avx/g16/l303.exe)
 DipDrv:  MaxL=1.
 Leave Link  303 at Mon Oct 18 13:16:26 2021, MaxMem=  7864320000 cpu:              24.7 elap:               1.0
 (Enter /apps/gaussian/g16-c01-avx/g16/l401.exe)
 ExpMin= 9.52D-02 ExpMax= 1.97D+04 ExpMxC= 6.73D+02 IAcc=3 IRadAn=         7 AccDes= 0.00D+00
 Harris functional with IExCor= 1009 and IRadAn=       7 diagonalized for initial guess.
 HarFok:  IExCor= 1009 AccDes= 0.00D+00 IRadAn=         7 IDoV= 1 UseB2=F ITyADJ=14
 ICtDFT=  3500011 ScaDFX=  1.000000  1.000000  1.000000  1.000000
 FoFCou: FMM=F IPFlag=           0 FMFlag=      100000 FMFlg1=        2001
         NFxFlg=           0 DoJE=T BraDBF=F KetDBF=T FulRan=T
         wScrn=  0.000000 ICntrl=       500 IOpCl=  0 I1Cent=   200000004 NGrid=           0
         NMat0=    1 NMatS0=      1 NMatT0=    0 NMatD0=    1 NMtDS0=    0 NMtDT0=    0
 Petite list used in FoFCou.
 Harris En= -2373.42515247069    
 JPrj=0 DoOrth=F DoCkMO=F.
 Leave Link  401 at Mon Oct 18 13:17:11 2021, MaxMem=  7864320000 cpu:            1418.3 elap:              44.8
 (Enter /apps/gaussian/g16-c01-avx/g16/l508.exe)
 Integral symmetry usage will be decided dynamically.
 Tight linear equation convergence will be used.
 RPBE1PBE wavefunction.
 Linear searches until partial convergence.
 Full line searches.
 Fock matrices will be formed incrementally for  20 cycles.
 Inv3:  Mode=1 IEnd=   132667500.
 Iteration    1 A*A^-1 deviation from unit magnitude is 6.66D-15 for   6647.
 Iteration    1 A*A^-1 deviation from orthogonality  is 3.18D-15 for   6623   5086.
 Iteration    1 A^-1*A deviation from unit magnitude is 6.66D-15 for   6647.
 Iteration    1 A^-1*A deviation from orthogonality  is 1.48D-14 for   5113   5050.
 FoFJK:  IHMeth= 1 ICntrl=       0 DoSepK=F KAlg= 0 I1Cent=           0 FoldK=F
 IRaf= 690000000 NMat=       1 IRICut=       1 DoRegI=T DoRafI=F ISym2E= 1 IDoP0=0 IntGTp=1.
 Iteration   1 EE= -2371.40264388718                                    Grad=1.701D+00 Max rot=    1.9755 deg.
 Gradient too large for Newton-Raphson -- use scaled steepest descent instead.
 Alpha Gap=     0.152 HL deriv= 7.83D-03
     ILin= 1 X=0.000D+00 Y=-2.371402643887D+03 DE= 0.00D+00 F= -5.46D+00
 RMSU=  5.25D-04    CP:  9.99D-01
     ILin= 2 X=3.000D-01 Y=-2.372499359818D+03 DE=-1.10D+00 F= -1.84D+00 OKLS=F
 RMSU=  9.83D-05    CP:  1.00D+00  1.74D+00
     ILin= 3 X=5.000D-01 Y=-2.372625461792D+03 DE=-1.22D+00 F=  5.83D-01
     Accept linear search using points  2 and  3.
     An  expanding polynomial of degree  3 produced  0.3887
 RMSU=  4.05D-08    CP:  1.00D+00  1.32D+00  3.45D-01
 Iteration   2 EE= -2372.61518007491     Delta-E=       -1.212536187732 Grad=5.407D-01 Max rot=    1.5428 deg.
 Gradient too large for Newton-Raphson -- use scaled steepest descent instead.
 Alpha Gap=     0.191 HL deriv= 3.45D-03
     ILin= 1 X=0.000D+00 Y=-2.372615180075D+03 DE= 0.00D+00 F= -2.69D-01
 RMSU=  9.17D-05    CP:  9.99D-01  1.60D+00  7.41D-01 -3.00D+00
     ILin= 2 X=3.000D-01 Y=-2.372677111284D+03 DE=-6.19D-02 F= -1.43D-01 OKLS=F
 RMSU=  1.57D-05    CP:  9.99D-01  2.00D+00  1.56D+00 -3.00D+00  2.36D+00
     ILin= 3 X=7.000D-01 Y=-2.372700806507D+03 DE=-8.56D-02 F=  2.49D-02
     Accept linear search using points  2 and  3.
     An  expanding polynomial of degree  3 produced  0.5179
 RMSU=  2.92D-08    CP:  9.99D-01  1.82D+00  1.15D+00 -3.00D+00  1.74D+00
                    CP:  4.03D-01
 Iteration   3 EE= -2372.69836900430     Delta-E=       -0.083188929395 Grad=2.244D-01 Max rot=    0.7291 deg.
 Gradient too large for Newton-Raphson -- use scaled steepest descent instead.
 Alpha Gap=     0.176 HL deriv= 4.13D-04
     ILin= 1 X=0.000D+00 Y=-2.372698369004D+03 DE= 0.00D+00 F= -3.44D-02
 RMSU=  4.29D-05    CP:  1.00D+00  2.00D+00  1.61D+00 -3.00D+00  2.43D+00
                    CP:  8.60D-01 -3.00D+00
     ILin= 2 X=4.000D-01 Y=-2.372707619443D+03 DE=-9.25D-03 F= -1.19D-02 OKLS=F
 RMSU=  2.83D-05    CP:  1.00D+00  2.24D+00  2.30D+00 -3.00D+00  3.00D+00
                    CP:  1.80D+00 -3.00D+00  2.26D+00
     ILin= 3 X=9.000D-01 Y=-2.372706526202D+03 DE=-8.16D-03 F=  1.62D-02
     An  expanding polynomial of degree  3 produced  0.6111
 RMSU=  1.05D-06    CP:  1.00D+00  2.10D+00  1.88D+00 -3.00D+00  2.80D+00
                    CP:  1.21D+00 -3.00D+00  1.53D+00  4.87D-03
 Iteration   4 EE= -2372.70887278864     Delta-E=       -0.010503784337 Grad=9.527D-02 Max rot=    0.2935 deg.
 Gradient too large for Newton-Raphson -- use scaled steepest descent instead.
 Alpha Gap=     0.180 HL deriv= 2.32D-04
     ILin= 1 X=0.000D+00 Y=-2.372708872789D+03 DE= 0.00D+00 F= -1.15D-02
 RMSU=  3.94D-05    CP:  1.00D+00  2.16D+00  2.06D+00 -3.00D+00  3.00D+00
                    CP:  1.36D+00 -3.00D+00  1.59D+00  8.24D-01 -1.94D+00
     ILin= 2 X=6.000D-01 Y=-2.372710112878D+03 DE=-1.24D-03 F=  7.31D-03 OKLS=T
     Accept linear search using points  1 and  2.
     An  expanding polynomial of degree  2 produced  0.3268
 RMSU=  1.93D-07    CP:  1.00D+00  2.13D+00  1.98D+00 -3.00D+00  3.00D+00
                    CP:  1.28D+00 -3.00D+00  1.56D+00  1.57D-01  4.19D-01
                    CP:  5.43D-01
 Iteration   5 EE= -2372.71094471868     Delta-E=       -0.002071930036 Grad=5.220D-02 Max rot=    0.1764 deg.
 Gradient too large for Newton-Raphson -- use scaled steepest descent instead.
 Alpha Gap=     0.179 HL deriv= 4.28D-04
     ILin= 1 X=0.000D+00 Y=-2.372710944719D+03 DE= 0.00D+00 F= -1.36D-03
 RMSU=  6.64D-06    CP:  1.00D+00  2.19D+00  2.15D+00 -3.00D+00  3.00D+00
                    CP:  1.52D+00 -3.00D+00  1.87D+00  8.35D-01 -6.46D-01
                    CP:  7.46D-01  2.54D+00
     ILin= 2 X=4.000D-01 Y=-2.372711366657D+03 DE=-4.22D-04 F= -7.47D-04 OKLS=F
 RMSU=  2.47D-07    CP:  1.00D+00  2.26D+00  2.39D+00 -3.00D+00  3.00D+00
                    CP:  1.86D+00 -3.00D+00  2.25D+00  1.69D+00 -1.64D+00
                    CP:  1.00D+00  3.00D+00  2.26D+00
     ILin= 3 X=9.000D-01 Y=-2.372711547679D+03 DE=-6.03D-04 F=  2.29D-05
     Accept linear search using points  2 and  3.
     An  expanding polynomial of degree  3 produced  0.7655
 RMSU=  6.56D-09    CP:  1.00D+00  2.24D+00  2.32D+00 -3.00D+00  3.00D+00
                    CP:  1.76D+00 -3.00D+00  2.15D+00  1.46D+00 -1.41D+00
                    CP:  9.32D-01  3.00D+00  1.92D+00  6.29D-01
 Iteration   6 EE= -2372.71153682845     Delta-E=       -0.000592109775 Grad=1.401D-02 Max rot=    0.0382 deg.
 Gradient too large for Newton-Raphson -- use scaled steepest descent instead.
 Alpha Gap=     0.179 HL deriv= 2.24D-05
     ILin= 1 X=0.000D+00 Y=-2.372711536828D+03 DE= 0.00D+00 F= -2.41D-04
 RMSU=  2.39D-06    CP:  1.00D+00  2.26D+00  2.38D+00 -3.00D+00  3.00D+00
                    CP:  1.82D+00 -3.00D+00  2.22D+00  1.72D+00 -1.92D+00
                    CP:  1.15D+00  1.94D+00  2.33D+00  7.24D-01 -3.00D+00
     ILin= 2 X=5.000D-01 Y=-2.372711580654D+03 DE=-4.38D-05 F=  6.59D-05 OKLS=T
     Accept linear search using points  1 and  2.
     An  expanding polynomial of degree  2 produced  0.2912
 RMSU=  8.43D-09    CP:  1.00D+00  2.25D+00  2.36D+00 -3.00D+00  3.00D+00
                    CP:  1.80D+00 -3.00D+00  2.19D+00  1.61D+00 -1.71D+00
                    CP:  1.06D+00  2.53D+00  2.16D+00  6.51D-01 -3.00D+00
                    CP:  5.82D-01
 Iteration   7 EE= -2372.71158102396     Delta-E=       -0.000044195513 Grad=8.400D-03 Max rot=    0.0234 deg.
 SCF Done:  E(RPBE1PBE) =  -2372.71158102     a.u. after    7 cycles
            Convg  =    0.8400D-02                    17 Fock formations.
              S**2 =  0.0000                  -V/T =  2.0047
 Leave Link  508 at Mon Oct 18 14:44:17 2021, MaxMem=  7864320000 cpu:          164974.0 elap:            5225.8
 (Enter /apps/gaussian/g16-c01-avx/g16/l502.exe)
 Integral symmetry usage will be decided dynamically.
 Closed shell SCF:
 Using DIIS extrapolation, IDIIS=  1040.
 NGot=  7864320000 LenX=  7852583378 LenY=  7846763222
 Requested convergence on RMS density matrix=1.00D-08 within 128 cycles.
 Requested convergence on MAX density matrix=1.00D-06.
 Requested convergence on             energy=1.00D-06.
 No special actions if energy rises.
 Fock matrices will be formed incrementally for  20 cycles.

 Cycle   1  Pass 1  IDiag  1:
 FoFJK:  IHMeth= 1 ICntrl=       0 DoSepK=F KAlg= 0 I1Cent=           0 FoldK=F
 IRaf= 690000000 NMat=       1 IRICut=       1 DoRegI=T DoRafI=F ISym2E= 0 IDoP0=0 IntGTp=1.
 FoFCou: FMM=T IPFlag=           0 FMFlag=      100000 FMFlg1=        2001
         NFxFlg=           0 DoJE=F BraDBF=F KetDBF=F FulRan=T
         wScrn=  0.000000 ICntrl=         0 IOpCl=  0 I1Cent=           0 NGrid=           0
         NMat0=    1 NMatS0=      1 NMatT0=    0 NMatD0=    1 NMtDS0=    0 NMtDT0=    0
 Symmetry not used in FoFCou.
 FMM levels:  10  Number of levels for PrismC:   9
 E= -2372.71158102396    
 DIIS: error= 4.20D-05 at cycle   1 NSaved=   1.
 NSaved= 1 IEnMin= 1 EnMin= -2372.71158102396     IErMin= 1 ErrMin= 4.20D-05
 ErrMax= 4.20D-05  0.00D+00 EMaxC= 1.00D-01 BMatC= 3.53D-05 BMatP= 3.53D-05
 IDIUse=1 WtCom= 1.00D+00 WtEn= 0.00D+00
 Coeff-Com:  0.100D+01
 Coeff:      0.100D+01
 Gap=     0.179 Goal=   None    Shift=    0.000
 RMSDP=3.16D-05 MaxDP=8.10D-03              OVMax= 7.75D-04

 Cycle   2  Pass 1  IDiag  1:
 RMSU=  2.99D-05    CP:  1.00D+00
 E= -2372.71160392663     Delta-E=       -0.000022902674 Rises=F Damp=F
 DIIS: error= 4.96D-06 at cycle   2 NSaved=   2.
 NSaved= 2 IEnMin= 2 EnMin= -2372.71160392663     IErMin= 2 ErrMin= 4.96D-06
 ErrMax= 4.96D-06  0.00D+00 EMaxC= 1.00D-01 BMatC= 3.17D-07 BMatP= 3.53D-05
 IDIUse=1 WtCom= 1.00D+00 WtEn= 0.00D+00
 Coeff-Com: -0.128D-02 0.100D+01
 Coeff:     -0.128D-02 0.100D+01
 Gap=     0.170 Goal=   None    Shift=    0.000
 RMSDP=2.69D-06 MaxDP=6.02D-04 DE=-2.29D-05 OVMax= 2.01D-04

 Cycle   3  Pass 1  IDiag  1:
 RMSU=  1.24D-06    CP:  1.00D+00  1.08D+00
 E= -2372.71160385591     Delta-E=        0.000000070722 Rises=F Damp=F
 DIIS: error= 6.14D-06 at cycle   3 NSaved=   3.
 NSaved= 3 IEnMin= 2 EnMin= -2372.71160392663     IErMin= 2 ErrMin= 4.96D-06
 ErrMax= 6.14D-06  0.00D+00 EMaxC= 1.00D-01 BMatC= 4.68D-07 BMatP= 3.17D-07
 IDIUse=1 WtCom= 1.00D+00 WtEn= 0.00D+00
 Coeff-Com: -0.728D-02 0.563D+00 0.445D+00
 Coeff:     -0.728D-02 0.563D+00 0.445D+00
 Gap=     0.170 Goal=   None    Shift=    0.000
 RMSDP=9.14D-07 MaxDP=2.21D-04 DE= 7.07D-08 OVMax= 1.67D-04

 Cycle   4  Pass 1  IDiag  1:
 RMSU=  7.01D-07    CP:  1.00D+00  1.06D+00  6.66D-01
 E= -2372.71160424002     Delta-E=       -0.000000384107 Rises=F Damp=F
 DIIS: error= 2.28D-06 at cycle   4 NSaved=   4.
 NSaved= 4 IEnMin= 4 EnMin= -2372.71160424002     IErMin= 4 ErrMin= 2.28D-06
 ErrMax= 2.28D-06  0.00D+00 EMaxC= 1.00D-01 BMatC= 5.21D-08 BMatP= 3.17D-07
 IDIUse=1 WtCom= 1.00D+00 WtEn= 0.00D+00
 Coeff-Com: -0.290D-02 0.660D-01 0.253D+00 0.684D+00
 Coeff:     -0.290D-02 0.660D-01 0.253D+00 0.684D+00
 Gap=     0.170 Goal=   None    Shift=    0.000
 RMSDP=3.33D-07 MaxDP=8.79D-05 DE=-3.84D-07 OVMax= 4.33D-05

 Cycle   5  Pass 1  IDiag  1:
 RMSU=  1.22D-07    CP:  1.00D+00  1.07D+00  7.61D-01  8.18D-01
 E= -2372.71160427991     Delta-E=       -0.000000039898 Rises=F Damp=F
 DIIS: error= 1.12D-06 at cycle   5 NSaved=   5.
 NSaved= 5 IEnMin= 5 EnMin= -2372.71160427991     IErMin= 5 ErrMin= 1.12D-06
 ErrMax= 1.12D-06  0.00D+00 EMaxC= 1.00D-01 BMatC= 9.56D-09 BMatP= 5.21D-08
 IDIUse=1 WtCom= 1.00D+00 WtEn= 0.00D+00
 Coeff-Com: -0.139D-02-0.798D-02 0.123D+00 0.431D+00 0.455D+00
 Coeff:     -0.139D-02-0.798D-02 0.123D+00 0.431D+00 0.455D+00
 Gap=     0.170 Goal=   None    Shift=    0.000
 RMSDP=5.98D-08 MaxDP=2.28D-05 DE=-3.99D-08 OVMax= 1.23D-05

 Cycle   6  Pass 1  IDiag  1:
 RMSU=  3.36D-08    CP:  1.00D+00  1.07D+00  7.82D-01  8.43D-01  7.02D-01
 E= -2372.71160428873     Delta-E=       -0.000000008815 Rises=F Damp=F
 DIIS: error= 1.51D-07 at cycle   6 NSaved=   6.
 NSaved= 6 IEnMin= 6 EnMin= -2372.71160428873     IErMin= 6 ErrMin= 1.51D-07
 ErrMax= 1.51D-07  0.00D+00 EMaxC= 1.00D-01 BMatC= 9.89D-11 BMatP= 9.56D-09
 IDIUse=1 WtCom= 1.00D+00 WtEn= 0.00D+00
 Coeff-Com: -0.366D-03-0.550D-02 0.317D-01 0.112D+00 0.140D+00 0.723D+00
 Coeff:     -0.366D-03-0.550D-02 0.317D-01 0.112D+00 0.140D+00 0.723D+00
 Gap=     0.170 Goal=   None    Shift=    0.000
 RMSDP=1.54D-08 MaxDP=3.58D-06 DE=-8.81D-09 OVMax= 4.82D-06

 Cycle   7  Pass 1  IDiag  1:
 RMSU=  1.17D-08    CP:  1.00D+00  1.07D+00  7.81D-01  8.57D-01  7.10D-01
                    CP:  9.55D-01
 E= -2372.71160428896     Delta-E=       -0.000000000235 Rises=F Damp=F
 DIIS: error= 9.92D-08 at cycle   7 NSaved=   7.
 NSaved= 7 IEnMin= 7 EnMin= -2372.71160428896     IErMin= 7 ErrMin= 9.92D-08
 ErrMax= 9.92D-08  0.00D+00 EMaxC= 1.00D-01 BMatC= 4.82D-11 BMatP= 9.89D-11
 IDIUse=1 WtCom= 1.00D+00 WtEn= 0.00D+00
 Coeff-Com: -0.998D-06-0.200D-02-0.960D-04-0.317D-02 0.607D-02 0.418D+00
 Coeff-Com:  0.581D+00
 Coeff:     -0.998D-06-0.200D-02-0.960D-04-0.317D-02 0.607D-02 0.418D+00
 Coeff:      0.581D+00
 Gap=     0.170 Goal=   None    Shift=    0.000
 RMSDP=7.42D-09 MaxDP=1.45D-06 DE=-2.35D-10 OVMax= 1.73D-06

 Cycle   8  Pass 1  IDiag  1:
 RMSU=  4.09D-09    CP:  1.00D+00  1.07D+00  7.84D-01  8.56D-01  7.17D-01
                    CP:  1.07D+00  7.03D-01
 E= -2372.71160428901     Delta-E=       -0.000000000044 Rises=F Damp=F
 DIIS: error= 3.24D-08 at cycle   8 NSaved=   8.
 NSaved= 8 IEnMin= 8 EnMin= -2372.71160428901     IErMin= 8 ErrMin= 3.24D-08
 ErrMax= 3.24D-08  0.00D+00 EMaxC= 1.00D-01 BMatC= 5.55D-12 BMatP= 4.82D-11
 IDIUse=1 WtCom= 1.00D+00 WtEn= 0.00D+00
 Coeff-Com:  0.399D-04-0.586D-03-0.300D-02-0.131D-01-0.115D-01 0.158D+00
 Coeff-Com:  0.328D+00 0.543D+00
 Coeff:      0.399D-04-0.586D-03-0.300D-02-0.131D-01-0.115D-01 0.158D+00
 Coeff:      0.328D+00 0.543D+00
 Gap=     0.170 Goal=   None    Shift=    0.000
 RMSDP=2.23D-09 MaxDP=4.50D-07 DE=-4.37D-11 OVMax= 6.40D-07

 Error on total polarization charges =  0.02467
 SCF Done:  E(RPBE1PBE) =  -2372.71160429     A.U. after    8 cycles
            NFock=  8  Conv=0.22D-08     -V/T= 2.0046
 KE= 2.361778877876D+03 PE=-2.250372456814D+04 EE= 9.275840117848D+03
 Leave Link  502 at Mon Oct 18 15:25:45 2021, MaxMem=  7864320000 cpu:           78614.4 elap:            2487.6
 (Enter /apps/gaussian/g16-c01-avx/g16/l508.exe)
 QCSCF skips out because SCF is already converged.
 Leave Link  508 at Mon Oct 18 15:25:45 2021, MaxMem=  7864320000 cpu:               0.0 elap:               0.0
 (Enter /apps/gaussian/g16-c01-avx/g16/l601.exe)
 Copying SCF densities to generalized density rwf, IOpCl= 0 IROHF=0.
 Hyperfine terms turned off by default for NAtoms > 100.

 **********************************************************************

            Population analysis using the SCF Density.

 **********************************************************************

 Orbital symmetries:
       Occupied  (A) (A) (A) (A) (A) (A) (A) (A) (A) (A) (A) (A)
                 (A) (A) (A) (A) (A) (A) (A) (A) (A) (A) (A) (A)
                 (A) (A) (A) (A) (A) (A) (A) (A) (A) (A) (A) (A)
                 (A) (A) (A) (A) (A) (A) (A) (A) (A) (A) (A) (A)
                 (A) (A) (A) (A) (A) (A) (A) (A) (A) (A) (A) (A)
                 (A) (A) (A) (A) (A) (A) (A) (A) (A) (A) (A) (A)
                 (A) (A) (A) (A) (A) (A) (A) (A) (A) (A) (A) (A)
                 (A) (A) (A) (A) (A) (A) (A) (A) (A) (A) (A) (A)
                 (A) (A) (A) (A) (A) (A) (A) (A) (A) (A) (A) (A)
                 (A) (A) (A) (A) (A) (A) (A) (A) (A) (A) (A) (A)
                 (A) (A) (A) (A) (A) (A) (A) (A) (A) (A) (A) (A)
                 (A) (A) (A) (A) (A) (A) (A) (A) (A) (A) (A) (A)
                 (A) (A) (A) (A) (A) (A) (A) (A) (A) (A) (A) (A)
                 (A) (A) (A) (A) (A) (A) (A) (A) (A) (A) (A) (A)
                 (A) (A) (A) (A) (A) (A) (A) (A) (A) (A) (A) (A)
                 (A) (A) (A) (A) (A) (A) (A) (A) (A) (A) (A) (A)
                 (A) (A) (A) (A) (A) (A) (A) (A) (A) (A) (A) (A)
                 (A) (A)
       Virtual   (A) (A) (A) (A) (A) (A) (A) (A) (A) (A) (A) (A)
                 (A) (A) (A) (A) (A) (A) (A) (A) (A) (A) (A) (A)
                 (A) (A) (A) (A) (A) (A) (A) (A) (A) (A) (A) (A)
                 (A) (A) (A) (A) (A) (A) (A) (A) (A) (A) (A) (A)
                 (A) (A) (A) (A) (A) (A) (A) (A) (A) (A) (A) (A)
                 (A) (A) (A) (A) (A) (A) (A) (A) (A) (A) (A) (A)
                 (A) (A) (A) (A) (A) (A) (A) (A) (A) (A) (A) (A)
                 (A) (A) (A) (A) (A) (A) (A) (A) (A) (A) (A) (A)
                 (A) (A) (A) (A) (A) (A) (A) (A) (A) (A) (A) (A)
                 (A) (A) (A) (A) (A) (A) (A) (A) (A) (A) (A) (A)
                 (A) (A) (A) (A) (A) (A) (A) (A) (A) (A) (A) (A)
                 (A) (A) (A) (A) (A) (A) (A) (A) (A) (A) (A) (A)
                 (A) (A) (A) (A) (A) (A) (A) (A) (A) (A) (A) (A)
                 (A) (A) (A) (A) (A) (A) (A) (A) (A) (A) (A) (A)
                 (A) (A) (A) (A) (A) (A) (A) (A) (A) (A) (A) (A)
                 (A) (A) (A) (A) (A) (A) (A) (A) (A) (A) (A) (A)
                 (A) (A) (A) (A) (A) (A) (A) (A) (A) (A) (A) (A)
                 (A) (A) (A) (A) (A) (A) (A) (A) (A) (A) (A) (A)
                 (A) (A) (A) (A) (A) (A) (A) (A) (A) (A) (A) (A)
                 (A) (A) (A) (A) (A) (A) (A) (A) (A) (A) (A) (A)
                 (A) (A) (A) (A) (A) (A) (A) (A) (A) (A) (A) (A)
                 (A) (A) (A) (A) (A) (A) (A) (A) (A) (A) (A) (A)
                 (A) (A) (A) (A) (A) (A) (A) (A) (A) (A) (A) (A)
                 (A) (A) (A) (A) (A) (A) (A) (A) (A) (A) (A) (A)
                 (A) (A) (A) (A) (A) (A) (A) (A) (A) (A) (A) (A)
                 (A) (A) (A) (A) (A) (A) (A) (A) (A) (A) (A) (A)
                 (A) (A) (A) (A) (A) (A) (A) (A) (A) (A) (A) (A)
                 (A) (A) (A) (A) (A) (A) (A) (A) (A) (A) (A) (A)
                 (A) (A) (A) (A) (A) (A) (A) (A) (A) (A) (A) (A)
                 (A) (A) (A) (A) (A) (A) (A) (A) (A) (A) (A) (A)
                 (A) (A) (A) (A) (A) (A) (A) (A) (A) (A) (A) (A)
                 (A) (A) (A) (A) (A) (A) (A) (A) (A) (A) (A) (A)
                 (A) (A) (A) (A) (A) (A) (A) (A) (A) (A) (A) (A)
                 (A) (A) (A) (A) (A) (A) (A) (A) (A) (A) (A) (A)
                 (A) (A) (A) (A) (A) (A) (A) (A) (A) (A) (A) (A)
                 (A) (A) (A) (A) (A) (A) (A) (A) (A) (A) (A) (A)
                 (A) (A) (A) (A) (A) (A) (A) (A) (A) (A) (A) (A)
                 (A) (A) (A) (A) (A) (A) (A) (A) (A) (A) (A) (A)
                 (A) (A) (A) (A) (A) (A) (A) (A) (A) (A) (A) (A)
                 (A) (A) (A) (A) (A) (A) (A) (A) (A) (A) (A) (A)
                 (A) (A) (A) (A) (A) (A) (A) (A) (A) (A) (A) (A)
                 (A) (A) (A) (A) (A) (A) (A) (A) (A) (A) (A) (A)
                 (A) (A) (A) (A) (A) (A) (A) (A) (A) (A) (A) (A)
                 (A) (A) (A) (A) (A) (A) (A) (A) (A) (A) (A) (A)
                 (A) (A) (A) (A) (A) (A) (A) (A) (A) (A) (A) (A)
                 (A) (A) (A) (A) (A) (A) (A) (A) (A) (A) (A) (A)
                 (A) (A) (A) (A) (A) (A) (A) (A) (A) (A) (A) (A)
                 (A) (A) (A) (A) (A) (A) (A) (A) (A) (A) (A) (A)
                 (A) (A) (A) (A) (A) (A) (A) (A) (A) (A) (A) (A)
                 (A) (A) (A) (A) (A) (A) (A) (A) (A) (A) (A) (A)
                 (A) (A) (A) (A) (A) (A) (A) (A) (A) (A) (A) (A)
                 (A) (A) (A) (A) (A) (A) (A) (A) (A) (A) (A) (A)
                 (A) (A) (A) (A) (A) (A) (A) (A) (A) (A) (A) (A)
                 (A) (A) (A) (A) (A) (A) (A) (A) (A) (A) (A) (A)
                 (A) (A) (A) (A) (A) (A) (A) (A) (A) (A) (A) (A)
                 (A) (A) (A) (A) (A) (A) (A) (A) (A) (A) (A) (A)
                 (A) (A) (A) (A) (A) (A) (A) (A) (A) (A) (A) (A)
                 (A) (A) (A) (A) (A) (A) (A) (A) (A) (A) (A) (A)
                 (A) (A) (A) (A) (A) (A) (A) (A) (A) (A) (A) (A)
                 (A) (A) (A) (A) (A) (A) (A) (A) (A) (A) (A) (A)
                 (A) (A) (A) (A) (A) (A) (A) (A) (A) (A) (A) (A)
                 (A) (A) (A) (A) (A) (A) (A) (A) (A) (A) (A) (A)
                 (A) (A) (A) (A) (A) (A) (A) (A) (A) (A) (A) (A)
                 (A) (A) (A) (A) (A) (A) (A) (A) (A) (A) (A) (A)
                 (A) (A) (A) (A) (A) (A) (A) (A) (A) (A) (A) (A)
                 (A) (A) (A) (A) (A) (A) (A) (A) (A) (A) (A) (A)
                 (A) (A) (A) (A) (A) (A) (A) (A) (A) (A) (A) (A)
                 (A) (A) (A) (A) (A) (A) (A) (A) (A) (A) (A) (A)
                 (A) (A) (A) (A) (A) (A) (A) (A) (A) (A) (A) (A)
                 (A) (A) (A) (A) (A) (A) (A) (A) (A) (A) (A) (A)
                 (A) (A) (A) (A) (A) (A) (A) (A) (A) (A) (A) (A)
                 (A) (A) (A) (A) (A) (A) (A) (A) (A) (A) (A) (A)
                 (A) (A) (A) (A) (A) (A) (A) (A) (A) (A) (A) (A)
                 (A) (A) (A) (A) (A) (A) (A) (A) (A) (A) (A) (A)
                 (A) (A) (A) (A) (A) (A) (A) (A) (A) (A) (A) (A)
                 (A) (A) (A) (A) (A) (A) (A) (A) (A) (A) (A) (A)
                 (A) (A) (A) (A) (A) (A) (A) (A) (A) (A) (A) (A)
                 (A) (A) (A) (A) (A) (A) (A) (A) (A) (A) (A) (A)
                 (A) (A) (A) (A) (A) (A) (A) (A) (A) (A) (A) (A)
                 (A) (A) (A) (A) (A) (A) (A) (A) (A) (A) (A) (A)
                 (A) (A) (A) (A) (A) (A) (A) (A) (A) (A) (A) (A)
                 (A) (A) (A) (A) (A) (A) (A) (A) (A) (A) (A) (A)
                 (A) (A) (A) (A) (A) (A) (A) (A) (A) (A) (A) (A)
                 (A) (A) (A) (A) (A) (A) (A) (A) (A) (A) (A) (A)
                 (A) (A) (A) (A) (A) (A) (A) (A) (A) (A) (A) (A)
                 (A) (A) (A) (A) (A) (A) (A) (A) (A) (A) (A) (A)
                 (A) (A) (A) (A) (A) (A) (A) (A) (A) (A) (A) (A)
                 (A) (A) (A) (A) (A) (A) (A) (A) (A) (A) (A) (A)
                 (A) (A) (A) (A) (A) (A) (A) (A) (A) (A) (A) (A)
                 (A) (A) (A) (A) (A) (A) (A) (A) (A) (A) (A) (A)
                 (A) (A) (A) (A) (A) (A) (A) (A) (A) (A) (A) (A)
                 (A) (A) (A) (A) (A) (A) (A) (A) (A) (A) (A) (A)
                 (A) (A) (A) (A) (A) (A) (A) (A) (A) (A) (A) (A)
                 (A) (A) (A) (A) (A) (A) (A) (A) (A) (A) (A) (A)
                 (A) (A) (A) (A) (A) (A) (A) (A) (A) (A) (A) (A)
                 (A) (A) (A) (A) (A) (A) (A) (A) (A) (A) (A) (A)
                 (A) (A) (A) (A) (A) (A) (A) (A) (A) (A) (A) (A)
                 (A) (A) (A) (A) (A) (A) (A) (A) (A) (A) (A) (A)
                 (A) (A) (A) (A) (A) (A) (A) (A) (A) (A) (A) (A)
                 (A) (A) (A) (A) (A) (A) (A) (A) (A) (A) (A) (A)
                 (A) (A) (A) (A) (A) (A) (A) (A) (A) (A) (A) (A)
                 (A) (A) (A) (A) (A) (A) (A) (A) (A) (A) (A) (A)
                 (A) (A) (A) (A) (A) (A) (A) (A) (A) (A) (A) (A)
                 (A) (A) (A) (A) (A) (A) (A) (A) (A) (A) (A) (A)
                 (A) (A) (A) (A) (A) (A) (A) (A) (A) (A) (A) (A)
                 (A) (A) (A) (A) (A) (A) (A) (A) (A) (A) (A) (A)
                 (A) (A) (A) (A) (A) (A) (A) (A) (A) (A) (A) (A)
                 (A) (A) (A) (A) (A) (A) (A) (A) (A) (A) (A) (A)
                 (A) (A) (A) (A) (A) (A) (A) (A) (A) (A) (A) (A)
                 (A) (A) (A) (A) (A) (A) (A) (A) (A) (A) (A) (A)
                 (A) (A) (A) (A) (A) (A) (A) (A) (A) (A) (A) (A)
                 (A) (A) (A) (A) (A) (A) (A) (A) (A) (A) (A) (A)
                 (A) (A) (A) (A) (A) (A) (A) (A) (A) (A) (A) (A)
                 (A) (A) (A) (A) (A) (A) (A) (A) (A) (A) (A) (A)
                 (A) (A) (A) (A) (A) (A) (A) (A) (A) (A) (A) (A)
                 (A) (A) (A) (A) (A) (A) (A) (A) (A) (A) (A) (A)
                 (A) (A) (A) (A) (A) (A) (A) (A) (A) (A) (A) (A)
                 (A) (A) (A) (A) (A) (A) (A) (A) (A) (A) (A) (A)
                 (A) (A) (A) (A) (A) (A) (A) (A) (A) (A) (A) (A)
                 (A) (A) (A) (A) (A) (A) (A) (A) (A) (A) (A) (A)
                 (A) (A) (A) (A) (A) (A) (A) (A) (A) (A) (A) (A)
                 (A) (A) (A) (A) (A) (A) (A) (A) (A) (A) (A) (A)
                 (A) (A) (A) (A) (A) (A) (A) (A) (A) (A) (A) (A)
                 (A) (A) (A) (A) (A) (A) (A) (A) (A) (A) (A) (A)
                 (A) (A) (A) (A) (A) (A) (A) (A) (A) (A) (A) (A)
                 (A) (A) (A) (A) (A) (A) (A) (A) (A) (A) (A) (A)
                 (A) (A) (A) (A) (A) (A) (A) (A) (A) (A) (A) (A)
                 (A) (A) (A) (A) (A) (A) (A) (A) (A) (A) (A) (A)
                 (A) (A) (A) (A) (A) (A) (A) (A) (A) (A) (A) (A)
                 (A) (A) (A) (A) (A) (A) (A) (A) (A) (A) (A) (A)
                 (A) (A) (A) (A) (A) (A) (A) (A) (A) (A) (A) (A)
                 (A) (A) (A) (A) (A) (A) (A) (A) (A) (A) (A) (A)
                 (A) (A) (A) (A) (A) (A) (A) (A) (A) (A) (A) (A)
                 (A) (A) (A) (A) (A) (A) (A) (A) (A) (A) (A) (A)
                 (A) (A) (A) (A) (A) (A) (A) (A) (A) (A) (A) (A)
                 (A) (A) (A) (A) (A) (A) (A) (A) (A) (A) (A) (A)
                 (A) (A) (A) (A) (A) (A) (A) (A) (A) (A) (A) (A)
                 (A) (A) (A) (A) (A) (A) (A) (A) (A) (A) (A) (A)
                 (A) (A) (A) (A) (A) (A) (A) (A) (A) (A) (A) (A)
                 (A) (A) (A) (A) (A) (A) (A) (A) (A) (A) (A) (A)
                 (A) (A) (A) (A) (A) (A) (A) (A) (A) (A) (A) (A)
                 (A) (A) (A) (A) (A) (A) (A) (A) (A) (A) (A) (A)
                 (A) (A) (A) (A) (A) (A) (A) (A) (A) (A) (A) (A)
                 (A) (A) (A) (A) (A) (A) (A) (A) (A) (A) (A) (A)
                 (A) (A) (A) (A) (A) (A) (A) (A) (A) (A) (A) (A)
                 (A) (A) (A) (A) (A) (A) (A) (A) (A) (A) (A) (A)
                 (A) (A) (A) (A) (A) (A) (A) (A) (A) (A) (A) (A)
                 (A) (A) (A) (A) (A) (A) (A) (A) (A) (A) (A) (A)
                 (A) (A) (A) (A) (A) (A) (A) (A) (A) (A) (A) (A)
                 (A) (A) (A) (A) (A) (A) (A) (A) (A) (A) (A) (A)
                 (A) (A) (A) (A) (A) (A) (A) (A) (A) (A) (A) (A)
                 (A) (A) (A) (A) (A) (A) (A) (A) (A) (A) (A) (A)
                 (A) (A) (A) (A) (A) (A) (A) (A) (A) (A) (A) (A)
                 (A) (A) (A) (A) (A) (A) (A) (A) (A) (A) (A) (A)
                 (A) (A) (A) (A) (A) (A) (A) (A) (A) (A) (A) (A)
                 (A) (A) (A) (A) (A) (A) (A) (A) (A) (A) (A) (A)
                 (A) (A) (A) (A) (A) (A) (A) (A) (A) (A) (A) (A)
                 (A) (A) (A) (A) (A) (A) (A) (A) (A) (A) (A) (A)
                 (A) (A) (A) (A) (A) (A) (A) (A) (A) (A) (A) (A)
                 (A) (A) (A) (A) (A) (A) (A) (A) (A) (A) (A) (A)
                 (A)
 The electronic state is 1-A.
 Alpha  occ. eigenvalues --  -14.37793 -14.37662 -14.37594 -14.37532 -14.37527
 Alpha  occ. eigenvalues --  -14.37489 -14.37315 -14.37210 -14.37205 -14.36436
 Alpha  occ. eigenvalues --  -10.27846 -10.26778 -10.26734 -10.26624 -10.26610
 Alpha  occ. eigenvalues --  -10.26474 -10.26461 -10.26403 -10.26402 -10.26347
 Alpha  occ. eigenvalues --  -10.26325 -10.26265 -10.26223 -10.25471 -10.24387
 Alpha  occ. eigenvalues --  -10.24355 -10.24347 -10.24339 -10.24311 -10.24303
 Alpha  occ. eigenvalues --  -10.24250 -10.24216 -10.24192 -10.24188 -10.24163
 Alpha  occ. eigenvalues --  -10.23809 -10.23804 -10.23738 -10.23702 -10.23686
 Alpha  occ. eigenvalues --  -10.23554 -10.23552 -10.23537 -10.23348 -10.23192
 Alpha  occ. eigenvalues --  -10.22503 -10.22359 -10.21047 -10.21012 -10.20868
 Alpha  occ. eigenvalues --  -10.20771 -10.20690 -10.20584 -10.20557 -10.20351
 Alpha  occ. eigenvalues --  -10.20350 -10.19727  -0.99410  -0.97826  -0.97639
 Alpha  occ. eigenvalues --   -0.97521  -0.97484  -0.95142  -0.94812  -0.94713
 Alpha  occ. eigenvalues --   -0.94578  -0.90362  -0.89655  -0.89283  -0.88128
 Alpha  occ. eigenvalues --   -0.83923  -0.83548  -0.83291  -0.82128  -0.81306
 Alpha  occ. eigenvalues --   -0.80671  -0.79929  -0.78832  -0.78504  -0.78100
 Alpha  occ. eigenvalues --   -0.77757  -0.72117  -0.72025  -0.71915  -0.71723
 Alpha  occ. eigenvalues --   -0.71560  -0.71374  -0.71254  -0.71218  -0.70997
 Alpha  occ. eigenvalues --   -0.69778  -0.68533  -0.68163  -0.67707  -0.67517
 Alpha  occ. eigenvalues --   -0.66122  -0.65579  -0.64957  -0.64292  -0.63534
 Alpha  occ. eigenvalues --   -0.60863  -0.59964  -0.59007  -0.58257  -0.57799
 Alpha  occ. eigenvalues --   -0.57712  -0.57349  -0.55167  -0.55008  -0.54801
 Alpha  occ. eigenvalues --   -0.53916  -0.53733  -0.53523  -0.53117  -0.52294
 Alpha  occ. eigenvalues --   -0.52126  -0.51543  -0.51153  -0.50748  -0.50088
 Alpha  occ. eigenvalues --   -0.49783  -0.49532  -0.49223  -0.48904  -0.48556
 Alpha  occ. eigenvalues --   -0.48074  -0.47909  -0.47723  -0.47668  -0.47581
 Alpha  occ. eigenvalues --   -0.47334  -0.46822  -0.46649  -0.46253  -0.45422
 Alpha  occ. eigenvalues --   -0.45358  -0.45141  -0.44948  -0.44920  -0.44728
 Alpha  occ. eigenvalues --   -0.44491  -0.44113  -0.42774  -0.42672  -0.42213
 Alpha  occ. eigenvalues --   -0.41802  -0.41714  -0.41398  -0.41313  -0.41162
 Alpha  occ. eigenvalues --   -0.41056  -0.40986  -0.40668  -0.40536  -0.40135
 Alpha  occ. eigenvalues --   -0.40013  -0.39934  -0.39687  -0.39586  -0.39538
 Alpha  occ. eigenvalues --   -0.39486  -0.39285  -0.39176  -0.38936  -0.38536
 Alpha  occ. eigenvalues --   -0.38295  -0.37855  -0.37798  -0.37589  -0.37253
 Alpha  occ. eigenvalues --   -0.37169  -0.36908  -0.36575  -0.36344  -0.36313
 Alpha  occ. eigenvalues --   -0.36159  -0.36109  -0.35756  -0.35341  -0.35016
 Alpha  occ. eigenvalues --   -0.34632  -0.34386  -0.34198  -0.34078  -0.33957
 Alpha  occ. eigenvalues --   -0.33854  -0.33516  -0.31233  -0.30544  -0.30052
 Alpha  occ. eigenvalues --   -0.27274  -0.26980  -0.26916  -0.26822  -0.26734
 Alpha  occ. eigenvalues --   -0.26556  -0.26491  -0.26403  -0.26344  -0.26136
 Alpha  occ. eigenvalues --   -0.25933  -0.25645  -0.25599  -0.25443  -0.25014
 Alpha  occ. eigenvalues --   -0.23820
 Alpha virt. eigenvalues --   -0.06792  -0.06041  -0.05709  -0.05357  -0.05202
 Alpha virt. eigenvalues --   -0.03079  -0.02206  -0.01480   0.00901   0.03262
 Alpha virt. eigenvalues --    0.03548   0.04706   0.04998   0.05055   0.05298
 Alpha virt. eigenvalues --    0.05458   0.05639   0.05885   0.06075   0.06278
 Alpha virt. eigenvalues --    0.06442   0.06456   0.06738   0.07085   0.07322
 Alpha virt. eigenvalues --    0.07557   0.08502   0.08637   0.08900   0.09097
 Alpha virt. eigenvalues --    0.09372   0.09426   0.09514   0.09673   0.09813
 Alpha virt. eigenvalues --    0.09996   0.10245   0.10608   0.10841   0.10942
 Alpha virt. eigenvalues --    0.10993   0.11283   0.11392   0.11645   0.11820
 Alpha virt. eigenvalues --    0.12031   0.12085   0.12291   0.12564   0.12667
 Alpha virt. eigenvalues --    0.12892   0.13138   0.13250   0.13433   0.13643
 Alpha virt. eigenvalues --    0.13933   0.14152   0.14360   0.14465   0.14561
 Alpha virt. eigenvalues --    0.14781   0.14803   0.15117   0.15185   0.15546
 Alpha virt. eigenvalues --    0.15759   0.15794   0.15937   0.16081   0.16288
 Alpha virt. eigenvalues --    0.16343   0.16424   0.16528   0.16623   0.16770
 Alpha virt. eigenvalues --    0.16811   0.16870   0.17024   0.17121   0.17312
 Alpha virt. eigenvalues --    0.17342   0.17453   0.17694   0.17933   0.18018
 Alpha virt. eigenvalues --    0.18043   0.18411   0.18527   0.18723   0.18925
 Alpha virt. eigenvalues --    0.18993   0.19228   0.19537   0.19826   0.20008
 Alpha virt. eigenvalues --    0.20178   0.20276   0.20471   0.20602   0.20888
 Alpha virt. eigenvalues --    0.21003   0.21199   0.21537   0.21631   0.21719
 Alpha virt. eigenvalues --    0.21859   0.22247   0.22574   0.22897   0.22948
 Alpha virt. eigenvalues --    0.23251   0.23551   0.23740   0.23815   0.24124
 Alpha virt. eigenvalues --    0.24360   0.24565   0.24752   0.24952   0.25273
 Alpha virt. eigenvalues --    0.25386   0.25448   0.25851   0.25914   0.25997
 Alpha virt. eigenvalues --    0.26299   0.26456   0.26784   0.27129   0.27182
 Alpha virt. eigenvalues --    0.27366   0.27414   0.27684   0.27817   0.27961
 Alpha virt. eigenvalues --    0.28185   0.28303   0.28766   0.28871   0.29030
 Alpha virt. eigenvalues --    0.29110   0.29283   0.29404   0.29485   0.29801
 Alpha virt. eigenvalues --    0.30232   0.30306   0.30537   0.30671   0.30867
 Alpha virt. eigenvalues --    0.31144   0.31349   0.31454   0.31565   0.31705
 Alpha virt. eigenvalues --    0.32066   0.32211   0.32422   0.32498   0.32608
 Alpha virt. eigenvalues --    0.32856   0.32878   0.33078   0.33364   0.33412
 Alpha virt. eigenvalues --    0.33724   0.33886   0.34075   0.34332   0.34383
 Alpha virt. eigenvalues --    0.34586   0.34836   0.34942   0.35259   0.35390
 Alpha virt. eigenvalues --    0.35550   0.35616   0.35942   0.36167   0.36357
 Alpha virt. eigenvalues --    0.36491   0.36801   0.36974   0.37112   0.37239
 Alpha virt. eigenvalues --    0.37400   0.37737   0.37863   0.38143   0.38225
 Alpha virt. eigenvalues --    0.38351   0.38478   0.38702   0.38857   0.39038
 Alpha virt. eigenvalues --    0.39210   0.39348   0.39490   0.39786   0.40021
 Alpha virt. eigenvalues --    0.40272   0.40376   0.40649   0.40754   0.40862
 Alpha virt. eigenvalues --    0.41215   0.41280   0.41505   0.41663   0.41953
 Alpha virt. eigenvalues --    0.41981   0.42203   0.42380   0.42593   0.42728
 Alpha virt. eigenvalues --    0.42996   0.43038   0.43190   0.43286   0.43544
 Alpha virt. eigenvalues --    0.43681   0.43835   0.43946   0.44045   0.44349
 Alpha virt. eigenvalues --    0.44568   0.44737   0.44849   0.45250   0.45346
 Alpha virt. eigenvalues --    0.45405   0.45506   0.45570   0.45797   0.45978
 Alpha virt. eigenvalues --    0.46050   0.46182   0.46400   0.46555   0.46587
 Alpha virt. eigenvalues --    0.46621   0.46816   0.46915   0.47009   0.47054
 Alpha virt. eigenvalues --    0.47147   0.47335   0.47434   0.47616   0.47824
 Alpha virt. eigenvalues --    0.47941   0.48065   0.48158   0.48284   0.48322
 Alpha virt. eigenvalues --    0.48443   0.48745   0.48804   0.48899   0.49075
 Alpha virt. eigenvalues --    0.49156   0.49398   0.49501   0.49647   0.49737
 Alpha virt. eigenvalues --    0.49879   0.50118   0.50474   0.50652   0.50819
 Alpha virt. eigenvalues --    0.51052   0.51212   0.51280   0.51469   0.51516
 Alpha virt. eigenvalues --    0.51805   0.51940   0.52102   0.52357   0.52447
 Alpha virt. eigenvalues --    0.52715   0.52841   0.52953   0.53348   0.53487
 Alpha virt. eigenvalues --    0.53704   0.53916   0.54185   0.54390   0.54480
 Alpha virt. eigenvalues --    0.54648   0.54898   0.55362   0.55505   0.55883
 Alpha virt. eigenvalues --    0.56109   0.56326   0.56385   0.56569   0.56795
 Alpha virt. eigenvalues --    0.57007   0.57287   0.57574   0.57776   0.57869
 Alpha virt. eigenvalues --    0.58370   0.58468   0.58780   0.58880   0.59081
 Alpha virt. eigenvalues --    0.59228   0.59527   0.59729   0.60016   0.60160
 Alpha virt. eigenvalues --    0.60318   0.60451   0.60631   0.60934   0.61052
 Alpha virt. eigenvalues --    0.61261   0.61543   0.61784   0.61938   0.62168
 Alpha virt. eigenvalues --    0.62406   0.62575   0.62890   0.62946   0.63092
 Alpha virt. eigenvalues --    0.63131   0.63378   0.63524   0.63698   0.64417
 Alpha virt. eigenvalues --    0.64503   0.64894   0.65009   0.65264   0.65490
 Alpha virt. eigenvalues --    0.65593   0.65793   0.65949   0.66217   0.66248
 Alpha virt. eigenvalues --    0.66528   0.66778   0.66857   0.67035   0.67266
 Alpha virt. eigenvalues --    0.67455   0.67900   0.68044   0.68354   0.68491
 Alpha virt. eigenvalues --    0.68840   0.68960   0.69052   0.69101   0.69425
 Alpha virt. eigenvalues --    0.69650   0.69819   0.70092   0.70215   0.70355
 Alpha virt. eigenvalues --    0.70708   0.70883   0.71141   0.71357   0.71512
 Alpha virt. eigenvalues --    0.71989   0.72138   0.72202   0.72316   0.72655
 Alpha virt. eigenvalues --    0.72836   0.73044   0.73368   0.73511   0.73588
 Alpha virt. eigenvalues --    0.73828   0.74162   0.74397   0.74562   0.74893
 Alpha virt. eigenvalues --    0.75306   0.75646   0.75683   0.75824   0.76307
 Alpha virt. eigenvalues --    0.76381   0.76520   0.77077   0.77111   0.77287
 Alpha virt. eigenvalues --    0.77409   0.77585   0.77823   0.78133   0.78373
 Alpha virt. eigenvalues --    0.78474   0.78873   0.79068   0.79359   0.79403
 Alpha virt. eigenvalues --    0.79680   0.79889   0.80358   0.80368   0.80847
 Alpha virt. eigenvalues --    0.80919   0.81627   0.81789   0.81890   0.82351
 Alpha virt. eigenvalues --    0.82554   0.82673   0.82778   0.83088   0.83496
 Alpha virt. eigenvalues --    0.83643   0.83838   0.83964   0.84295   0.84425
 Alpha virt. eigenvalues --    0.84980   0.85053   0.85317   0.85631   0.85796
 Alpha virt. eigenvalues --    0.86167   0.86335   0.86633   0.87028   0.87117
 Alpha virt. eigenvalues --    0.87305   0.87383   0.87701   0.87875   0.88173
 Alpha virt. eigenvalues --    0.88362   0.88540   0.88744   0.89024   0.89225
 Alpha virt. eigenvalues --    0.89407   0.89709   0.89975   0.90257   0.90337
 Alpha virt. eigenvalues --    0.90489   0.90651   0.90795   0.91021   0.91285
 Alpha virt. eigenvalues --    0.91601   0.91836   0.92246   0.92310   0.92414
 Alpha virt. eigenvalues --    0.93047   0.93305   0.93495   0.93867   0.94013
 Alpha virt. eigenvalues --    0.94175   0.94296   0.94888   0.94962   0.95038
 Alpha virt. eigenvalues --    0.95694   0.95975   0.96199   0.96432   0.96979
 Alpha virt. eigenvalues --    0.97043   0.97431   0.97514   0.97837   0.98411
 Alpha virt. eigenvalues --    0.98639   0.98990   0.99205   0.99659   0.99870
 Alpha virt. eigenvalues --    0.99990   1.00556   1.00701   1.01192   1.01541
 Alpha virt. eigenvalues --    1.01723   1.02089   1.02220   1.02422   1.03156
 Alpha virt. eigenvalues --    1.03404   1.03609   1.03792   1.04099   1.04107
 Alpha virt. eigenvalues --    1.04755   1.04853   1.04872   1.05182   1.05591
 Alpha virt. eigenvalues --    1.05718   1.05917   1.06190   1.06499   1.06648
 Alpha virt. eigenvalues --    1.06974   1.07744   1.07776   1.08249   1.08493
 Alpha virt. eigenvalues --    1.08647   1.08805   1.09270   1.09440   1.09609
 Alpha virt. eigenvalues --    1.10051   1.10246   1.10671   1.11220   1.11489
 Alpha virt. eigenvalues --    1.11561   1.11808   1.12241   1.12271   1.12793
 Alpha virt. eigenvalues --    1.12908   1.13234   1.13383   1.13783   1.14348
 Alpha virt. eigenvalues --    1.14543   1.14693   1.15057   1.15394   1.15698
 Alpha virt. eigenvalues --    1.15810   1.16040   1.16301   1.16877   1.17098
 Alpha virt. eigenvalues --    1.17262   1.17423   1.17912   1.18267   1.18716
 Alpha virt. eigenvalues --    1.19004   1.19326   1.19695   1.20184   1.20350
 Alpha virt. eigenvalues --    1.20628   1.20926   1.21087   1.21335   1.21577
 Alpha virt. eigenvalues --    1.21924   1.22287   1.22620   1.22839   1.22931
 Alpha virt. eigenvalues --    1.23698   1.24359   1.24506   1.24827   1.24954
 Alpha virt. eigenvalues --    1.25329   1.25383   1.25992   1.26237   1.26463
 Alpha virt. eigenvalues --    1.26620   1.27048   1.27313   1.27619   1.27857
 Alpha virt. eigenvalues --    1.28081   1.28302   1.28431   1.28854   1.29112
 Alpha virt. eigenvalues --    1.29549   1.29882   1.30162   1.30422   1.30979
 Alpha virt. eigenvalues --    1.31074   1.31264   1.31483   1.31808   1.32380
 Alpha virt. eigenvalues --    1.32657   1.32836   1.33394   1.33423   1.33806
 Alpha virt. eigenvalues --    1.33900   1.34099   1.34325   1.34488   1.34863
 Alpha virt. eigenvalues --    1.35169   1.35375   1.35510   1.35752   1.35923
 Alpha virt. eigenvalues --    1.36502   1.36632   1.36712   1.37117   1.37335
 Alpha virt. eigenvalues --    1.37692   1.38041   1.38568   1.39073   1.39395
 Alpha virt. eigenvalues --    1.39694   1.40020   1.40352   1.40815   1.41013
 Alpha virt. eigenvalues --    1.41462   1.41702   1.41865   1.42379   1.42407
 Alpha virt. eigenvalues --    1.42960   1.43150   1.43580   1.43950   1.44495
 Alpha virt. eigenvalues --    1.44797   1.45301   1.45468   1.46111   1.46403
 Alpha virt. eigenvalues --    1.46602   1.46762   1.47469   1.47722   1.47933
 Alpha virt. eigenvalues --    1.48365   1.48708   1.48878   1.49498   1.49595
 Alpha virt. eigenvalues --    1.49895   1.50146   1.50488   1.50630   1.50896
 Alpha virt. eigenvalues --    1.51213   1.51655   1.51783   1.51998   1.52364
 Alpha virt. eigenvalues --    1.52603   1.52751   1.53210   1.53383   1.53504
 Alpha virt. eigenvalues --    1.53787   1.54081   1.54470   1.54572   1.54741
 Alpha virt. eigenvalues --    1.55287   1.55375   1.55891   1.56017   1.56102
 Alpha virt. eigenvalues --    1.56271   1.56503   1.56628   1.57072   1.57492
 Alpha virt. eigenvalues --    1.57574   1.57624   1.57982   1.58187   1.58713
 Alpha virt. eigenvalues --    1.58953   1.59270   1.59417   1.59521   1.59912
 Alpha virt. eigenvalues --    1.60037   1.60221   1.60445   1.60696   1.61018
 Alpha virt. eigenvalues --    1.61145   1.61254   1.61374   1.61658   1.61709
 Alpha virt. eigenvalues --    1.62010   1.62190   1.62269   1.62492   1.62619
 Alpha virt. eigenvalues --    1.62774   1.62907   1.63012   1.63275   1.63288
 Alpha virt. eigenvalues --    1.63479   1.63749   1.63760   1.64040   1.64196
 Alpha virt. eigenvalues --    1.64335   1.64713   1.64847   1.65117   1.65315
 Alpha virt. eigenvalues --    1.65440   1.65567   1.65931   1.65975   1.66404
 Alpha virt. eigenvalues --    1.66611   1.66704   1.66866   1.67359   1.67466
 Alpha virt. eigenvalues --    1.67663   1.67699   1.67856   1.67927   1.68443
 Alpha virt. eigenvalues --    1.68773   1.68943   1.69235   1.69413   1.69836
 Alpha virt. eigenvalues --    1.70070   1.70424   1.70928   1.70964   1.71095
 Alpha virt. eigenvalues --    1.71605   1.71881   1.71956   1.72251   1.72565
 Alpha virt. eigenvalues --    1.72981   1.73416   1.73459   1.73826   1.74078
 Alpha virt. eigenvalues --    1.74334   1.74405   1.74752   1.74966   1.75307
 Alpha virt. eigenvalues --    1.75741   1.76091   1.76346   1.76464   1.76801
 Alpha virt. eigenvalues --    1.77923   1.77957   1.78328   1.78600   1.78672
 Alpha virt. eigenvalues --    1.79091   1.79463   1.79572   1.79827   1.80009
 Alpha virt. eigenvalues --    1.80797   1.81064   1.81560   1.81618   1.81778
 Alpha virt. eigenvalues --    1.82072   1.82125   1.82827   1.82916   1.83263
 Alpha virt. eigenvalues --    1.83476   1.83834   1.84229   1.84406   1.84576
 Alpha virt. eigenvalues --    1.85104   1.85205   1.85599   1.85950   1.86329
 Alpha virt. eigenvalues --    1.86682   1.87473   1.87581   1.87964   1.88159
 Alpha virt. eigenvalues --    1.88853   1.89251   1.89382   1.89703   1.90132
 Alpha virt. eigenvalues --    1.90308   1.90630   1.90929   1.91228   1.91386
 Alpha virt. eigenvalues --    1.92241   1.92508   1.92886   1.92939   1.93094
 Alpha virt. eigenvalues --    1.93259   1.93529   1.93676   1.94147   1.94482
 Alpha virt. eigenvalues --    1.95192   1.95518   1.95868   1.96523   1.96784
 Alpha virt. eigenvalues --    1.97111   1.97686   1.97920   1.98382   1.98561
 Alpha virt. eigenvalues --    1.99331   1.99426   1.99690   1.99882   2.00430
[...]
 Alpha virt. eigenvalues --    3.27103   3.27307   3.27460   3.27871   3.28129
 Alpha virt. eigenvalues --    3.28217   3.28508   3.28580   3.28801   3.28999
 Alpha virt. eigenvalues --    3.29277   3.29474   3.29707   3.29832   3.30188
 Alpha virt. eigenvalues --    3.30461   3.30603   3.30856   3.31070   3.31356
 Alpha virt. eigenvalues --    3.31419   3.31734   3.31747   3.31952   3.32343
 Alpha virt. eigenvalues --    3.32363   3.32692   3.32765   3.32821   3.33004
 Alpha virt. eigenvalues --    3.33285   3.33607   3.33969   3.34185   3.34370
 Alpha virt. eigenvalues --    3.34545   3.34811   3.35178   3.35252   3.35474
 Alpha virt. eigenvalues --    3.35737   3.35949   3.36141   3.36295   3.36499
 Alpha virt. eigenvalues --    3.36671   3.36889   3.37153   3.37257   3.37566
 Alpha virt. eigenvalues --    3.37646   3.38127   3.38243   3.38431   3.38635
 Alpha virt. eigenvalues --    3.38741   3.39226   3.39375   3.39459   3.39704
 Alpha virt. eigenvalues --    3.39799   3.40080   3.40351   3.40412   3.40529
 Alpha virt. eigenvalues --    3.40638   3.40830   3.41194   3.41619   3.41803
 Alpha virt. eigenvalues --    3.41992   3.42182   3.42241   3.42661   3.42827
 Alpha virt. eigenvalues --    3.43263   3.43386   3.43522   3.43764   3.43881
 Alpha virt. eigenvalues --    3.44058   3.44375   3.44592   3.44954   3.45200
 Alpha virt. eigenvalues --    3.45509   3.45661   3.45772   3.46094   3.46454
 Alpha virt. eigenvalues --    3.46570   3.47004   3.47269   3.47315   3.47572
 Alpha virt. eigenvalues --    3.47703   3.47924   3.48189   3.48344   3.48800
 Alpha virt. eigenvalues --    3.48824   3.49082   3.49460   3.49577   3.49878
 Alpha virt. eigenvalues --    3.50247   3.50585   3.50785   3.51082   3.51575
 Alpha virt. eigenvalues --    3.51677   3.52170   3.52385   3.52968   3.53216
 Alpha virt. eigenvalues --    3.53350   3.53507   3.54165   3.54408   3.54587
 Alpha virt. eigenvalues --    3.54954   3.55546   3.55654   3.55893   3.56095
 Alpha virt. eigenvalues --    3.56423   3.56877   3.57086   3.57400   3.57727
 Alpha virt. eigenvalues --    3.57965   3.58337   3.58612   3.59208   3.59502
 Alpha virt. eigenvalues --    3.59778   3.60171   3.60695   3.60822   3.61066
 Alpha virt. eigenvalues --    3.61481   3.61734   3.62223   3.62495   3.62879
 Alpha virt. eigenvalues --    3.63302   3.63546   3.63629   3.63677   3.64072
 Alpha virt. eigenvalues --    3.64494   3.64594   3.64772   3.65049   3.65391
 Alpha virt. eigenvalues --    3.65622   3.66224   3.66430   3.66774   3.67212
 Alpha virt. eigenvalues --    3.67502   3.68160   3.68395   3.68448   3.68532
 Alpha virt. eigenvalues --    3.68772   3.68897   3.69257   3.69770   3.69966
 Alpha virt. eigenvalues --    3.70353   3.71226   3.71368   3.71948   3.72620
 Alpha virt. eigenvalues --    3.72762   3.72959   3.73788   3.74039   3.74344
 Alpha virt. eigenvalues --    3.74775   3.75380   3.76010   3.76407   3.76733
 Alpha virt. eigenvalues --    3.77029   3.77412   3.77657   3.78100   3.78257
 Alpha virt. eigenvalues --    3.78767   3.78917   3.79986   3.80426   3.80663
 Alpha virt. eigenvalues --    3.81224   3.81518   3.81856   3.82112   3.82468
 Alpha virt. eigenvalues --    3.82678   3.83279   3.83502   3.83851   3.84118
 Alpha virt. eigenvalues --    3.84569   3.84754   3.85177   3.85852   3.86101
 Alpha virt. eigenvalues --    3.86289   3.86867   3.87054   3.87118   3.87355
 Alpha virt. eigenvalues --    3.87536   3.88290   3.88561   3.89106   3.89746
 Alpha virt. eigenvalues --    3.89850   3.90271   3.90751   3.90857   3.91588
 Alpha virt. eigenvalues --    3.92404   3.92819   3.93263   3.93769   3.94338
 Alpha virt. eigenvalues --    3.94561   3.94734   3.95580   3.96015   3.96409
 Alpha virt. eigenvalues --    3.96587   3.96811   3.97602   3.98219   3.98809
 Alpha virt. eigenvalues --    3.99465   3.99781   4.00209   4.01010   4.01126
 Alpha virt. eigenvalues --    4.01480   4.01896   4.02202   4.02840   4.03575
 Alpha virt. eigenvalues --    4.03676   4.04577   4.04697   4.05491   4.05688
 Alpha virt. eigenvalues --    4.06172   4.06412   4.07156   4.07298   4.07552
 Alpha virt. eigenvalues --    4.08463   4.08534   4.08996   4.09285   4.09550
 Alpha virt. eigenvalues --    4.09777   4.10067   4.10273   4.10661   4.10840
 Alpha virt. eigenvalues --    4.11052   4.11639   4.11912   4.12470   4.12529
 Alpha virt. eigenvalues --    4.12898   4.13189   4.13365   4.13840   4.13976
 Alpha virt. eigenvalues --    4.14145   4.14384   4.15183   4.15418   4.15904
 Alpha virt. eigenvalues --    4.16158   4.16449   4.16790   4.16884   4.17323
 Alpha virt. eigenvalues --    4.17653   4.17766   4.18131   4.18701   4.19202
 Alpha virt. eigenvalues --    4.19426   4.19745   4.19864   4.20311   4.20520
 Alpha virt. eigenvalues --    4.20970   4.21167   4.21316   4.21462   4.21761
 Alpha virt. eigenvalues --    4.22265   4.22526   4.22668   4.23063   4.23172
 Alpha virt. eigenvalues --    4.24144   4.24191   4.24386   4.25037   4.25305
 Alpha virt. eigenvalues --    4.25593   4.26302   4.26399   4.26798   4.27043
 Alpha virt. eigenvalues --    4.27275   4.27669   4.28284   4.28455   4.28709
 Alpha virt. eigenvalues --    4.29559   4.29848   4.30309   4.30663   4.30702
 Alpha virt. eigenvalues --    4.30846   4.31158   4.32602   4.33453   4.33993
 Alpha virt. eigenvalues --    4.34309   4.34751   4.34904   4.35083   4.35376
 Alpha virt. eigenvalues --    4.36137   4.36504   4.37670   4.38376   4.39135
 Alpha virt. eigenvalues --    4.39544   4.39841   4.40179   4.40400   4.40946
 Alpha virt. eigenvalues --    4.41250   4.42543   4.42860   4.43701   4.43826
 Alpha virt. eigenvalues --    4.44074   4.44490   4.44830   4.45674   4.46042
 Alpha virt. eigenvalues --    4.46261   4.46753   4.47142   4.47311   4.47380
 Alpha virt. eigenvalues --    4.47989   4.48956   4.49247   4.49468   4.49905
 Alpha virt. eigenvalues --    4.50063   4.50169   4.50385   4.50836   4.51265
 Alpha virt. eigenvalues --    4.51669   4.52162   4.52701   4.53917   4.54299
 Alpha virt. eigenvalues --    4.54839   4.54889   4.55331   4.56139   4.56627
 Alpha virt. eigenvalues --    4.58040   4.58642   4.59154   4.60190   4.60955
 Alpha virt. eigenvalues --    4.61719   4.62011   4.62969   4.63515   4.64320
 Alpha virt. eigenvalues --    4.65068   4.65493   4.66417   4.68108   4.68505
 Alpha virt. eigenvalues --    4.68906   4.69487   4.69908   4.70461   4.70782
 Alpha virt. eigenvalues --    4.71827   4.71979   4.72402   4.73102   4.73510
 Alpha virt. eigenvalues --    4.73837   4.73922   4.74217   4.74464   4.75900
 Alpha virt. eigenvalues --    4.76602   4.76810   4.77291   4.77778   4.78438
 Alpha virt. eigenvalues --    4.79225   4.80502   4.80672   4.82765   4.83065
 Alpha virt. eigenvalues --    4.84020   4.84314   4.84906   4.85330   4.86025
 Alpha virt. eigenvalues --    4.86579   4.86965   4.87323   4.87879   4.88509
 Alpha virt. eigenvalues --    4.89288   4.89753   4.89831   4.90481   4.90939
 Alpha virt. eigenvalues --    4.91142   4.91876   4.92371   4.92750   4.93151
 Alpha virt. eigenvalues --    4.93494   4.94107   4.94684   4.95139   4.95255
 Alpha virt. eigenvalues --    4.96931   4.97085   4.97880   4.98113   4.99003
 Alpha virt. eigenvalues --    4.99882   5.00969   5.01250   5.01743   5.02595
 Alpha virt. eigenvalues --    5.03277   5.03474   5.04497   5.05605   5.05833
 Alpha virt. eigenvalues --    5.06953   5.07060   5.08822   5.09752   5.10499
 Alpha virt. eigenvalues --    5.11265   5.11789   5.11865   5.12061   5.12722
 Alpha virt. eigenvalues --    5.13948   5.14327   5.14371   5.15326   5.15977
 Alpha virt. eigenvalues --    5.16334   5.16689   5.18024   5.19354   5.19870
 Alpha virt. eigenvalues --    5.20008   5.20486   5.21429   5.22331   5.23039
 Alpha virt. eigenvalues --    5.24443   5.24670   5.25371   5.25678   5.26486
 Alpha virt. eigenvalues --    5.28930   5.29209   5.29865   5.30276   5.30748
 Alpha virt. eigenvalues --    5.30952   5.31475   5.32065   5.33838   5.34351
 Alpha virt. eigenvalues --    5.34506   5.35582   5.36033   5.37072   5.37633
 Alpha virt. eigenvalues --    5.38485   5.38563   5.39260   5.39342   5.39692
 Alpha virt. eigenvalues --    5.39826   5.41168   5.41690   5.42548   5.43670
 Alpha virt. eigenvalues --    5.44243   5.44848   5.45331   5.45723   5.46224
 Alpha virt. eigenvalues --    5.47139   5.47588   5.47769   5.48264   5.49179
 Alpha virt. eigenvalues --    5.49749   5.50583   5.52001   5.52803   5.53625
 Alpha virt. eigenvalues --    5.54824   5.54882   5.56020   5.57635   5.59150
 Alpha virt. eigenvalues --    5.60103   5.61029   5.61414   5.62508   5.62876
 Alpha virt. eigenvalues --    5.64080   5.64767   5.66859   5.68361   5.68709
 Alpha virt. eigenvalues --    5.69977   5.70124   5.74003   5.74563   5.76130
 Alpha virt. eigenvalues --    5.76715   5.76944   5.77204   5.78124   5.78485
 Alpha virt. eigenvalues --    5.79055   5.80797   5.82963   5.83628   5.84764
 Alpha virt. eigenvalues --    5.89803   5.94661   5.94999   5.95559   5.96054
 Alpha virt. eigenvalues --    5.96367   5.96879   5.97828   5.98373   5.99660
 Alpha virt. eigenvalues --    6.01140   6.05777   6.07986   6.10510   6.11238
 Alpha virt. eigenvalues --    6.11655   6.12465   6.14133   6.14991  22.47815
 Alpha virt. eigenvalues --   22.49846  22.51484  22.51790  22.51851  22.52123
 Alpha virt. eigenvalues --   22.52433  22.54343  22.57109  22.58836  22.59101
 Alpha virt. eigenvalues --   22.59848  22.63008  22.68635  22.70877  22.71653
 Alpha virt. eigenvalues --   22.71806  22.72198  22.83187  22.87579  22.88168
 Alpha virt. eigenvalues --   22.88873  22.90176  22.91400  22.91621  22.92107
 Alpha virt. eigenvalues --   22.92453  22.93585  22.95051  22.96878  23.05663
 Alpha virt. eigenvalues --   23.07251  23.12741  23.14991  23.15344  23.15948
 Alpha virt. eigenvalues --   23.16250  23.16746  23.16934  23.18176  23.18509
 Alpha virt. eigenvalues --   23.19865  23.20759  23.23715  23.51995  23.54011
 Alpha virt. eigenvalues --   23.55391  32.53724  32.67712  32.69941  32.72478
 Alpha virt. eigenvalues --   32.73549  32.75295  32.93752  32.94195  32.97899
 Alpha virt. eigenvalues --   32.98289
          Condensed to atoms (all electrons):
 Mulliken charges:
               1
     1  C    0.424851
     2  C   -0.193156
     3  C   -0.407250
     4  C    0.354582
     5  H    0.128689
     6  C   -0.356000
     7  C    0.280133
     8  H    0.169478
     9  C   -0.310512
    10  C   -0.145044
    11  H    0.132335
    12  C   -0.182352
    13  H    0.096471
    14  H    0.097459
    15  H    0.086121
    16  C    0.174995
    17  C    0.175805
    18  C   -0.391444
    19  C    0.367451
    20  H    0.138779
    21  C   -0.374623
    22  C    0.350248
    23  H    0.126331
    24  C   -0.387582
    25  C   -0.164990
    26  H    0.109693
    27  C   -0.191592
    28  H    0.101654
    29  H    0.080151
    30  C    0.338631
    31  C   -0.156543
    32  C   -0.304680
    33  C    0.387131
    34  H    0.130012
    35  C   -0.373925
    36  C    0.342684
    37  H    0.127626
    38  C   -0.391954
    39  C   -0.133647
    40  H    0.120822
    41  C   -0.196231
    42  H    0.106699
    43  H    0.101098
    44  C    0.138405
    45  C   -0.051719
    46  N   -0.195122
    47  N   -0.209848
    48  H    0.086148
    49  C    0.177333
    50  C   -0.217906
    51  N   -0.338057
    52  N   -0.319841
    53  C   -0.065207
    54  C    0.158382
    55  N   -0.199173
    56  H    0.123780
    57  N   -0.202196
    58  C   -0.365592
    59  C    0.159264
    60  C   -0.046958
    61  N   -0.192819
    62  C   -0.470091
    63  N   -0.215653
    64  H    0.088362
    65  C   -0.069723
    66  C    0.160825
    67  N   -0.198764
    68  H    0.082723
    69  N   -0.206734
    70  H    0.096688
    71  H    0.204433
    72  H    0.125352
    73  H    0.208057
    74  H    0.123663
    75  H    0.087639
    76  C   -0.443746
    77  C   -0.377581
    78  H    0.121905
    79  H    0.123232
    80  C   -0.446504
    81  C   -0.365773
    82  H    0.135750
    83  H    0.151362
    84  H    0.134819
    85  C   -0.377410
    86  C   -0.448762
    87  H    0.130567
    88  H    0.130838
    89  H    0.129677
    90  H    0.131420
    91  H    0.129619
    92  H    0.129290
    93  H    0.135009
    94  H    0.150068
    95  H    0.136376
    96  H    0.134743
    97  H    0.135076
    98  H    0.147204
    99  H    0.131248
   100  H    0.137051
   101  H    0.138222
   102  H    0.128456
   103  H    0.124940
   104  H    0.127111
   105  H    0.124009
   106  H    0.127641
   107  H    0.127037
   108  H    0.147569
   109  H    0.122711
   110  C   -0.492356
   111  H    0.133409
   112  H    0.115707
   113  H    0.154810
   114  C   -0.415086
   115  H    0.127249
   116  H    0.136264
   117  H    0.132778
 Sum of Mulliken charges =   0.00000
 Mulliken charges with hydrogens summed into heavy atoms:
               1
     1  C    0.424851
     2  C   -0.095697
     3  C   -0.278561
     4  C    0.354582
     6  C   -0.186523
     7  C    0.280133
     9  C   -0.178177
    10  C   -0.048573
    12  C   -0.096231
    16  C    0.174995
    17  C    0.301157
    18  C   -0.252665
    19  C    0.367451
    21  C   -0.248292
    22  C    0.350248
    24  C   -0.277889
    25  C   -0.063336
    27  C   -0.111442
    30  C    0.338631
    31  C   -0.059855
    32  C   -0.174668
    33  C    0.387131
    35  C   -0.246299
    36  C    0.342684
    38  C   -0.271132
    39  C   -0.026947
    41  C   -0.095133
    44  C    0.138405
    45  C    0.158093
    46  N   -0.195122
    47  N   -0.209848
    49  C    0.177333
    50  C    0.052373
    51  N   -0.130001
    52  N   -0.115408
    53  C    0.146212
    54  C    0.158382
    55  N   -0.199173
    57  N   -0.202196
    58  C    0.013095
    59  C    0.159264
    60  C    0.163310
    61  N   -0.192819
    62  C   -0.063570
    63  N   -0.215653
    65  C    0.136232
    66  C    0.160825
    67  N   -0.198764
    69  N   -0.206734
    76  C   -0.022294
    77  C    0.012748
    80  C   -0.024573
    81  C    0.014734
    85  C    0.013672
    86  C   -0.031738
   110  C   -0.088431
   114  C   -0.018795
 Electronic spatial extent (au):  <R**2>=          37079.3222
 Charge=              0.0000 electrons
 Dipole moment (field-independent basis, Debye):
    X=              2.2310    Y=             -0.4985    Z=             -2.5717  Tot=              3.4409
 Quadrupole moment (field-independent basis, Debye-Ang):
   XX=           -337.4588   YY=           -337.1504   ZZ=           -302.5509
   XY=             -2.4487   XZ=            -19.9864   YZ=              5.3446
 Traceless Quadrupole moment (field-independent basis, Debye-Ang):
   XX=            -11.7388   YY=            -11.4304   ZZ=             23.1691
   XY=             -2.4487   XZ=            -19.9864   YZ=              5.3446
 Octapole moment (field-independent basis, Debye-Ang**2):
  XXX=             39.4636  YYY=             58.7449  ZZZ=            -67.1451  XYY=             12.7679
  XXY=            -65.3374  XXZ=             14.3836  XZZ=             29.3178  YZZ=            -48.4658
  YYZ=            -48.1988  XYZ=            -34.5689
 Hexadecapole moment (field-independent basis, Debye-Ang**3):
 XXXX=         -18693.7357 YYYY=         -16748.0004 ZZZZ=         -14221.8178 XXXY=            139.4119
 XXXZ=            -23.1318 YYYX=           -190.1563 YYYZ=            193.6394 ZZZX=           -385.2595
 ZZZY=            121.1152 XXYY=          -5818.9374 XXZZ=          -5424.2992 YYZZ=          -4947.1212
 XXYZ=             16.5205 YYXZ=           -337.6220 ZZXY=           -193.5282
 N-N= 8.493393968127D+03 E-N=-2.250372456301D+04  KE= 2.361778877876D+03
 Leave Link  601 at Mon Oct 18 15:25:47 2021, MaxMem=  7864320000 cpu:              51.4 elap:               2.0
 (Enter /apps/gaussian/g16-c01-avx/g16/l9999.exe)
 Unable to Open any file for archive entry.
 1\1\GINC-CX3-5-0\SP\RPBE1PBE\def2TZVP\C47H60N10\ROOT\18-Oct-2021\0\\#P
  PBE1PBE/Def2TZVP SP SCF=(YQC,MaxCycle=900) int=(Grid=Superfinegrid) E
 mpiricalDispersion=GD3 SCRF=(PCM,Solvent=Dichloromethane)\\_3_alde1_5_
 ami2_1_opt_dcm\\0,1\C,0,-3.5783,-1.7631,-1.1263\C,0,-4.4619,-0.8438,-0
 .4249\C,0,-3.0545,-2.8938,-0.5046\C,0,-2.1457,-3.7092,-1.1735\H,0,-3.3
 54,-3.1404,0.5006\C,0,-1.7306,-3.363,-2.4583\C,0,-2.2515,-2.2411,-3.09
 53\H,0,-1.004,-3.9823,-2.9661\C,0,-3.1947,-1.4628,-2.4299\C,0,-1.7652,
 -1.847,-4.4132\H,0,-3.5957,-0.6034,-2.9434\C,0,-1.602,-4.9055,-0.5483\
 H,0,-0.8508,-2.3619,-4.7331\H,0,-4.9333,-0.0734,-1.0544\H,0,-0.7966,-5
 .4074,-1.1064\C,0,3.0826,-2.8636,-0.8295\C,0,3.688,-3.3913,-2.1159\C,0
 ,3.4466,-1.6169,-0.3483\C,0,2.8582,-1.1036,0.8071\H,0,4.1762,-1.0228,-
 0.8736\C,0,1.9018,-1.8595,1.4775\C,0,1.5682,-3.1342,1.0312\H,0,1.4312,
 -1.4628,2.3673\C,0,2.1651,-3.6293,-0.1269\C,0,0.5956,-3.9281,1.7739\H,
 0,1.8895,-4.6093,-0.4806\C,0,3.2191,0.2161,1.2981\H,0,-0.0241,-3.3546,
 2.4746\H,0,2.6092,0.5987,2.1327\C,0,-1.4509,1.8657,-0.1995\C,0,-2.2548
 ,1.6244,0.9947\C,0,-2.0258,1.7627,-1.4647\C,0,-1.246,1.8511,-2.6121\H,
 0,-3.087,1.5809,-1.5258\C,0,0.1228,2.0861,-2.4894\C,0,0.7006,2.253,-1.
 2362\H,0,0.7176,2.1487,-3.3876\C,0,-0.0894,2.125,-0.0945\C,0,2.1292,2.
 5302,-1.1223\H,0,0.3855,2.231,0.869\C,0,-1.8677,1.6414,-3.9099\H,0,2.7
 071,2.3345,-2.0322\H,0,-2.9679,1.6242,-3.9047\C,0,-4.3668,1.2024,2.031
 9\C,0,-5.3756,0.1782,1.4332\N,0,-3.5101,1.5513,0.93\N,0,-4.6395,-0.882
 4,0.8237\H,0,-6.014,0.7093,0.7103\C,0,2.9232,-1.9904,-3.846\C,0,1.9201
 ,-3.1428,-3.5252\N,0,4.076,-2.2815,-2.9837\N,0,2.6836,-4.1705,-2.8372\
 C,0,-1.4008,-6.4843,1.1362\C,0,-0.4503,-6.0106,2.2725\N,0,-2.034,-5.34
 89,0.551\H,0,-2.1735,-7.1231,1.5697\N,0,0.5169,-5.175,1.6157\C,0,0.315
 2,-7.2215,2.8169\C,0,-1.8848,-0.4368,-6.3402\C,0,-1.9257,1.1091,-6.155
 3\N,0,-2.3546,-0.9621,-5.0873\C,0,-0.4757,-0.8582,-6.7672\N,0,-1.2064,
 1.4554,-4.9697\H,0,-2.9806,1.4182,-6.1023\C,0,4.422,2.2032,1.2752\C,0,
 4.0171,3.2124,0.1651\N,0,4.1729,0.8801,0.8079\H,0,3.8556,2.4415,2.19\N
 ,0,2.616,2.9717,-0.0482\H,0,-1.6722,1.4827,1.9133\H,0,3.1429,-4.7734,-
 3.5152\H,0,4.5542,-4.0141,-1.8643\H,0,4.8904,-2.5177,-3.5384\H,0,-5.98
 82,-0.2344,2.237\H,0,-0.8051,-7.0553,0.4074\C,0,-1.2777,-5.3619,3.3865
 \C,0,-2.9038,-0.8382,-7.413\H,0,-1.4423,1.5851,-7.0107\H,0,5.4928,2.30
 55,1.4671\C,0,4.9359,3.0266,-1.0456\C,0,4.1415,4.6377,0.7143\H,0,4.620
 6,3.6665,-1.8679\H,0,4.9289,1.9876,-1.3649\H,0,5.9518,3.2963,-0.7697\C
 ,0,-5.126,2.4689,2.4441\C,0,-3.6748,0.5792,3.2476\H,0,-5.5685,2.9403,1
 .5704\H,0,-4.4408,3.1761,2.9067\H,0,-5.9122,2.2222,3.153\H,0,-3.9102,-
 0.6037,-7.0766\H,0,-2.8435,-1.9087,-7.5972\H,0,-2.7041,-0.3076,-8.3404
 \H,0,-1.9017,-6.1177,3.8559\H,0,-1.9232,-4.5889,2.9775\H,0,-0.6255,-4.
 9323,4.145\H,0,-4.4219,0.3014,3.9862\H,0,-2.9865,1.2843,3.7096\H,0,-3.
 1341,-0.3143,2.9446\H,0,0.2472,-0.5342,-6.0222\H,0,-0.2307,-0.3897,-7.
 7169\H,0,-0.4133,-1.9377,-6.8935\H,0,3.9088,5.3551,-0.0694\H,0,5.1514,
 4.8205,1.0725\H,0,3.4402,4.7825,1.5316\H,0,-0.3757,-7.9879,3.1589\H,0,
 0.943,-6.9141,3.6501\H,0,0.9533,-7.6342,2.0404\H,0,1.4435,-3.5415,-4.4
 201\H,0,1.1535,-2.7769,-2.8368\C,0,2.3343,-0.6292,-3.4729\H,0,1.4128,-
 0.4455,-4.021\H,0,3.0487,0.1558,-3.7083\H,0,2.1183,-0.593,-2.4084\C,0,
 3.3283,-2.0031,-5.3206\H,0,3.7038,-2.9844,-5.612\H,0,4.109,-1.2665,-5.
 5009\H,0,2.4762,-1.7601,-5.9509\\Version=ES64L-G16RevC.01\State=1-A\HF
 =-2372.7116043\RMSD=2.227e-09\Dipole=0.6738802,-0.1334545,-1.1664809\Q
 uadrupole=-6.8648096,-9.6989874,16.5637969,-6.817773,-9.8013248,10.589
 4589\PG=C01 [X(C47H60N10)]\\@
 The archive entry for this job was punched.


 VIRTUE IS LEARNED AT YOUR MOTHER'S KNEE,
 VICES ARE PICKED UP AT SOME OTHER JOINT.
 Job cpu time:       2 days 20 hours 14 minutes  9.5 seconds.
 Elapsed time:       0 days  2 hours  9 minutes 39.2 seconds.
 File lengths (MBytes):  RWF=   3400 Int=      0 D2E=      0 Chk=    272 Scr=     16
 Normal termination of Gaussian 16 at Mon Oct 18 15:25:47 2021.
