 Entering Gaussian System, Link 0=g16
 Initial command:
 /apps/gaussian/g16-c01-avx/g16/l1.exe "/rds/general/ephemeral/user/atarzia/ephemeral/Gau-2759061.inp" -scrdir="/rds/general/ephemeral/user/atarzia/ephemeral/"
 Entering Link 1 = /apps/gaussian/g16-c01-avx/g16/l1.exe PID=   2759062.
  
 Copyright (c) 1988-2019, Gaussian, Inc.  All Rights Reserved.
  
 This is part of the Gaussian(R) 16 program.  It is based on
 the Gaussian(R) 09 system (copyright 2009, Gaussian, Inc.),
 the Gaussian(R) 03 system (copyright 2003, Gaussian, Inc.),
 the Gaussian(R) 98 system (copyright 1998, Gaussian, Inc.),
 the Gaussian(R) 94 system (copyright 1995, Gaussian, Inc.),
 the Gaussian 92(TM) system (copyright 1992, Gaussian, Inc.),
 the Gaussian 90(TM) system (copyright 1990, Gaussian, Inc.),
 the Gaussian 88(TM) system (copyright 1988, Gaussian, Inc.),
 the Gaussian 86(TM) system (copyright 1986, Carnegie Mellon
 University), and the Gaussian 82(TM) system (copyright 1983,
 Carnegie Mellon University). Gaussian is a federally registered
 trademark of Gaussian, Inc.
  
 This software contains proprietary and confidential information,
 including trade secrets, belonging to Gaussian, Inc.
  
 This software is provided under written license and may be
 used, copied, transmitted, or stored only in accord with that
 written license.
  
 The following legend is applicable only to US Government
 contracts under FAR:
  
                    RESTRICTED RIGHTS LEGEND
  
 Use, reproduction and disclosure by the US Government is
 subject to restrictions as set forth in subparagraphs (a)
 and (c) of the Commercial Computer Software - Restricted
 Rights clause in FAR 52.227-19.
  
 Gaussian, Inc.
 340 Quinnipiac St., Bldg. 40, Wallingford CT 06492
  
  
 ---------------------------------------------------------------
 Warning -- This program may not be used in any manner that
 competes with the business of Gaussian, Inc. or will provide
 assistance to any competitor of Gaussian, Inc.  The licensee
 of this program is prohibited from giving any competitor of
 Gaussian, Inc. access to this program.  By using this program,
 the user acknowledges that Gaussian, Inc. is engaged in the
 business of creating and licensing software in the field of
 computational chemistry and represents and warrants to the
 licensee that it is not a competitor of Gaussian, Inc. and that
 it will not use this program in any manner prohibited above.
 ---------------------------------------------------------------
  

 Cite this work as:
 Gaussian 16, Revision C.01,
 M. J. Frisch, G. W. Trucks, H. B. Schlegel, G. E. Scuseria, 
 M. A. Robb, J. R. Cheeseman, G. Scalmani, V. Barone, 
 G. A. Petersson, H. Nakatsuji, X. Li, M. Caricato, A. V. Marenich, 
 J. Bloino, B. G. Janesko, R. Gomperts, B. Mennucci, H. P. Hratchian, 
 J. V. Ortiz, A. F. Izmaylov, J. L. Sonnenberg, D. Williams-Young, 
 F. Ding, F. Lipparini, F. Egidi, J. Goings, B. Peng, A. Petrone, 
 T. Henderson, D. Ranasinghe, V. G. Zakrzewski, J. Gao, N. Rega, 
 G. Zheng, W. Liang, M. Hada, M. Ehara, K. Toyota, R. Fukuda, 
 J. Hasegawa, M. Ishida, T. Nakajima, Y. Honda, O. Kitao, H. Nakai, 
 T. Vreven, K. Throssell, J. A. Montgomery, Jr., J. E. Peralta, 
 F. Ogliaro, M. J. Bearpark, J. J. Heyd, E. N. Brothers, K. N. Kudin, 
 V. N. Staroverov, T. A. Keith, R. Kobayashi, J. Normand, 
 K. Raghavachari, A. P. Rendell, J. C. Burant, S. S. Iyengar, 
 J. Tomasi, M. Cossi, J. M. Millam, M. Klene, C. Adamo, R. Cammi, 
 J. W. Ochterski, R. L. Martin, K. Morokuma, O. Farkas, 
 J. B. Foresman, and D. J. Fox, Gaussian, Inc., Wallingford CT, 2019.
 
 ******************************************
 Gaussian 16:  ES64L-G16RevC.01  3-Jul-2019
                18-Oct-2021 
 ******************************************
 %chk=_3_alde1_5_ami4_2_opt_dcm.chk
 %mem=60000mb
 %nprocshared=32
 Will use up to   32 processors via shared memory.
 ----------------------------------------------------------------------
 #P PBE1PBE/Def2TZVP SP SCF=(YQC,MaxCycle=900) int=(Grid=Superfinegrid)
  EmpiricalDispersion=GD3 SCRF=(PCM,Solvent=Dichloromethane)
 ----------------------------------------------------------------------
 1/38=1,172=1/1;
 2/12=2,17=6,18=5,40=1/2;
 3/5=44,7=101,11=2,25=1,30=1,70=2201,72=9,74=-13,75=-7,124=31/1,2,3;
 4//1;
 5/5=2,7=900,8=4,13=1,38=1,53=9/8,2,8;
 6/7=2,8=2,9=2,10=2,28=1/1;
 99/5=1,9=1/99;
 Leave Link    1 at Mon Oct 18 08:25:47 2021, MaxMem=  7864320000 cpu:               6.7 elap:               0.2
 (Enter /apps/gaussian/g16-c01-avx/g16/l101.exe)
 -------------------------
 _3_alde1_5_ami4_2_opt_dcm
 -------------------------
 Symbolic Z-matrix:
 Charge =  0 Multiplicity = 1
 C                    -4.594    -0.9946   -1.2207 
 C                    -5.3871    0.1015   -0.6852 
 C                    -4.3326   -2.1402   -0.4699 
 C                    -3.4922   -3.1306   -0.9661 
 H                    -4.791    -2.2328    0.5032 
 C                    -2.8709   -2.9498   -2.203 
 C                    -3.1376   -1.8223   -2.9692 
 H                    -2.1913   -3.714    -2.5477 
 C                    -4.0249   -0.8634   -2.4823 
 C                    -2.4459   -1.6022   -4.2329 
 H                    -4.2295   -0.0002   -3.0956 
 C                    -3.2415   -4.3406   -0.1948 
 H                    -1.5431   -2.2117   -4.392 
 H                    -5.6773    0.8722   -1.4142 
 H                    -3.8342   -4.4469    0.7276 
 C                     3.3644   -3.3035   -0.2926 
 C                     4.3739   -3.9566   -1.115 
 C                     3.5359   -1.9873    0.1325 
 C                     2.5686   -1.3627    0.9139 
 H                     4.4287   -1.448    -0.1381 
 C                     1.4167   -2.0648    1.263 
 C                     1.2389   -3.3849    0.8598 
 H                     0.658    -1.5828    1.865 
 C                     2.2178   -3.9985    0.0808 
 C                     0.0476   -4.1124    1.2685 
 H                     2.0607   -5.0226   -0.2214 
 C                     2.756    -0.001     1.3927 
 H                    -0.7137   -3.5162    1.7991 
 H                     4.1605   -4.9994   -1.3983 
 H                     1.9411    0.4021    2.0145 
 C                    -2.009     2.3786   -0.409 
 C                    -2.9928    2.3684    0.6658 
 C                    -2.4283    2.2422   -1.7317 
 C                    -1.5051    2.1044   -2.7613 
 H                    -3.4884    2.2142   -1.9282 
 C                    -0.1432    2.1519   -2.467 
 C                     0.2902    2.3558   -1.1614 
 H                     0.5622    2.0384   -3.276 
 C                    -0.6483    2.447    -0.1327 
 C                     1.7149    2.4697   -0.8798 
 H                    -0.2912    2.578     0.8775 
 C                    -1.9804    1.8486   -4.1123 
 H                     2.3893    2.2017   -1.7071 
 H                    -3.0625    1.9777   -4.2623 
 C                    -5.1805    2.3643    1.4904 
 C                    -6.2883    1.4115    0.9901 
 N                    -4.2239    2.5221    0.443 
 N                    -5.6729    0.2       0.5408 
 C                     6.5086   -3.2219   -3.6326 
 C                     6.3835   -4.0085   -2.3065 
 N                     6.8902   -1.8373   -3.476 
 N                     5.4268   -3.3621   -1.472 
 C                    -2.1257   -6.3633    0.204 
 C                    -1.2988   -5.9962    1.4534 
 N                    -2.4016   -5.1981   -0.5834 
 N                    -0.0949   -5.3466    1.0541 
 C                    -2.0633   -0.4592   -6.2323 
 C                    -1.8184    1.0651   -6.2786 
 N                    -2.8406   -0.7463   -5.0699 
 N                    -1.2188    1.46     -5.041 
 C                     3.9111    2.0045    1.6124 
 C                     3.5439    2.9752    0.4746 
 N                     3.7966    0.6636    1.1349 
 N                     2.1411    2.885     0.2322 
 H                     6.2122   -1.3712   -2.8815 
 H                     7.7908   -1.7738   -3.0116 
 H                    -2.5946    2.1806    1.6754 
 H                     5.5434   -3.2462   -4.1463 
 H                     7.2499   -3.7182   -4.265 
 H                     7.3482   -3.974    -1.7883 
 H                     6.1283   -5.0602   -2.5224 
 H                    -4.7324    1.9701    2.416 
 H                    -5.6349    3.3379    1.6986 
 H                    -6.8405    1.9186    0.1847 
 H                    -6.9625    1.1793    1.817 
 H                     4.9524    2.1713    1.8976 
 H                     3.2483    2.2093    2.4672 
 H                     4.1494    2.7392   -0.4147 
 H                     3.7593    3.9943    0.8081 
 H                    -1.5459   -7.0442   -0.4223 
 H                    -3.0449   -6.8616    0.5414 
 H                    -2.784     1.5641   -6.4497 
 H                    -1.1287    1.2936   -7.0935 
 H                    -2.6413   -0.7415   -7.1171 
 H                    -1.1008   -0.9945   -6.2395 
 H                    -1.0307   -6.9191    1.9747 
 H                    -1.9162   -5.3654    2.1173 
 
 ITRead=  0  0  0  0  0  0  0  0  0  0  0  0  0  0  0  0  0  0  0  0
 ITRead=  0  0  0  0  0  0  0  0  0  0  0  0  0  0  0  0  0  0  0  0
 ITRead=  0  0  0  0  0  0  0  0  0  0  0  0  0  0  0  0  0  0  0  0
 ITRead=  0  0  0  0  0  0  0  0  0  0  0  0  0  0  0  0  0  0  0  0
 ITRead=  0  0  0  0  0  0  0
 MicOpt= -1 -1 -1 -1 -1 -1 -1 -1 -1 -1 -1 -1 -1 -1 -1 -1 -1 -1 -1 -1
 MicOpt= -1 -1 -1 -1 -1 -1 -1 -1 -1 -1 -1 -1 -1 -1 -1 -1 -1 -1 -1 -1
 MicOpt= -1 -1 -1 -1 -1 -1 -1 -1 -1 -1 -1 -1 -1 -1 -1 -1 -1 -1 -1 -1
 MicOpt= -1 -1 -1 -1 -1 -1 -1 -1 -1 -1 -1 -1 -1 -1 -1 -1 -1 -1 -1 -1
 MicOpt= -1 -1 -1 -1 -1 -1 -1
 NAtoms=     87 NQM=       87 NQMF=       0 NMMI=      0 NMMIF=      0
                NMic=       0 NMicF=      0.
                    Isotopes and Nuclear Properties:
 (Nuclear quadrupole moments (NQMom) in fm**2, nuclear magnetic moments (NMagM)
  in nuclear magnetons)

  Atom         1           2           3           4           5           6           7           8           9          10
 IAtWgt=          12          12          12          12           1          12          12           1          12          12
 AtmWgt=  12.0000000  12.0000000  12.0000000  12.0000000   1.0078250  12.0000000  12.0000000   1.0078250  12.0000000  12.0000000
 NucSpn=           0           0           0           0           1           0           0           1           0           0
 AtZEff=  -0.0000000  -0.0000000  -0.0000000  -0.0000000  -0.0000000  -0.0000000  -0.0000000  -0.0000000  -0.0000000  -0.0000000
 NQMom=    0.0000000   0.0000000   0.0000000   0.0000000   0.0000000   0.0000000   0.0000000   0.0000000   0.0000000   0.0000000
 NMagM=    0.0000000   0.0000000   0.0000000   0.0000000   2.7928460   0.0000000   0.0000000   2.7928460   0.0000000   0.0000000
 AtZNuc=   6.0000000   6.0000000   6.0000000   6.0000000   1.0000000   6.0000000   6.0000000   1.0000000   6.0000000   6.0000000

  Atom        11          12          13          14          15          16          17          18          19          20
 IAtWgt=           1          12           1           1           1          12          12          12          12           1
 AtmWgt=   1.0078250  12.0000000   1.0078250   1.0078250   1.0078250  12.0000000  12.0000000  12.0000000  12.0000000   1.0078250
 NucSpn=           1           0           1           1           1           0           0           0           0           1
 AtZEff=  -0.0000000  -0.0000000  -0.0000000  -0.0000000  -0.0000000  -0.0000000  -0.0000000  -0.0000000  -0.0000000  -0.0000000
 NQMom=    0.0000000   0.0000000   0.0000000   0.0000000   0.0000000   0.0000000   0.0000000   0.0000000   0.0000000   0.0000000
 NMagM=    2.7928460   0.0000000   2.7928460   2.7928460   2.7928460   0.0000000   0.0000000   0.0000000   0.0000000   2.7928460
 AtZNuc=   1.0000000   6.0000000   1.0000000   1.0000000   1.0000000   6.0000000   6.0000000   6.0000000   6.0000000   1.0000000

  Atom        21          22          23          24          25          26          27          28          29          30
 IAtWgt=          12          12           1          12          12           1          12           1           1           1
 AtmWgt=  12.0000000  12.0000000   1.0078250  12.0000000  12.0000000   1.0078250  12.0000000   1.0078250   1.0078250   1.0078250
 NucSpn=           0           0           1           0           0           1           0           1           1           1
 AtZEff=  -0.0000000  -0.0000000  -0.0000000  -0.0000000  -0.0000000  -0.0000000  -0.0000000  -0.0000000  -0.0000000  -0.0000000
 NQMom=    0.0000000   0.0000000   0.0000000   0.0000000   0.0000000   0.0000000   0.0000000   0.0000000   0.0000000   0.0000000
 NMagM=    0.0000000   0.0000000   2.7928460   0.0000000   0.0000000   2.7928460   0.0000000   2.7928460   2.7928460   2.7928460
 AtZNuc=   6.0000000   6.0000000   1.0000000   6.0000000   6.0000000   1.0000000   6.0000000   1.0000000   1.0000000   1.0000000

  Atom        31          32          33          34          35          36          37          38          39          40
 IAtWgt=          12          12          12          12           1          12          12           1          12          12
 AtmWgt=  12.0000000  12.0000000  12.0000000  12.0000000   1.0078250  12.0000000  12.0000000   1.0078250  12.0000000  12.0000000
 NucSpn=           0           0           0           0           1           0           0           1           0           0
 AtZEff=  -0.0000000  -0.0000000  -0.0000000  -0.0000000  -0.0000000  -0.0000000  -0.0000000  -0.0000000  -0.0000000  -0.0000000
 NQMom=    0.0000000   0.0000000   0.0000000   0.0000000   0.0000000   0.0000000   0.0000000   0.0000000   0.0000000   0.0000000
 NMagM=    0.0000000   0.0000000   0.0000000   0.0000000   2.7928460   0.0000000   0.0000000   2.7928460   0.0000000   0.0000000
 AtZNuc=   6.0000000   6.0000000   6.0000000   6.0000000   1.0000000   6.0000000   6.0000000   1.0000000   6.0000000   6.0000000

  Atom        41          42          43          44          45          46          47          48          49          50
 IAtWgt=           1          12           1           1          12          12          14          14          12          12
 AtmWgt=   1.0078250  12.0000000   1.0078250   1.0078250  12.0000000  12.0000000  14.0030740  14.0030740  12.0000000  12.0000000
 NucSpn=           1           0           1           1           0           0           2           2           0           0
 AtZEff=  -0.0000000  -0.0000000  -0.0000000  -0.0000000  -0.0000000  -0.0000000  -0.0000000  -0.0000000  -0.0000000  -0.0000000
 NQMom=    0.0000000   0.0000000   0.0000000   0.0000000   0.0000000   0.0000000   2.0440000   2.0440000   0.0000000   0.0000000
 NMagM=    2.7928460   0.0000000   2.7928460   2.7928460   0.0000000   0.0000000   0.4037610   0.4037610   0.0000000   0.0000000
 AtZNuc=   1.0000000   6.0000000   1.0000000   1.0000000   6.0000000   6.0000000   7.0000000   7.0000000   6.0000000   6.0000000

  Atom        51          52          53          54          55          56          57          58          59          60
 IAtWgt=          14          14          12          12          14          14          12          12          14          14
 AtmWgt=  14.0030740  14.0030740  12.0000000  12.0000000  14.0030740  14.0030740  12.0000000  12.0000000  14.0030740  14.0030740
 NucSpn=           2           2           0           0           2           2           0           0           2           2
 AtZEff=  -0.0000000  -0.0000000  -0.0000000  -0.0000000  -0.0000000  -0.0000000  -0.0000000  -0.0000000  -0.0000000  -0.0000000
 NQMom=    2.0440000   2.0440000   0.0000000   0.0000000   2.0440000   2.0440000   0.0000000   0.0000000   2.0440000   2.0440000
 NMagM=    0.4037610   0.4037610   0.0000000   0.0000000   0.4037610   0.4037610   0.0000000   0.0000000   0.4037610   0.4037610
 AtZNuc=   7.0000000   7.0000000   6.0000000   6.0000000   7.0000000   7.0000000   6.0000000   6.0000000   7.0000000   7.0000000

  Atom        61          62          63          64          65          66          67          68          69          70
 IAtWgt=          12          12          14          14           1           1           1           1           1           1
 AtmWgt=  12.0000000  12.0000000  14.0030740  14.0030740   1.0078250   1.0078250   1.0078250   1.0078250   1.0078250   1.0078250
 NucSpn=           0           0           2           2           1           1           1           1           1           1
 AtZEff=  -0.0000000  -0.0000000  -0.0000000  -0.0000000  -0.0000000  -0.0000000  -0.0000000  -0.0000000  -0.0000000  -0.0000000
 NQMom=    0.0000000   0.0000000   2.0440000   2.0440000   0.0000000   0.0000000   0.0000000   0.0000000   0.0000000   0.0000000
 NMagM=    0.0000000   0.0000000   0.4037610   0.4037610   2.7928460   2.7928460   2.7928460   2.7928460   2.7928460   2.7928460
 AtZNuc=   6.0000000   6.0000000   7.0000000   7.0000000   1.0000000   1.0000000   1.0000000   1.0000000   1.0000000   1.0000000

  Atom        71          72          73          74          75          76          77          78          79          80
 IAtWgt=           1           1           1           1           1           1           1           1           1           1
 AtmWgt=   1.0078250   1.0078250   1.0078250   1.0078250   1.0078250   1.0078250   1.0078250   1.0078250   1.0078250   1.0078250
 NucSpn=           1           1           1           1           1           1           1           1           1           1
 AtZEff=  -0.0000000  -0.0000000  -0.0000000  -0.0000000  -0.0000000  -0.0000000  -0.0000000  -0.0000000  -0.0000000  -0.0000000
 NQMom=    0.0000000   0.0000000   0.0000000   0.0000000   0.0000000   0.0000000   0.0000000   0.0000000   0.0000000   0.0000000
 NMagM=    2.7928460   2.7928460   2.7928460   2.7928460   2.7928460   2.7928460   2.7928460   2.7928460   2.7928460   2.7928460
 AtZNuc=   1.0000000   1.0000000   1.0000000   1.0000000   1.0000000   1.0000000   1.0000000   1.0000000   1.0000000   1.0000000

  Atom        81          82          83          84          85          86          87
 IAtWgt=           1           1           1           1           1           1           1
 AtmWgt=   1.0078250   1.0078250   1.0078250   1.0078250   1.0078250   1.0078250   1.0078250
 NucSpn=           1           1           1           1           1           1           1
 AtZEff=  -0.0000000  -0.0000000  -0.0000000  -0.0000000  -0.0000000  -0.0000000  -0.0000000
 NQMom=    0.0000000   0.0000000   0.0000000   0.0000000   0.0000000   0.0000000   0.0000000
 NMagM=    2.7928460   2.7928460   2.7928460   2.7928460   2.7928460   2.7928460   2.7928460
 AtZNuc=   1.0000000   1.0000000   1.0000000   1.0000000   1.0000000   1.0000000   1.0000000
 Leave Link  101 at Mon Oct 18 08:25:48 2021, MaxMem=  7864320000 cpu:               3.2 elap:               0.1
 (Enter /apps/gaussian/g16-c01-avx/g16/l202.exe)
 Stoichiometry    C37H40N10
 Framework group  C1[X(C37H40N10)]
 Deg. of freedom   255
 Full point group                 C1      NOp   1
 Largest Abelian subgroup         C1      NOp   1
 Largest concise Abelian subgroup C1      NOp   1
                         Standard orientation:                         
 ---------------------------------------------------------------------
 Center     Atomic      Atomic             Coordinates (Angstroms)
 Number     Number       Type             X           Y           Z
 ---------------------------------------------------------------------
      1          6           0       -4.025328    1.412035    0.289217
      2          6           0       -5.104719    0.717570   -0.396229
      3          6           0       -3.399625    2.523488   -0.274341
      4          6           0       -2.307079    3.110466    0.354291
      5          1           0       -3.779043    2.908103   -1.209083
      6          6           0       -1.807732    2.550443    1.531429
      7          6           0       -2.433271    1.455142    2.113206
      8          1           0       -0.934064    2.999744    1.978091
      9          6           0       -3.560833    0.910799    1.499890
     10          6           0       -1.880021    0.832106    3.308853
     11          1           0       -4.040882    0.068124    1.971656
     12          6           0       -1.670934    4.288848   -0.218934
     13          1           0       -0.837243    1.096551    3.542377
     14          1           0       -5.640553   -0.030232    0.206523
     15          1           0       -2.175092    4.720045   -1.098314
     16          6           0        4.279166    1.244300   -0.442744
     17          6           0        5.418297    1.410637    0.449828
     18          6           0        4.044564    0.025625   -1.077014
     19          6           0        2.953240   -0.133691   -1.925547
     20          1           0        4.717368   -0.800784   -0.917187
     21          6           0        2.087137    0.938437   -2.130719
     22          6           0        2.317580    2.166219   -1.517290
     23          1           0        1.233312    0.819147   -2.784253
     24          6           0        3.416570    2.311999   -0.673157
     25          6           0        1.423618    3.283912   -1.776289
     26          1           0        3.577430    3.272139   -0.207279
     27          6           0        2.721093   -1.391384   -2.620466
     28          1           0        0.529800    3.047069   -2.377591
     29          1           0        5.532019    2.408841    0.901364
     30          1           0        1.838977   -1.416101   -3.279592
     31          6           0       -2.596201   -2.423703   -1.112307
     32          6           0       -3.497521   -1.936435   -2.148335
     33          6           0       -2.989132   -2.376153    0.224592
     34          6           0       -2.098078   -2.698697    1.241131
     35          1           0       -3.992993   -2.051075    0.447739
     36          6           0       -0.810841   -3.120451    0.911303
     37          6           0       -0.425992   -3.238352   -0.419859
     38          1           0       -0.128074   -3.362764    1.711344
     39          6           0       -1.317110   -2.867531   -1.427690
     40          6           0        0.899893   -3.743892   -0.749253
     41          1           0       -0.990338   -2.940459   -2.453890
     42          6           0       -2.507858   -2.526363    2.626384
     43          1           0        1.600758   -3.834732    0.094311
     44          1           0       -3.580185   -2.334192    2.779000
     45          6           0       -5.551419   -1.119806   -2.910327
     46          6           0       -6.321427    0.038060   -2.238179
     47          7           0       -4.721085   -1.732507   -1.924338
     48          7           0       -5.372535    0.909716   -1.615169
     49          6           0        7.147178   -0.343754    2.766748
     50          6           0        7.310151    0.643458    1.587010
     51          7           0        7.083372   -1.734737    2.381581
     52          7           0        6.223602    0.468882    0.682337
     53          6           0        0.029408    5.899763   -0.314629
     54          6           0        0.735734    5.497463   -1.625654
     55          7           0       -0.617191    4.768631    0.282247
     56          7           0        1.666161    4.450320   -1.363750
     57          6           0       -1.928091   -0.676495    5.089933
     58          6           0       -2.170897   -2.188113    4.885812
     59          7           0       -2.544654    0.019821    4.006978
     60          7           0       -1.689479   -2.547544    3.587287
     61          6           0        3.200718   -3.594875   -3.185390
     62          6           0        2.518077   -4.571213   -2.209455
     63          7           0        3.495685   -2.379165   -2.496787
     64          7           0        1.206722   -4.088447   -1.923051
     65          1           0        6.310946   -1.865461    1.736110
     66          1           0        7.932170   -2.000696    1.892105
     67          1           0       -3.032554   -1.723607   -3.123852
     68          1           0        6.223437   -0.102255    3.300106
     69          1           0        7.988071   -0.210493    3.452978
     70          1           0        8.230370    0.393277    1.047590
     71          1           0        7.388820    1.673762    1.974435
     72          1           0       -4.977196   -0.742552   -3.771065
     73          1           0       -6.280112   -1.857168   -3.261079
     74          1           0       -7.026296   -0.393379   -1.511705
     75          1           0       -6.866518    0.597361   -3.001254
     76          1           0        4.146027   -4.029989   -3.517855
     77          1           0        2.531302   -3.444059   -4.046242
     78          1           0        3.141799   -4.680453   -1.308223
     79          1           0        2.415033   -5.539837   -2.706781
     80          1           0        0.774473    6.257228    0.398913
     81          1           0       -0.679358    6.706632   -0.546324
     82          1           0       -3.248206   -2.382112    4.997297
     83          1           0       -1.609594   -2.746863    5.637276
     84          1           0       -2.414137   -0.373043    6.021772
     85          1           0       -0.847428   -0.475943    5.160283
     86          1           0        1.292101    6.361625   -1.998555
     87          1           0       -0.028413    5.204635   -2.367399
 ---------------------------------------------------------------------
 Rotational constants (GHZ):           0.0684206           0.0452942           0.0395784
 Leave Link  202 at Mon Oct 18 08:25:48 2021, MaxMem=  7864320000 cpu:               0.3 elap:               0.0
 (Enter /apps/gaussian/g16-c01-avx/g16/l301.exe)
 Standard basis: def2TZVP (5D, 7F)
 Ernie: Thresh=  0.10000D-02 Tol=  0.10000D-05 Strict=F.
 There are  1932 symmetry adapted cartesian basis functions of A   symmetry.
 There are  1697 symmetry adapted basis functions of A   symmetry.
  1697 basis functions,  2717 primitive gaussians,  1932 cartesian basis functions
   166 alpha electrons      166 beta electrons
       nuclear repulsion energy      5599.4622094533 Hartrees.
 IExCor= 1009 DFT=T Ex+Corr=PBE1PBE ExCW=0 ScaHFX=  0.250000
 ScaDFX=  0.750000  0.750000  1.000000  1.000000 ScalE2=  1.000000  1.000000
 IRadAn=      7 IRanWt=     -1 IRanGd=            0 ICorTp=0 IEmpDi=131
 NAtoms=   87 NActive=   87 NUniq=   87 SFac= 1.00D+00 NAtFMM=   60 NAOKFM=T Big=T
 Integral buffers will be    131072 words long.
 Raffenetti 2 integral format.
 Two-electron integral symmetry is turned on.
 R6Disp:  Grimme-D3 Dispersion energy=       -0.0629466862 Hartrees.
 Nuclear repulsion after empirical dispersion term =     5599.3992627671 Hartrees.
 ------------------------------------------------------------------------------
 Polarizable Continuum Model (PCM)
 =================================
 Model                : PCM.
 Atomic radii         : UFF (Universal Force Field).
 Polarization charges : Total charges.
 Charge compensation  : None.
 Solution method      : On-the-fly selection.
 Cavity type          : Scaled VdW (van der Waals Surface) (Alpha=1.100).
 Cavity algorithm     : GePol (No added spheres)
                        Default sphere list used, NSphG=   87.
                        Lebedev-Laikov grids with approx.  5.0 points / Ang**2.
                        Smoothing algorithm: York/Karplus (Gamma=1.0000).
                        Polarization charges: spherical gaussians, with
                                              point-specific exponents (IZeta= 3).
                        Self-potential: point-specific (ISelfS= 7).
                        Self-field    : sphere-specific E.n sum rule (ISelfD= 2).
 Solvent              : Dichloromethane, Eps=   8.930000 Eps(inf)=   2.028346
 ------------------------------------------------------------------------------
 GePol: Number of generator spheres                  =      87
 GePol: Total number of spheres                      =      87
 GePol: Number of exposed spheres                    =      87 (100.00%)
 GePol: Number of points                             =    5748
 GePol: Average weight of points                     =       0.13
 GePol: Minimum weight of points                     =   0.29D-10
 GePol: Maximum weight of points                     =    0.20577
 GePol: Number of points with low weight             =     378
 GePol: Fraction of low-weight points (<1% of avg)   =       6.58%
 GePol: Cavity surface area                          =    748.297 Ang**2
 GePol: Cavity volume                                =    879.315 Ang**3
 Leave Link  301 at Mon Oct 18 08:25:48 2021, MaxMem=  7864320000 cpu:               2.1 elap:               0.1
 (Enter /apps/gaussian/g16-c01-avx/g16/l302.exe)
 NPDir=0 NMtPBC=     1 NCelOv=     1 NCel=       1 NClECP=     1 NCelD=      1
         NCelK=      1 NCelE2=     1 NClLst=     1 CellRange=     0.0.
 One-electron integrals computed using PRISM.
 One-electron integral symmetry used in STVInt
   1 Symmetry operations used in ECPInt.
 ECPInt:  NShTT=  229503 NPrTT=  697944 LenC2=  160537 LenP2D=  315666.
 LDataN:  DoStor=T MaxTD1= 6 Len=  172
 NBasis=  1697 RedAO= T EigKep=  5.18D-06  NBF=  1697
 NBsUse=  1697 1.00D-06 EigRej= -1.00D+00 NBFU=  1697
 Precomputing XC quadrature grid using
 IXCGrd= 4 IRadAn=           7 IRanWt=          -1 IRanGd=           0 AccXCQ= 0.00D+00.
 Generated NRdTot=       0 NPtTot=           0 NUsed=           0 NTot=          32
 NSgBfM=  1788  1756  1760  1773  1788 MxSgAt=    87 MxSgA2=    87.
 Leave Link  302 at Mon Oct 18 08:25:58 2021, MaxMem=  7864320000 cpu:             309.4 elap:               9.8
 (Enter /apps/gaussian/g16-c01-avx/g16/l303.exe)
 DipDrv:  MaxL=1.
 Leave Link  303 at Mon Oct 18 08:25:58 2021, MaxMem=  7864320000 cpu:              13.4 elap:               0.5
 (Enter /apps/gaussian/g16-c01-avx/g16/l401.exe)
 ExpMin= 9.52D-02 ExpMax= 1.97D+04 ExpMxC= 6.73D+02 IAcc=3 IRadAn=         7 AccDes= 0.00D+00
 Harris functional with IExCor= 1009 and IRadAn=       7 diagonalized for initial guess.
 HarFok:  IExCor= 1009 AccDes= 0.00D+00 IRadAn=         7 IDoV= 1 UseB2=F ITyADJ=14
 ICtDFT=  3500011 ScaDFX=  1.000000  1.000000  1.000000  1.000000
 FoFCou: FMM=F IPFlag=           0 FMFlag=      100000 FMFlg1=        2001
         NFxFlg=           0 DoJE=T BraDBF=F KetDBF=T FulRan=T
         wScrn=  0.000000 ICntrl=       500 IOpCl=  0 I1Cent=   200000004 NGrid=           0
         NMat0=    1 NMatS0=      1 NMatT0=    0 NMatD0=    1 NMtDS0=    0 NMtDT0=    0
 Petite list used in FoFCou.
 Harris En= -1980.30538856966    
 JPrj=0 DoOrth=F DoCkMO=F.
 Leave Link  401 at Mon Oct 18 08:26:26 2021, MaxMem=  7864320000 cpu:             887.5 elap:              28.1
 (Enter /apps/gaussian/g16-c01-avx/g16/l508.exe)
 Integral symmetry usage will be decided dynamically.
 Tight linear equation convergence will be used.
 RPBE1PBE wavefunction.
 Linear searches until partial convergence.
 Full line searches.
 Fock matrices will be formed incrementally for  20 cycles.
 Inv3:  Mode=1 IEnd=    99118512.
 Iteration    1 A*A^-1 deviation from unit magnitude is 1.44D-14 for   5725.
 Iteration    1 A*A^-1 deviation from orthogonality  is 3.48D-15 for   4307    248.
 Iteration    1 A^-1*A deviation from unit magnitude is 1.44D-14 for   5725.
 Iteration    1 A^-1*A deviation from orthogonality  is 4.30D-15 for   5739   5273.
 FoFJK:  IHMeth= 1 ICntrl=       0 DoSepK=F KAlg= 0 I1Cent=           0 FoldK=F
 IRaf= 670000000 NMat=       1 IRICut=       1 DoRegI=T DoRafI=F ISym2E= 1 IDoP0=0 IntGTp=1.
 Iteration   1 EE= -1979.04727566142                                    Grad=1.367D+00 Max rot=    1.8674 deg.
 Gradient too large for Newton-Raphson -- use scaled steepest descent instead.
 Alpha Gap=     0.187 HL deriv= 9.29D-04
     ILin= 1 X=0.000D+00 Y=-1.979047275661D+03 DE= 0.00D+00 F= -3.19D+00
 RMSU=  7.16D-04    CP:  1.01D+00
     ILin= 2 X=3.000D-01 Y=-1.979707421039D+03 DE=-6.60D-01 F= -1.21D+00 OKLS=F
 RMSU=  1.25D-04    CP:  1.03D+00  1.78D+00
     ILin= 3 X=5.000D-01 Y=-1.979814703175D+03 DE=-7.67D-01 F=  1.36D-01
 RMSU=  5.32D-04    CP:  1.06D+00  3.00D+00  3.00D+00
     ILin= 4 X=9.000D-01 Y=-1.979218868980D+03 DE=-1.72D-01 F=  2.84D+00
     An  expanding polynomial of degree  4 produced  0.4800
     Minimum is close to point  3 DX= -2.00D-02 DF= -1.35D-03 DXR=  4.17D-02 DFR=  1.75D-03 which will be used.
 Iteration   2 EE= -1979.81470317497     Delta-E=       -0.767427513549 Grad=4.233D-01 Max rot=    1.7100 deg.
 Gradient too large for Newton-Raphson -- use scaled steepest descent instead.
 Alpha Gap=     0.202 HL deriv= 1.57D-02
     ILin= 1 X=0.000D+00 Y=-1.979814703175D+03 DE= 0.00D+00 F= -2.08D-01
 RMSU=  1.57D-04    CP:  1.03D+00  1.87D+00  1.16D+00  4.13D-04
     ILin= 2 X=4.000D-01 Y=-1.979859018682D+03 DE=-4.43D-02 F= -1.39D-02 OKLS=F
 RMSU=  7.81D-06    CP:  1.02D+00  1.94D+00  1.33D+00  7.25D-04  1.75D+00
     ILin= 3 X=7.000D-01 Y=-1.979841508824D+03 DE=-2.68D-02 F=  1.30D-01
     An  expanding polynomial of degree  3 produced  0.4292
     Minimum is close to point  2 DX=  2.92D-02 DF= -2.07D-04 DXR=  6.81D-02 DFR=  4.66D-03 which will be used.
 Iteration   3 EE= -1979.85901868185     Delta-E=       -0.044315506874 Grad=2.057D-01 Max rot=    0.7990 deg.
 Gradient too large for Newton-Raphson -- use scaled steepest descent instead.
 Alpha Gap=     0.191 HL deriv= 6.12D-03
     ILin= 1 X=0.000D+00 Y=-1.979859018682D+03 DE= 0.00D+00 F= -2.89D-02
 RMSU=  6.50D-05    CP:  1.03D+00  2.15D+00  1.77D+00  6.52D-04  1.48D+00
                    CP:  9.85D-01
     ILin= 2 X=5.000D-01 Y=-1.979867276195D+03 DE=-8.26D-03 F= -4.15D-03 OKLS=F
 RMSU=  4.15D-06    CP:  1.04D+00  2.39D+00  2.35D+00  8.56D-04  1.87D+00
                    CP:  2.21D+00  1.82D+00
     ILin= 3 X=9.000D-01 Y=-1.979864984667D+03 DE=-5.97D-03 F=  1.56D-02
     An  expanding polynomial of degree  3 produced  0.5841
 RMSU=  4.33D-10    CP:  1.03D+00  2.20D+00  1.89D+00  6.94D-04  1.56D+00
                    CP:  1.21D+00  1.17D+00  1.36D-01
 Iteration   4 EE= -1979.86745082528     Delta-E=       -0.008432143435 Grad=9.081D-02 Max rot=    0.3081 deg.
 Gradient too large for Newton-Raphson -- use scaled steepest descent instead.
 Alpha Gap=     0.198 HL deriv= 6.56D-03
     ILin= 1 X=0.000D+00 Y=-1.979867450825D+03 DE= 0.00D+00 F= -9.10D-03
 RMSU=  2.85D-05    CP:  1.03D+00  2.24D+00  1.98D+00  7.45D-04  1.83D+00
                    CP:  2.11D+00  1.25D+00  5.02D-01  3.00D+00
     ILin= 2 X=5.000D-01 Y=-1.979869021631D+03 DE=-1.57D-03 F=  2.81D-03 OKLS=T
     Accept linear search using points  1 and  2.
     An  expanding polynomial of degree  2 produced  0.2871
 RMSU=  8.62D-08    CP:  1.03D+00  2.22D+00  1.94D+00  7.23D-04  1.71D+00
                    CP:  1.71D+00  1.22D+00  3.39D-01  3.00D+00  5.74D-01
 Iteration   5 EE= -1979.86908027560     Delta-E=       -0.001629450316 Grad=5.420D-02 Max rot=    0.2135 deg.
 Gradient too large for Newton-Raphson -- use scaled steepest descent instead.
 Alpha Gap=     0.195 HL deriv= 7.18D-04
     ILin= 1 X=0.000D+00 Y=-1.979869080276D+03 DE= 0.00D+00 F= -1.32D-03
 RMSU=  6.45D-06    CP:  1.03D+00  2.31D+00  2.16D+00  7.97D-04  1.92D+00
                    CP:  2.49D+00  1.54D+00  1.03D+00  3.00D+00  1.16D+00
                    CP: -3.00D+00
     ILin= 2 X=6.000D-01 Y=-1.979869615842D+03 DE=-5.36D-04 F= -4.66D-04 OKLS=F
 RMSU=  3.12D-06    CP:  1.04D+00  2.40D+00  2.39D+00  8.72D-04  2.12D+00
                    CP:  3.00D+00  1.87D+00  1.91D+00  3.00D+00  1.76D+00
                    CP: -3.00D+00  2.01D+00
     ILin= 3 X=1.200D+00 Y=-1.979869639532D+03 DE=-5.59D-04 F=  3.87D-04
     Accept linear search using points  2 and  3.
     An  expanding polynomial of degree  3 produced  0.9111
 RMSU=  3.53D-07    CP:  1.03D+00  2.36D+00  2.28D+00  8.36D-04  2.02D+00
                    CP:  2.94D+00  1.71D+00  1.46D+00  3.00D+00  1.47D+00
                    CP: -3.00D+00  1.52D+00  3.10D-02
 Iteration   6 EE= -1979.86969202008     Delta-E=       -0.000611744480 Grad=8.038D-03 Max rot=    0.0327 deg.
 SCF Done:  E(RPBE1PBE) =  -1979.86969202     a.u. after    6 cycles
            Convg  =    0.8038D-02                    14 Fock formations.
              S**2 =  0.0000                  -V/T =  2.0045
 Leave Link  508 at Mon Oct 18 08:59:38 2021, MaxMem=  7864320000 cpu:           62800.7 elap:            1991.4
 (Enter /apps/gaussian/g16-c01-avx/g16/l502.exe)
 Integral symmetry usage will be decided dynamically.
 Closed shell SCF:
 Using DIIS extrapolation, IDIIS=  1040.
 NGot=  7864320000 LenX=  7856774098 LenY=  7853039542
 Requested convergence on RMS density matrix=1.00D-08 within 128 cycles.
 Requested convergence on MAX density matrix=1.00D-06.
 Requested convergence on             energy=1.00D-06.
 No special actions if energy rises.
 Fock matrices will be formed incrementally for  20 cycles.

 Cycle   1  Pass 1  IDiag  1:
 FoFJK:  IHMeth= 1 ICntrl=       0 DoSepK=F KAlg= 0 I1Cent=           0 FoldK=F
 IRaf= 670000000 NMat=       1 IRICut=       1 DoRegI=T DoRafI=F ISym2E= 0 IDoP0=0 IntGTp=1.
 FoFCou: FMM=T IPFlag=           0 FMFlag=      100000 FMFlg1=        2001
         NFxFlg=           0 DoJE=F BraDBF=F KetDBF=F FulRan=T
         wScrn=  0.000000 ICntrl=         0 IOpCl=  0 I1Cent=           0 NGrid=           0
         NMat0=    1 NMatS0=      1 NMatT0=    0 NMatD0=    1 NMtDS0=    0 NMtDT0=    0
 Symmetry not used in FoFCou.
 FMM levels:  10  Number of levels for PrismC:   9
 E= -1979.86969202010    
 DIIS: error= 5.87D-05 at cycle   1 NSaved=   1.
 NSaved= 1 IEnMin= 1 EnMin= -1979.86969202010     IErMin= 1 ErrMin= 5.87D-05
 ErrMax= 5.87D-05  0.00D+00 EMaxC= 1.00D-01 BMatC= 3.23D-05 BMatP= 3.23D-05
 IDIUse=1 WtCom= 1.00D+00 WtEn= 0.00D+00
 Coeff-Com:  0.100D+01
 Coeff:      0.100D+01
 Gap=     0.195 Goal=   None    Shift=    0.000
 RMSDP=4.67D-05 MaxDP=9.40D-03              OVMax= 2.01D-03

 Cycle   2  Pass 1  IDiag  1:
 RMSU=  4.15D-05    CP:  1.00D+00
 E= -1979.86965277446     Delta-E=        0.000039245642 Rises=F Damp=F
 DIIS: error= 9.64D-05 at cycle   2 NSaved=   2.
 NSaved= 2 IEnMin= 1 EnMin= -1979.86969202010     IErMin= 1 ErrMin= 5.87D-05
 ErrMax= 9.64D-05  0.00D+00 EMaxC= 1.00D-01 BMatC= 7.64D-05 BMatP= 3.23D-05
 IDIUse=1 WtCom= 1.00D+00 WtEn= 0.00D+00
 Coeff-Com:  0.621D+00 0.379D+00
 Coeff:      0.621D+00 0.379D+00
 Gap=     0.180 Goal=   None    Shift=    0.000
 RMSDP=1.50D-05 MaxDP=3.22D-03 DE= 3.92D-05 OVMax= 1.49D-03

 Cycle   3  Pass 1  IDiag  1:
 RMSU=  7.30D-06    CP:  1.00D+00  7.37D-01
 E= -1979.86971917468     Delta-E=       -0.000066400214 Rises=F Damp=F
 DIIS: error= 1.80D-05 at cycle   3 NSaved=   3.
 NSaved= 3 IEnMin= 3 EnMin= -1979.86971917468     IErMin= 3 ErrMin= 1.80D-05
 ErrMax= 1.80D-05  0.00D+00 EMaxC= 1.00D-01 BMatC= 2.22D-06 BMatP= 3.23D-05
 IDIUse=1 WtCom= 1.00D+00 WtEn= 0.00D+00
 Coeff-Com:  0.171D-01 0.145D+00 0.838D+00
 Coeff:      0.171D-01 0.145D+00 0.838D+00
 Gap=     0.180 Goal=   None    Shift=    0.000
 RMSDP=4.16D-06 MaxDP=7.80D-04 DE=-6.64D-05 OVMax= 2.81D-04

 Cycle   4  Pass 1  IDiag  1:
 RMSU=  7.85D-07    CP:  1.00D+00  8.22D-01  9.13D-01
 E= -1979.86972105031     Delta-E=       -0.000001875631 Rises=F Damp=F
 DIIS: error= 5.74D-06 at cycle   4 NSaved=   4.
 NSaved= 4 IEnMin= 4 EnMin= -1979.86972105031     IErMin= 4 ErrMin= 5.74D-06
 ErrMax= 5.74D-06  0.00D+00 EMaxC= 1.00D-01 BMatC= 1.69D-07 BMatP= 2.22D-06
 IDIUse=1 WtCom= 1.00D+00 WtEn= 0.00D+00
 Coeff-Com: -0.891D-02 0.636D-01 0.423D+00 0.522D+00
 Coeff:     -0.891D-02 0.636D-01 0.423D+00 0.522D+00
 Gap=     0.180 Goal=   None    Shift=    0.000
 RMSDP=5.58D-07 MaxDP=1.51D-04 DE=-1.88D-06 OVMax= 9.10D-05

 Cycle   5  Pass 1  IDiag  1:
 RMSU=  3.06D-07    CP:  1.00D+00  8.15D-01  9.47D-01  7.94D-01
 E= -1979.86972120267     Delta-E=       -0.000000152365 Rises=F Damp=F
 DIIS: error= 2.01D-06 at cycle   5 NSaved=   5.
 NSaved= 5 IEnMin= 5 EnMin= -1979.86972120267     IErMin= 5 ErrMin= 2.01D-06
 ErrMax= 2.01D-06  0.00D+00 EMaxC= 1.00D-01 BMatC= 1.25D-08 BMatP= 1.69D-07
 IDIUse=1 WtCom= 1.00D+00 WtEn= 0.00D+00
 Coeff-Com: -0.590D-02 0.131D-01 0.959D-01 0.246D+00 0.651D+00
 Coeff:     -0.590D-02 0.131D-01 0.959D-01 0.246D+00 0.651D+00
 Gap=     0.180 Goal=   None    Shift=    0.000
 RMSDP=1.77D-07 MaxDP=5.82D-05 DE=-1.52D-07 OVMax= 2.43D-05

 Cycle   6  Pass 1  IDiag  1:
 RMSU=  1.38D-07    CP:  1.00D+00  8.16D-01  9.50D-01  8.93D-01  7.99D-01
 E= -1979.86972121263     Delta-E=       -0.000000009955 Rises=F Damp=F
 DIIS: error= 8.88D-07 at cycle   6 NSaved=   6.
 NSaved= 6 IEnMin= 6 EnMin= -1979.86972121263     IErMin= 6 ErrMin= 8.88D-07
 ErrMax= 8.88D-07  0.00D+00 EMaxC= 1.00D-01 BMatC= 2.60D-09 BMatP= 1.25D-08
 IDIUse=1 WtCom= 1.00D+00 WtEn= 0.00D+00
 Coeff-Com: -0.263D-02 0.259D-02 0.217D-01 0.106D+00 0.396D+00 0.476D+00
 Coeff:     -0.263D-02 0.259D-02 0.217D-01 0.106D+00 0.396D+00 0.476D+00
 Gap=     0.180 Goal=   None    Shift=    0.000
 RMSDP=7.12D-08 MaxDP=2.39D-05 DE=-9.96D-09 OVMax= 9.61D-06

 Cycle   7  Pass 1  IDiag  1:
 RMSU=  3.26D-08    CP:  1.00D+00  8.16D-01  9.51D-01  8.78D-01  9.24D-01
                    CP:  6.67D-01
 E= -1979.86972121492     Delta-E=       -0.000000002296 Rises=F Damp=F
 DIIS: error= 2.01D-07 at cycle   7 NSaved=   7.
 NSaved= 7 IEnMin= 7 EnMin= -1979.86972121492     IErMin= 7 ErrMin= 2.01D-07
 ErrMax= 2.01D-07  0.00D+00 EMaxC= 1.00D-01 BMatC= 1.49D-10 BMatP= 2.60D-09
 IDIUse=1 WtCom= 1.00D+00 WtEn= 0.00D+00
 Coeff-Com: -0.397D-03-0.639D-03-0.311D-02 0.183D-01 0.997D-01 0.225D+00
 Coeff-Com:  0.661D+00
 Coeff:     -0.397D-03-0.639D-03-0.311D-02 0.183D-01 0.997D-01 0.225D+00
 Coeff:      0.661D+00
 Gap=     0.180 Goal=   None    Shift=    0.000
 RMSDP=1.93D-08 MaxDP=5.26D-06 DE=-2.30D-09 OVMax= 3.22D-06

 Cycle   8  Pass 1  IDiag  1:
 RMSU=  1.13D-08    CP:  1.00D+00  8.17D-01  9.52D-01  8.90D-01  9.13D-01
                    CP:  7.31D-01  8.83D-01
 E= -1979.86972121509     Delta-E=       -0.000000000167 Rises=F Damp=F
 DIIS: error= 6.02D-08 at cycle   8 NSaved=   8.
 NSaved= 8 IEnMin= 8 EnMin= -1979.86972121509     IErMin= 8 ErrMin= 6.02D-08
 ErrMax= 6.02D-08  0.00D+00 EMaxC= 1.00D-01 BMatC= 2.29D-11 BMatP= 1.49D-10
 IDIUse=1 WtCom= 1.00D+00 WtEn= 0.00D+00
 Coeff-Com:  0.124D-03-0.706D-03-0.463D-02-0.518D-02-0.578D-02 0.457D-01
 Coeff-Com:  0.335D+00 0.635D+00
 Coeff:      0.124D-03-0.706D-03-0.463D-02-0.518D-02-0.578D-02 0.457D-01
 Coeff:      0.335D+00 0.635D+00
 Gap=     0.180 Goal=   None    Shift=    0.000
 RMSDP=6.63D-09 MaxDP=1.42D-06 DE=-1.67D-10 OVMax= 1.29D-06

 Cycle   9  Pass 1  IDiag  1:
 RMSU=  4.19D-09    CP:  1.00D+00  8.17D-01  9.52D-01  8.91D-01  9.22D-01
                    CP:  7.36D-01  9.46D-01  7.77D-01
 E= -1979.86972121505     Delta-E=        0.000000000041 Rises=F Damp=F
 DIIS: error= 2.25D-08 at cycle   9 NSaved=   9.
 NSaved= 9 IEnMin= 8 EnMin= -1979.86972121509     IErMin= 9 ErrMin= 2.25D-08
 ErrMax= 2.25D-08  0.00D+00 EMaxC= 1.00D-01 BMatC= 1.62D-12 BMatP= 2.29D-11
 IDIUse=1 WtCom= 1.00D+00 WtEn= 0.00D+00
 Coeff-Com:  0.796D-04-0.245D-03-0.172D-02-0.348D-02-0.105D-01 0.274D-02
 Coeff-Com:  0.101D+00 0.278D+00 0.634D+00
 Coeff:      0.796D-04-0.245D-03-0.172D-02-0.348D-02-0.105D-01 0.274D-02
 Coeff:      0.101D+00 0.278D+00 0.634D+00
 Gap=     0.180 Goal=   None    Shift=    0.000
 RMSDP=2.82D-09 MaxDP=6.52D-07 DE= 4.09D-11 OVMax= 4.88D-07

 Error on total polarization charges =  0.02309
 SCF Done:  E(RPBE1PBE) =  -1979.86972122     A.U. after    9 cycles
            NFock=  9  Conv=0.28D-08     -V/T= 2.0045
 KE= 1.970973400624D+03 PE=-1.580459222266D+04 EE= 6.254349838056D+03
 Leave Link  502 at Mon Oct 18 09:21:18 2021, MaxMem=  7864320000 cpu:           41065.7 elap:            1300.3
 (Enter /apps/gaussian/g16-c01-avx/g16/l508.exe)
 QCSCF skips out because SCF is already converged.
 Leave Link  508 at Mon Oct 18 09:21:18 2021, MaxMem=  7864320000 cpu:               0.1 elap:               0.0
 (Enter /apps/gaussian/g16-c01-avx/g16/l601.exe)
 Copying SCF densities to generalized density rwf, IOpCl= 0 IROHF=0.

 **********************************************************************

            Population analysis using the SCF Density.

 **********************************************************************

 Orbital symmetries:
       Occupied  (A) (A) (A) (A) (A) (A) (A) (A) (A) (A) (A) (A)
                 (A) (A) (A) (A) (A) (A) (A) (A) (A) (A) (A) (A)
                 (A) (A) (A) (A) (A) (A) (A) (A) (A) (A) (A) (A)
                 (A) (A) (A) (A) (A) (A) (A) (A) (A) (A) (A) (A)
                 (A) (A) (A) (A) (A) (A) (A) (A) (A) (A) (A) (A)
                 (A) (A) (A) (A) (A) (A) (A) (A) (A) (A) (A) (A)
                 (A) (A) (A) (A) (A) (A) (A) (A) (A) (A) (A) (A)
                 (A) (A) (A) (A) (A) (A) (A) (A) (A) (A) (A) (A)
                 (A) (A) (A) (A) (A) (A) (A) (A) (A) (A) (A) (A)
                 (A) (A) (A) (A) (A) (A) (A) (A) (A) (A) (A) (A)
                 (A) (A) (A) (A) (A) (A) (A) (A) (A) (A) (A) (A)
                 (A) (A) (A) (A) (A) (A) (A) (A) (A) (A) (A) (A)
                 (A) (A) (A) (A) (A) (A) (A) (A) (A) (A) (A) (A)
                 (A) (A) (A) (A) (A) (A) (A) (A) (A) (A)
       Virtual   (A) (A) (A) (A) (A) (A) (A) (A) (A) (A) (A) (A)
                 (A) (A) (A) (A) (A) (A) (A) (A) (A) (A) (A) (A)
                 (A) (A) (A) (A) (A) (A) (A) (A) (A) (A) (A) (A)
                 (A) (A) (A) (A) (A) (A) (A) (A) (A) (A) (A) (A)
                 (A) (A) (A) (A) (A) (A) (A) (A) (A) (A) (A) (A)
                 (A) (A) (A) (A) (A) (A) (A) (A) (A) (A) (A) (A)
                 (A) (A) (A) (A) (A) (A) (A) (A) (A) (A) (A) (A)
                 (A) (A) (A) (A) (A) (A) (A) (A) (A) (A) (A) (A)
                 (A) (A) (A) (A) (A) (A) (A) (A) (A) (A) (A) (A)
                 (A) (A) (A) (A) (A) (A) (A) (A) (A) (A) (A) (A)
                 (A) (A) (A) (A) (A) (A) (A) (A) (A) (A) (A) (A)
                 (A) (A) (A) (A) (A) (A) (A) (A) (A) (A) (A) (A)
                 (A) (A) (A) (A) (A) (A) (A) (A) (A) (A) (A) (A)
                 (A) (A) (A) (A) (A) (A) (A) (A) (A) (A) (A) (A)
                 (A) (A) (A) (A) (A) (A) (A) (A) (A) (A) (A) (A)
                 (A) (A) (A) (A) (A) (A) (A) (A) (A) (A) (A) (A)
                 (A) (A) (A) (A) (A) (A) (A) (A) (A) (A) (A) (A)
                 (A) (A) (A) (A) (A) (A) (A) (A) (A) (A) (A) (A)
                 (A) (A) (A) (A) (A) (A) (A) (A) (A) (A) (A) (A)
                 (A) (A) (A) (A) (A) (A) (A) (A) (A) (A) (A) (A)
                 (A) (A) (A) (A) (A) (A) (A) (A) (A) (A) (A) (A)
                 (A) (A) (A) (A) (A) (A) (A) (A) (A) (A) (A) (A)
                 (A) (A) (A) (A) (A) (A) (A) (A) (A) (A) (A) (A)
                 (A) (A) (A) (A) (A) (A) (A) (A) (A) (A) (A) (A)
                 (A) (A) (A) (A) (A) (A) (A) (A) (A) (A) (A) (A)
                 (A) (A) (A) (A) (A) (A) (A) (A) (A) (A) (A) (A)
                 (A) (A) (A) (A) (A) (A) (A) (A) (A) (A) (A) (A)
                 (A) (A) (A) (A) (A) (A) (A) (A) (A) (A) (A) (A)
                 (A) (A) (A) (A) (A) (A) (A) (A) (A) (A) (A) (A)
                 (A) (A) (A) (A) (A) (A) (A) (A) (A) (A) (A) (A)
                 (A) (A) (A) (A) (A) (A) (A) (A) (A) (A) (A) (A)
                 (A) (A) (A) (A) (A) (A) (A) (A) (A) (A) (A) (A)
                 (A) (A) (A) (A) (A) (A) (A) (A) (A) (A) (A) (A)
                 (A) (A) (A) (A) (A) (A) (A) (A) (A) (A) (A) (A)
                 (A) (A) (A) (A) (A) (A) (A) (A) (A) (A) (A) (A)
                 (A) (A) (A) (A) (A) (A) (A) (A) (A) (A) (A) (A)
                 (A) (A) (A) (A) (A) (A) (A) (A) (A) (A) (A) (A)
                 (A) (A) (A) (A) (A) (A) (A) (A) (A) (A) (A) (A)
                 (A) (A) (A) (A) (A) (A) (A) (A) (A) (A) (A) (A)
                 (A) (A) (A) (A) (A) (A) (A) (A) (A) (A) (A) (A)
                 (A) (A) (A) (A) (A) (A) (A) (A) (A) (A) (A) (A)
                 (A) (A) (A) (A) (A) (A) (A) (A) (A) (A) (A) (A)
                 (A) (A) (A) (A) (A) (A) (A) (A) (A) (A) (A) (A)
                 (A) (A) (A) (A) (A) (A) (A) (A) (A) (A) (A) (A)
                 (A) (A) (A) (A) (A) (A) (A) (A) (A) (A) (A) (A)
                 (A) (A) (A) (A) (A) (A) (A) (A) (A) (A) (A) (A)
                 (A) (A) (A) (A) (A) (A) (A) (A) (A) (A) (A) (A)
                 (A) (A) (A) (A) (A) (A) (A) (A) (A) (A) (A) (A)
                 (A) (A) (A) (A) (A) (A) (A) (A) (A) (A) (A) (A)
                 (A) (A) (A) (A) (A) (A) (A) (A) (A) (A) (A) (A)
                 (A) (A) (A) (A) (A) (A) (A) (A) (A) (A) (A) (A)
                 (A) (A) (A) (A) (A) (A) (A) (A) (A) (A) (A) (A)
                 (A) (A) (A) (A) (A) (A) (A) (A) (A) (A) (A) (A)
                 (A) (A) (A) (A) (A) (A) (A) (A) (A) (A) (A) (A)
                 (A) (A) (A) (A) (A) (A) (A) (A) (A) (A) (A) (A)
                 (A) (A) (A) (A) (A) (A) (A) (A) (A) (A) (A) (A)
                 (A) (A) (A) (A) (A) (A) (A) (A) (A) (A) (A) (A)
                 (A) (A) (A) (A) (A) (A) (A) (A) (A) (A) (A) (A)
                 (A) (A) (A) (A) (A) (A) (A) (A) (A) (A) (A) (A)
                 (A) (A) (A) (A) (A) (A) (A) (A) (A) (A) (A) (A)
                 (A) (A) (A) (A) (A) (A) (A) (A) (A) (A) (A) (A)
                 (A) (A) (A) (A) (A) (A) (A) (A) (A) (A) (A) (A)
                 (A) (A) (A) (A) (A) (A) (A) (A) (A) (A) (A) (A)
                 (A) (A) (A) (A) (A) (A) (A) (A) (A) (A) (A) (A)
                 (A) (A) (A) (A) (A) (A) (A) (A) (A) (A) (A) (A)
                 (A) (A) (A) (A) (A) (A) (A) (A) (A) (A) (A) (A)
                 (A) (A) (A) (A) (A) (A) (A) (A) (A) (A) (A) (A)
                 (A) (A) (A) (A) (A) (A) (A) (A) (A) (A) (A) (A)
                 (A) (A) (A) (A) (A) (A) (A) (A) (A) (A) (A) (A)
                 (A) (A) (A) (A) (A) (A) (A) (A) (A) (A) (A) (A)
                 (A) (A) (A) (A) (A) (A) (A) (A) (A) (A) (A) (A)
                 (A) (A) (A) (A) (A) (A) (A) (A) (A) (A) (A) (A)
                 (A) (A) (A) (A) (A) (A) (A) (A) (A) (A) (A) (A)
                 (A) (A) (A) (A) (A) (A) (A) (A) (A) (A) (A) (A)
                 (A) (A) (A) (A) (A) (A) (A) (A) (A) (A) (A) (A)
                 (A) (A) (A) (A) (A) (A) (A) (A) (A) (A) (A) (A)
                 (A) (A) (A) (A) (A) (A) (A) (A) (A) (A) (A) (A)
                 (A) (A) (A) (A) (A) (A) (A) (A) (A) (A) (A) (A)
                 (A) (A) (A) (A) (A) (A) (A) (A) (A) (A) (A) (A)
                 (A) (A) (A) (A) (A) (A) (A) (A) (A) (A) (A) (A)
                 (A) (A) (A) (A) (A) (A) (A) (A) (A) (A) (A) (A)
                 (A) (A) (A) (A) (A) (A) (A) (A) (A) (A) (A) (A)
                 (A) (A) (A) (A) (A) (A) (A) (A) (A) (A) (A) (A)
                 (A) (A) (A) (A) (A) (A) (A) (A) (A) (A) (A) (A)
                 (A) (A) (A) (A) (A) (A) (A) (A) (A) (A) (A) (A)
                 (A) (A) (A) (A) (A) (A) (A) (A) (A) (A) (A) (A)
                 (A) (A) (A) (A) (A) (A) (A) (A) (A) (A) (A) (A)
                 (A) (A) (A) (A) (A) (A) (A) (A) (A) (A) (A) (A)
                 (A) (A) (A) (A) (A) (A) (A) (A) (A) (A) (A) (A)
                 (A) (A) (A) (A) (A) (A) (A) (A) (A) (A) (A) (A)
                 (A) (A) (A) (A) (A) (A) (A) (A) (A) (A) (A) (A)
                 (A) (A) (A) (A) (A) (A) (A) (A) (A) (A) (A) (A)
                 (A) (A) (A) (A) (A) (A) (A) (A) (A) (A) (A) (A)
                 (A) (A) (A) (A) (A) (A) (A) (A) (A) (A) (A) (A)
                 (A) (A) (A) (A) (A) (A) (A) (A) (A) (A) (A) (A)
                 (A) (A) (A) (A) (A) (A) (A) (A) (A) (A) (A) (A)
                 (A) (A) (A) (A) (A) (A) (A) (A) (A) (A) (A) (A)
                 (A) (A) (A) (A) (A) (A) (A) (A) (A) (A) (A) (A)
                 (A) (A) (A) (A) (A) (A) (A) (A) (A) (A) (A) (A)
                 (A) (A) (A) (A) (A) (A) (A) (A) (A) (A) (A) (A)
                 (A) (A) (A) (A) (A) (A) (A) (A) (A) (A) (A) (A)
                 (A) (A) (A) (A) (A) (A) (A) (A) (A) (A) (A) (A)
                 (A) (A) (A) (A) (A) (A) (A) (A) (A) (A) (A) (A)
                 (A) (A) (A) (A) (A) (A) (A) (A) (A) (A) (A) (A)
                 (A) (A) (A) (A) (A) (A) (A) (A) (A) (A) (A) (A)
                 (A) (A) (A) (A) (A) (A) (A) (A) (A) (A) (A) (A)
                 (A) (A) (A) (A) (A) (A) (A) (A) (A) (A) (A) (A)
                 (A) (A) (A) (A) (A) (A) (A) (A) (A) (A) (A) (A)
                 (A) (A) (A) (A) (A) (A) (A) (A) (A) (A) (A) (A)
                 (A) (A) (A) (A) (A) (A) (A) (A) (A) (A) (A) (A)
                 (A) (A) (A) (A) (A) (A) (A) (A) (A) (A) (A) (A)
                 (A) (A) (A) (A) (A) (A) (A) (A) (A) (A) (A) (A)
                 (A) (A) (A) (A) (A) (A) (A) (A) (A) (A) (A) (A)
                 (A) (A) (A) (A) (A) (A) (A) (A) (A) (A) (A) (A)
                 (A) (A) (A) (A) (A) (A) (A) (A) (A) (A) (A) (A)
                 (A) (A) (A) (A) (A) (A) (A) (A) (A) (A) (A) (A)
                 (A) (A) (A) (A) (A) (A) (A) (A) (A) (A) (A) (A)
                 (A) (A) (A) (A) (A) (A) (A) (A) (A) (A) (A) (A)
                 (A) (A) (A) (A) (A) (A) (A) (A) (A) (A) (A) (A)
                 (A) (A) (A) (A) (A) (A) (A) (A) (A) (A) (A) (A)
                 (A) (A) (A) (A) (A) (A) (A) (A) (A) (A) (A) (A)
                 (A) (A) (A) (A) (A) (A) (A) (A) (A) (A) (A) (A)
                 (A) (A) (A) (A) (A) (A) (A) (A) (A) (A) (A) (A)
                 (A) (A) (A) (A) (A) (A) (A) (A) (A) (A) (A) (A)
                 (A) (A) (A) (A) (A) (A) (A) (A) (A) (A) (A) (A)
                 (A) (A) (A) (A) (A) (A) (A) (A) (A) (A) (A) (A)
                 (A) (A) (A) (A) (A) (A) (A) (A) (A) (A) (A) (A)
                 (A) (A) (A) (A) (A) (A) (A)
 The electronic state is 1-A.
 Alpha  occ. eigenvalues --  -14.38308 -14.38235 -14.38179 -14.38130 -14.38011
 Alpha  occ. eigenvalues --  -14.37994 -14.37957 -14.37938 -14.37857 -14.35693
 Alpha  occ. eigenvalues --  -10.27106 -10.27055 -10.27002 -10.26958 -10.26864
 Alpha  occ. eigenvalues --  -10.26796 -10.26754 -10.26744 -10.26675 -10.25288
 Alpha  occ. eigenvalues --  -10.25257 -10.25153 -10.25049 -10.25035 -10.24880
 Alpha  occ. eigenvalues --  -10.24871 -10.24824 -10.24665 -10.24654 -10.24638
 Alpha  occ. eigenvalues --  -10.24617 -10.24612 -10.24572 -10.24555 -10.24522
 Alpha  occ. eigenvalues --  -10.24517 -10.24421 -10.24251 -10.24213 -10.24196
 Alpha  occ. eigenvalues --  -10.24188 -10.24160 -10.24155 -10.24125 -10.24049
 Alpha  occ. eigenvalues --  -10.24033 -10.23670  -0.97901  -0.97720  -0.97673
 Alpha  occ. eigenvalues --   -0.97624  -0.96550  -0.95548  -0.95443  -0.95166
 Alpha  occ. eigenvalues --   -0.95029  -0.90901  -0.90520  -0.89923  -0.89841
 Alpha  occ. eigenvalues --   -0.82628  -0.82377  -0.82315  -0.81353  -0.80695
 Alpha  occ. eigenvalues --   -0.80592  -0.78082  -0.76596  -0.76065  -0.76010
 Alpha  occ. eigenvalues --   -0.74733  -0.70202  -0.70002  -0.69970  -0.69863
 Alpha  occ. eigenvalues --   -0.67465  -0.66862  -0.66798  -0.66064  -0.63777
 Alpha  occ. eigenvalues --   -0.63453  -0.63074  -0.62382  -0.60769  -0.60498
 Alpha  occ. eigenvalues --   -0.57828  -0.56887  -0.56626  -0.56331  -0.55934
 Alpha  occ. eigenvalues --   -0.55492  -0.54373  -0.54125  -0.53390  -0.52989
 Alpha  occ. eigenvalues --   -0.52597  -0.52167  -0.51337  -0.50984  -0.50857
 Alpha  occ. eigenvalues --   -0.50629  -0.50002  -0.49832  -0.49432  -0.49162
 Alpha  occ. eigenvalues --   -0.48933  -0.48366  -0.47511  -0.46902  -0.46830
 Alpha  occ. eigenvalues --   -0.46714  -0.46537  -0.46434  -0.46399  -0.45728
 Alpha  occ. eigenvalues --   -0.45403  -0.45362  -0.45066  -0.44415  -0.44203
 Alpha  occ. eigenvalues --   -0.44029  -0.42447  -0.42342  -0.42058  -0.41714
 Alpha  occ. eigenvalues --   -0.41579  -0.40936  -0.40574  -0.40478  -0.39876
 Alpha  occ. eigenvalues --   -0.39797  -0.39749  -0.39114  -0.38798  -0.37527
 Alpha  occ. eigenvalues --   -0.37341  -0.37166  -0.36931  -0.36709  -0.36624
 Alpha  occ. eigenvalues --   -0.36474  -0.35791  -0.35729  -0.35460  -0.35255
 Alpha  occ. eigenvalues --   -0.35159  -0.34891  -0.31503  -0.31322  -0.30533
 Alpha  occ. eigenvalues --   -0.27977  -0.27845  -0.27776  -0.27648  -0.27385
 Alpha  occ. eigenvalues --   -0.27274  -0.27210  -0.27143  -0.27021  -0.26671
 Alpha  occ. eigenvalues --   -0.26328  -0.26176  -0.26071  -0.25912  -0.25429
 Alpha  occ. eigenvalues --   -0.24859
 Alpha virt. eigenvalues --   -0.06869  -0.06744  -0.06338  -0.06132  -0.05651
 Alpha virt. eigenvalues --   -0.05530  -0.02988  -0.02081  -0.01688   0.04356
 Alpha virt. eigenvalues --    0.04770   0.04838   0.05021   0.05389   0.05465
 Alpha virt. eigenvalues --    0.05625   0.05720   0.05789   0.06594   0.06788
 Alpha virt. eigenvalues --    0.06916   0.07416   0.07431   0.07617   0.07885
 Alpha virt. eigenvalues --    0.08442   0.08594   0.08699   0.08996   0.09396
 Alpha virt. eigenvalues --    0.09555   0.09881   0.10041   0.10487   0.10661
 Alpha virt. eigenvalues --    0.10723   0.10948   0.11076   0.11153   0.11401
 Alpha virt. eigenvalues --    0.11646   0.12097   0.12330   0.12497   0.12656
 Alpha virt. eigenvalues --    0.12784   0.12865   0.13060   0.13424   0.13655
 Alpha virt. eigenvalues --    0.13771   0.14172   0.14291   0.14401   0.14614
 Alpha virt. eigenvalues --    0.14857   0.15084   0.15120   0.15575   0.15730
 Alpha virt. eigenvalues --    0.16156   0.16181   0.16613   0.16735   0.17132
 Alpha virt. eigenvalues --    0.17394   0.17551   0.17762   0.18069   0.18268
 Alpha virt. eigenvalues --    0.18387   0.18849   0.18946   0.19223   0.19599
 Alpha virt. eigenvalues --    0.19913   0.20066   0.20326   0.20606   0.20850
 Alpha virt. eigenvalues --    0.20997   0.21206   0.21429   0.21475   0.21864
 Alpha virt. eigenvalues --    0.22095   0.22254   0.22649   0.22808   0.23178
 Alpha virt. eigenvalues --    0.23535   0.23717   0.23959   0.24197   0.24503
 Alpha virt. eigenvalues --    0.24612   0.24862   0.25321   0.25451   0.25628
 Alpha virt. eigenvalues --    0.25678   0.26006   0.26376   0.26418   0.26533
 Alpha virt. eigenvalues --    0.26975   0.27192   0.27553   0.27687   0.27963
 Alpha virt. eigenvalues --    0.28089   0.28349   0.28506   0.28572   0.28808
 Alpha virt. eigenvalues --    0.29004   0.29318   0.29347   0.29702   0.29793
 Alpha virt. eigenvalues --    0.30290   0.30484   0.30679   0.30980   0.31224
 Alpha virt. eigenvalues --    0.31333   0.31601   0.31868   0.32214   0.32373
 Alpha virt. eigenvalues --    0.32662   0.32881   0.33176   0.33344   0.33826
 Alpha virt. eigenvalues --    0.34030   0.34447   0.34720   0.34739   0.35124
 Alpha virt. eigenvalues --    0.35335   0.35549   0.35687   0.35847   0.36183
 Alpha virt. eigenvalues --    0.36369   0.36533   0.36626   0.36879   0.37151
 Alpha virt. eigenvalues --    0.37220   0.37329   0.37699   0.37828   0.38058
 Alpha virt. eigenvalues --    0.38295   0.38557   0.38593   0.38820   0.39130
 Alpha virt. eigenvalues --    0.39403   0.39564   0.39865   0.39979   0.40110
 Alpha virt. eigenvalues --    0.40467   0.40529   0.40811   0.41022   0.41236
 Alpha virt. eigenvalues --    0.41362   0.41458   0.41664   0.41941   0.42081
 Alpha virt. eigenvalues --    0.42157   0.42389   0.42486   0.42662   0.42785
 Alpha virt. eigenvalues --    0.43072   0.43259   0.43408   0.43563   0.43718
 Alpha virt. eigenvalues --    0.43802   0.43969   0.44120   0.44143   0.44323
 Alpha virt. eigenvalues --    0.44426   0.44757   0.44921   0.45090   0.45388
 Alpha virt. eigenvalues --    0.45479   0.45607   0.45836   0.46055   0.46292
 Alpha virt. eigenvalues --    0.46444   0.46828   0.47075   0.47112   0.47580
 Alpha virt. eigenvalues --    0.47877   0.48215   0.48307   0.48578   0.48741
 Alpha virt. eigenvalues --    0.48950   0.49106   0.49239   0.49479   0.49717
 Alpha virt. eigenvalues --    0.49834   0.50032   0.50302   0.50618   0.50833
 Alpha virt. eigenvalues --    0.50882   0.50970   0.51200   0.51358   0.51605
 Alpha virt. eigenvalues --    0.51844   0.52160   0.52216   0.52529   0.53084
 Alpha virt. eigenvalues --    0.53164   0.53397   0.53592   0.53936   0.54125
 Alpha virt. eigenvalues --    0.54324   0.54539   0.54807   0.55082   0.55251
 Alpha virt. eigenvalues --    0.55538   0.55752   0.56095   0.56247   0.56478
 Alpha virt. eigenvalues --    0.56923   0.57142   0.57266   0.57909   0.57987
 Alpha virt. eigenvalues --    0.58245   0.58625   0.58740   0.59115   0.59491
 Alpha virt. eigenvalues --    0.59781   0.60179   0.60370   0.60595   0.60745
 Alpha virt. eigenvalues --    0.60919   0.61186   0.61439   0.61710   0.62090
 Alpha virt. eigenvalues --    0.62497   0.62757   0.62789   0.63071   0.63398
 Alpha virt. eigenvalues --    0.63658   0.63851   0.64160   0.64350   0.64763
 Alpha virt. eigenvalues --    0.65214   0.65724   0.65904   0.66062   0.66263
 Alpha virt. eigenvalues --    0.66508   0.66549   0.66834   0.67003   0.67210
 Alpha virt. eigenvalues --    0.67619   0.67987   0.68193   0.68448   0.68566
 Alpha virt. eigenvalues --    0.68637   0.68949   0.69127   0.69385   0.69714
 Alpha virt. eigenvalues --    0.69922   0.70356   0.70834   0.70933   0.71126
 Alpha virt. eigenvalues --    0.71242   0.71490   0.71736   0.71851   0.72240
 Alpha virt. eigenvalues --    0.72395   0.72761   0.72880   0.73242   0.73387
 Alpha virt. eigenvalues --    0.73619   0.74232   0.74345   0.74627   0.74781
 Alpha virt. eigenvalues --    0.75363   0.75727   0.75991   0.76170   0.76589
 Alpha virt. eigenvalues --    0.76767   0.77334   0.77490   0.77743   0.78029
 Alpha virt. eigenvalues --    0.78290   0.78853   0.79219   0.79703   0.79737
 Alpha virt. eigenvalues --    0.80296   0.80638   0.80862   0.81153   0.81529
 Alpha virt. eigenvalues --    0.81865   0.82011   0.82205   0.82381   0.82757
 Alpha virt. eigenvalues --    0.82915   0.83257   0.83398   0.84013   0.84312
 Alpha virt. eigenvalues --    0.84514   0.84585   0.84730   0.85001   0.85406
 Alpha virt. eigenvalues --    0.85638   0.86032   0.86184   0.86620   0.86763
 Alpha virt. eigenvalues --    0.86885   0.87191   0.87408   0.87823   0.88028
 Alpha virt. eigenvalues --    0.88494   0.88569   0.88810   0.89076   0.89405
 Alpha virt. eigenvalues --    0.90114   0.90344   0.90812   0.91091   0.91234
 Alpha virt. eigenvalues --    0.91473   0.92187   0.92315   0.92939   0.93173
 Alpha virt. eigenvalues --    0.93317   0.93789   0.94281   0.94636   0.94809
 Alpha virt. eigenvalues --    0.94992   0.95475   0.95892   0.96286   0.96389
 Alpha virt. eigenvalues --    0.96867   0.97132   0.97435   0.98130   0.98622
 Alpha virt. eigenvalues --    0.99098   0.99436   0.99548   1.00172   1.00488
 Alpha virt. eigenvalues --    1.00866   1.01151   1.01811   1.02015   1.02706
 Alpha virt. eigenvalues --    1.03032   1.03414   1.03772   1.04274   1.04488
 Alpha virt. eigenvalues --    1.04744   1.05102   1.05317   1.05744   1.06194
 Alpha virt. eigenvalues --    1.06702   1.06755   1.07007   1.07903   1.08389
 Alpha virt. eigenvalues --    1.08776   1.09007   1.09379   1.09646   1.09935
 Alpha virt. eigenvalues --    1.10245   1.10884   1.11146   1.11992   1.12671
 Alpha virt. eigenvalues --    1.12805   1.13213   1.13460   1.13745   1.14544
 Alpha virt. eigenvalues --    1.14754   1.15490   1.15982   1.16382   1.17275
 Alpha virt. eigenvalues --    1.17388   1.17513   1.17778   1.18245   1.18904
 Alpha virt. eigenvalues --    1.19067   1.19251   1.19929   1.20017   1.20429
 Alpha virt. eigenvalues --    1.20767   1.21084   1.21519   1.21880   1.22114
 Alpha virt. eigenvalues --    1.22151   1.22434   1.22822   1.23071   1.23523
 Alpha virt. eigenvalues --    1.23862   1.24258   1.24850   1.25065   1.25435
 Alpha virt. eigenvalues --    1.25869   1.26386   1.26567   1.26586   1.27062
 Alpha virt. eigenvalues --    1.27186   1.27594   1.28010   1.28296   1.28584
 Alpha virt. eigenvalues --    1.28877   1.29199   1.29283   1.29682   1.30237
 Alpha virt. eigenvalues --    1.30666   1.30899   1.31336   1.31653   1.32181
 Alpha virt. eigenvalues --    1.32976   1.33091   1.33652   1.34046   1.34278
 Alpha virt. eigenvalues --    1.35135   1.35257   1.35642   1.35884   1.36216
 Alpha virt. eigenvalues --    1.36639   1.37278   1.37675   1.38100   1.38315
 Alpha virt. eigenvalues --    1.38483   1.38858   1.39560   1.40074   1.40485
 Alpha virt. eigenvalues --    1.40747   1.41494   1.41675   1.42186   1.42475
 Alpha virt. eigenvalues --    1.42484   1.42807   1.43283   1.43473   1.43746
 Alpha virt. eigenvalues --    1.44238   1.44532   1.44650   1.45261   1.45747
 Alpha virt. eigenvalues --    1.45972   1.46184   1.46454   1.46928   1.47225
 Alpha virt. eigenvalues --    1.47621   1.48103   1.48312   1.48555   1.48736
 Alpha virt. eigenvalues --    1.49308   1.49608   1.49687   1.50378   1.50687
 Alpha virt. eigenvalues --    1.50779   1.51364   1.51854   1.51915   1.52534
 Alpha virt. eigenvalues --    1.53037   1.53382   1.53451   1.53669   1.53867
 Alpha virt. eigenvalues --    1.53946   1.54225   1.54363   1.54599   1.55176
 Alpha virt. eigenvalues --    1.55216   1.55974   1.56277   1.56328   1.56963
 Alpha virt. eigenvalues --    1.57152   1.57646   1.57897   1.58088   1.58339
 Alpha virt. eigenvalues --    1.58487   1.58851   1.58978   1.59392   1.59742
 Alpha virt. eigenvalues --    1.60109   1.60377   1.60657   1.60854   1.61190
 Alpha virt. eigenvalues --    1.61229   1.61417   1.61736   1.62432   1.63036
 Alpha virt. eigenvalues --    1.63537   1.64233   1.64568   1.64590   1.64907
 Alpha virt. eigenvalues --    1.65454   1.65526   1.65944   1.66353   1.66790
 Alpha virt. eigenvalues --    1.67031   1.67204   1.67582   1.67800   1.68223
 Alpha virt. eigenvalues --    1.68379   1.68681   1.69054   1.69115   1.69380
 Alpha virt. eigenvalues --    1.70003   1.70097   1.70458   1.70763   1.71038
 Alpha virt. eigenvalues --    1.71324   1.71411   1.71647   1.72088   1.72217
 Alpha virt. eigenvalues --    1.72586   1.72806   1.73098   1.73406   1.73656
 Alpha virt. eigenvalues --    1.73975   1.74505   1.74632   1.74977   1.75401
 Alpha virt. eigenvalues --    1.75681   1.75948   1.76042   1.76736   1.77037
 Alpha virt. eigenvalues --    1.77211   1.77675   1.77737   1.78545   1.78720
 Alpha virt. eigenvalues --    1.79276   1.79372   1.79691   1.80302   1.80641
 Alpha virt. eigenvalues --    1.81137   1.81430   1.82161   1.82457   1.83094
 Alpha virt. eigenvalues --    1.83278   1.83453   1.83807   1.84553   1.84941
 Alpha virt. eigenvalues --    1.85329   1.85597   1.86210   1.86382   1.87002
 Alpha virt. eigenvalues --    1.87212   1.87386   1.87935   1.88359   1.88546
 Alpha virt. eigenvalues --    1.88997   1.89627   1.89911   1.90390   1.90495
 Alpha virt. eigenvalues --    1.91234   1.91569   1.91799   1.91904   1.92897
 Alpha virt. eigenvalues --    1.93230   1.93826   1.93977   1.94023   1.94196
 Alpha virt. eigenvalues --    1.95063   1.96123   1.96453   1.97468   1.97497
 Alpha virt. eigenvalues --    1.98083   1.98240   1.98512   1.98775   1.99032
 Alpha virt. eigenvalues --    1.99102   1.99578   1.99899   2.00109   2.00345
 Alpha virt. eigenvalues --    2.00685   2.00915   2.00975   2.01703   2.01771
 Alpha virt. eigenvalues --    2.02243   2.02763   2.02950   2.03611   2.03991
 Alpha virt. eigenvalues --    2.04129   2.05248   2.05452   2.05701   2.06200
 Alpha virt. eigenvalues --    2.07187   2.07387   2.07750   2.08277   2.08966
 Alpha virt. eigenvalues --    2.09499   2.09981   2.10652   2.11121   2.11654
 Alpha virt. eigenvalues --    2.11709   2.11837   2.12779   2.13080   2.13534
 Alpha virt. eigenvalues --    2.13861   2.15062   2.15471   2.15878   2.16660
 Alpha virt. eigenvalues --    2.16862   2.17083   2.17483   2.17685   2.18069
 Alpha virt. eigenvalues --    2.18387   2.18676   2.19420   2.19860   2.20296
 Alpha virt. eigenvalues --    2.20631   2.21022   2.21642   2.22140   2.22884
 Alpha virt. eigenvalues --    2.23418   2.23697   2.24437   2.25188   2.25747
 Alpha virt. eigenvalues --    2.26392   2.26588   2.27218   2.27759   2.28405
 Alpha virt. eigenvalues --    2.28707   2.29377   2.29790   2.29973   2.30721
 Alpha virt. eigenvalues --    2.31198   2.31238   2.31428   2.31633   2.32007
 Alpha virt. eigenvalues --    2.32612   2.32798   2.33006   2.33419   2.34110
 Alpha virt. eigenvalues --    2.34804   2.35195   2.35727   2.36224   2.36720
 Alpha virt. eigenvalues --    2.36870   2.37402   2.38085   2.38357   2.38776
 Alpha virt. eigenvalues --    2.38974   2.39514   2.39847   2.40413   2.40633
 Alpha virt. eigenvalues --    2.40823   2.41041   2.41355   2.41847   2.42531
 Alpha virt. eigenvalues --    2.42881   2.43961   2.44408   2.44631   2.44862
 Alpha virt. eigenvalues --    2.45122   2.45356   2.46189   2.46421   2.46563
 Alpha virt. eigenvalues --    2.46903   2.47195   2.47731   2.48313   2.48676
 Alpha virt. eigenvalues --    2.49168   2.49510   2.50144   2.50438   2.51037
 Alpha virt. eigenvalues --    2.51427   2.51727   2.52188   2.52646   2.52866
 Alpha virt. eigenvalues --    2.53378   2.53777   2.54225   2.54457   2.54658
 Alpha virt. eigenvalues --    2.55097   2.55623   2.55944   2.56082   2.56407
 Alpha virt. eigenvalues --    2.57085   2.57158   2.57722   2.57983   2.58326
 Alpha virt. eigenvalues --    2.58451   2.58720   2.58908   2.59206   2.60145
 Alpha virt. eigenvalues --    2.60644   2.61004   2.61355   2.61434   2.61762
 Alpha virt. eigenvalues --    2.61973   2.62149   2.62512   2.63080   2.63662
 Alpha virt. eigenvalues --    2.64034   2.64102   2.64225   2.64657   2.64852
 Alpha virt. eigenvalues --    2.65082   2.65138   2.65468   2.65895   2.66203
 Alpha virt. eigenvalues --    2.66460   2.66597   2.67186   2.67557   2.68094
 Alpha virt. eigenvalues --    2.68168   2.68554   2.68708   2.68851   2.69367
 Alpha virt. eigenvalues --    2.69529   2.69771   2.70141   2.70472   2.70753
 Alpha virt. eigenvalues --    2.70930   2.71309   2.71383   2.71394   2.71802
 Alpha virt. eigenvalues --    2.72359   2.72555   2.73028   2.73436   2.73737
 Alpha virt. eigenvalues --    2.73875   2.74197   2.74281   2.74663   2.74976
 Alpha virt. eigenvalues --    2.75304   2.75632   2.75815   2.76202   2.76401
 Alpha virt. eigenvalues --    2.76595   2.76804   2.77077   2.77434   2.77853
 Alpha virt. eigenvalues --    2.78271   2.78497   2.79002   2.79301   2.79452
 Alpha virt. eigenvalues --    2.80099   2.80336   2.80834   2.81127   2.81748
 Alpha virt. eigenvalues --    2.81869   2.81944   2.82880   2.83229   2.83329
 Alpha virt. eigenvalues --    2.83710   2.84111   2.84280   2.84777   2.84884
 Alpha virt. eigenvalues --    2.85145   2.85357   2.85863   2.86142   2.86409
 Alpha virt. eigenvalues --    2.86468   2.86731   2.87062   2.87513   2.87789
 Alpha virt. eigenvalues --    2.88051   2.88199   2.88917   2.89203   2.89685
 Alpha virt. eigenvalues --    2.90549   2.90940   2.91503   2.91784   2.92203
 Alpha virt. eigenvalues --    2.92536   2.93371   2.93531   2.93706   2.94175
 Alpha virt. eigenvalues --    2.94431   2.94637   2.95352   2.95898   2.96379
 Alpha virt. eigenvalues --    2.96959   2.97297   2.97578   2.97873   2.98268
 Alpha virt. eigenvalues --    2.98654   2.99086   2.99274   2.99661   3.00219
 Alpha virt. eigenvalues --    3.00612   3.00979   3.01130   3.01585   3.02074
 Alpha virt. eigenvalues --    3.02283   3.02622   3.03824   3.03978   3.04386
 Alpha virt. eigenvalues --    3.04719   3.05145   3.05493   3.06005   3.06606
 Alpha virt. eigenvalues --    3.07022   3.07557   3.07825   3.08260   3.08425
 Alpha virt. eigenvalues --    3.08914   3.09058   3.09297   3.09681   3.09856
 Alpha virt. eigenvalues --    3.10002   3.10601   3.10686   3.11033   3.11387
 Alpha virt. eigenvalues --    3.11668   3.11964   3.12298   3.12329   3.12748
 Alpha virt. eigenvalues --    3.13108   3.13365   3.13550   3.13664   3.13930
 Alpha virt. eigenvalues --    3.14131   3.14229   3.14633   3.15037   3.15210
 Alpha virt. eigenvalues --    3.15567   3.15741   3.16121   3.16309   3.16928
 Alpha virt. eigenvalues --    3.17149   3.17329   3.17601   3.17653   3.18059
 Alpha virt. eigenvalues --    3.18250   3.18681   3.18836   3.19143   3.19446
 Alpha virt. eigenvalues --    3.19755   3.19918   3.20242   3.20609   3.20857
 Alpha virt. eigenvalues --    3.21308   3.21577   3.22054   3.22492   3.22572
 Alpha virt. eigenvalues --    3.22746   3.23110   3.23266   3.23707   3.24061
 Alpha virt. eigenvalues --    3.24278   3.24572   3.24871   3.24998   3.25138
 Alpha virt. eigenvalues --    3.25365   3.25771   3.25855   3.26094   3.26402
 Alpha virt. eigenvalues --    3.26718   3.26828   3.27126   3.27445   3.27997
 Alpha virt. eigenvalues --    3.28091   3.28477   3.28678   3.28809   3.29005
 Alpha virt. eigenvalues --    3.29166   3.29533   3.29905   3.30220   3.30301
 Alpha virt. eigenvalues --    3.30456   3.30875   3.31402   3.31594   3.31761
 Alpha virt. eigenvalues --    3.31846   3.32221   3.32238   3.32981   3.33084
 Alpha virt. eigenvalues --    3.33237   3.33772   3.33874   3.34178   3.34459
 Alpha virt. eigenvalues --    3.34705   3.35089   3.35323   3.35704   3.35744
 Alpha virt. eigenvalues --    3.36121   3.36813   3.36856   3.37149   3.37187
 Alpha virt. eigenvalues --    3.37616   3.37693   3.38340   3.38824   3.39032
 Alpha virt. eigenvalues --    3.39546   3.39738   3.40231   3.40391   3.40814
 Alpha virt. eigenvalues --    3.40879   3.41228   3.41395   3.41816   3.42079
 Alpha virt. eigenvalues --    3.42505   3.42829   3.43115   3.43405   3.43579
 Alpha virt. eigenvalues --    3.43915   3.44290   3.44489   3.44731   3.44902
 Alpha virt. eigenvalues --    3.45211   3.45768   3.45884   3.46268   3.46639
 Alpha virt. eigenvalues --    3.47012   3.47073   3.47448   3.47631   3.48156
 Alpha virt. eigenvalues --    3.48510   3.48561   3.48716   3.49166   3.49874
 Alpha virt. eigenvalues --    3.50577   3.51174   3.51607   3.52203   3.52975
 Alpha virt. eigenvalues --    3.53316   3.53745   3.53953   3.54255   3.54617
 Alpha virt. eigenvalues --    3.54912   3.55362   3.55632   3.56000   3.56348
 Alpha virt. eigenvalues --    3.57082   3.57450   3.58208   3.58643   3.59159
 Alpha virt. eigenvalues --    3.59419   3.60396   3.60659   3.60958   3.61038
 Alpha virt. eigenvalues --    3.61298   3.61428   3.61647   3.62211   3.62566
 Alpha virt. eigenvalues --    3.63335   3.63645   3.63708   3.64355   3.64752
 Alpha virt. eigenvalues --    3.64860   3.65992   3.66159   3.66439   3.69225
 Alpha virt. eigenvalues --    3.69573   3.69906   3.70744   3.71127   3.71541
 Alpha virt. eigenvalues --    3.71940   3.72294   3.73073   3.73345   3.73829
 Alpha virt. eigenvalues --    3.74275   3.74303   3.74612   3.74785   3.75444
 Alpha virt. eigenvalues --    3.75706   3.76190   3.77048   3.77401   3.77571
 Alpha virt. eigenvalues --    3.77810   3.77908   3.78103   3.78308   3.78522
 Alpha virt. eigenvalues --    3.78724   3.78938   3.79469   3.80256   3.80320
 Alpha virt. eigenvalues --    3.80479   3.80605   3.81289   3.81887   3.82196
 Alpha virt. eigenvalues --    3.82449   3.83024   3.83680   3.84418   3.84581
 Alpha virt. eigenvalues --    3.85046   3.85467   3.86018   3.86855   3.86986
 Alpha virt. eigenvalues --    3.87154   3.87417   3.87575   3.88450   3.88730
 Alpha virt. eigenvalues --    3.89357   3.90072   3.90850   3.91713   3.92133
 Alpha virt. eigenvalues --    3.92436   3.92507   3.92854   3.93380   3.94215
 Alpha virt. eigenvalues --    3.95039   3.95479   3.96281   3.97238   3.97708
 Alpha virt. eigenvalues --    3.98209   3.98373   3.98671   3.99453   3.99791
 Alpha virt. eigenvalues --    4.00675   4.01088   4.01635   4.02019   4.02682
 Alpha virt. eigenvalues --    4.03143   4.03730   4.04458   4.04567   4.04784
 Alpha virt. eigenvalues --    4.05397   4.05773   4.06273   4.06831   4.07751
 Alpha virt. eigenvalues --    4.07989   4.08485   4.09060   4.10056   4.10488
 Alpha virt. eigenvalues --    4.10909   4.11136   4.11328   4.11582   4.12144
 Alpha virt. eigenvalues --    4.12764   4.13085   4.13973   4.14331   4.14413
 Alpha virt. eigenvalues --    4.15265   4.16137   4.16457   4.16733   4.17377
 Alpha virt. eigenvalues --    4.17545   4.18432   4.18824   4.19311   4.19923
 Alpha virt. eigenvalues --    4.20110   4.21093   4.22548   4.22678   4.22766
 Alpha virt. eigenvalues --    4.23353   4.23664   4.23747   4.24524   4.24755
 Alpha virt. eigenvalues --    4.25056   4.25406   4.26190   4.26387   4.27200
 Alpha virt. eigenvalues --    4.27593   4.28134   4.28524   4.29038   4.29126
 Alpha virt. eigenvalues --    4.29678   4.30567   4.30942   4.31826   4.32270
 Alpha virt. eigenvalues --    4.32626   4.33056   4.33650   4.34813   4.35590
 Alpha virt. eigenvalues --    4.35722   4.36122   4.36582   4.37261   4.37673
 Alpha virt. eigenvalues --    4.38364   4.38796   4.39361   4.39766   4.40569
 Alpha virt. eigenvalues --    4.40894   4.41874   4.42772   4.43841   4.45469
 Alpha virt. eigenvalues --    4.46101   4.47453   4.50252   4.51051   4.51444
 Alpha virt. eigenvalues --    4.52155   4.52240   4.52674   4.53724   4.55017
 Alpha virt. eigenvalues --    4.55442   4.55681   4.56044   4.57231   4.58098
 Alpha virt. eigenvalues --    4.58917   4.59214   4.59561   4.60591   4.61968
 Alpha virt. eigenvalues --    4.62175   4.62628   4.63011   4.64064   4.64325
 Alpha virt. eigenvalues --    4.65232   4.65797   4.66063   4.66694   4.67695
 Alpha virt. eigenvalues --    4.68397   4.68941   4.69279   4.69449   4.69824
 Alpha virt. eigenvalues --    4.70227   4.73966   4.74731   4.75484   4.76050
 Alpha virt. eigenvalues --    4.76794   4.77862   4.77925   4.79873   4.80810
 Alpha virt. eigenvalues --    4.81302   4.83112   4.83827   4.84178   4.85092
 Alpha virt. eigenvalues --    4.85297   4.86148   4.86564   4.86901   4.87445
 Alpha virt. eigenvalues --    4.87466   4.88095   4.89110   4.90234   4.91341
 Alpha virt. eigenvalues --    4.91590   4.92224   4.92518   4.93934   4.94135
 Alpha virt. eigenvalues --    4.95063   4.96205   4.96505   4.96790   4.97752
 Alpha virt. eigenvalues --    4.98495   4.99029   4.99460   5.01954   5.02662
 Alpha virt. eigenvalues --    5.03192   5.03491   5.04404   5.04556   5.05206
 Alpha virt. eigenvalues --    5.05335   5.06055   5.06215   5.06551   5.07931
 Alpha virt. eigenvalues --    5.08596   5.09610   5.10785   5.11837   5.11981
 Alpha virt. eigenvalues --    5.13159   5.14338   5.14552   5.15279   5.16609
 Alpha virt. eigenvalues --    5.17365   5.17991   5.19738   5.20192   5.20948
 Alpha virt. eigenvalues --    5.20959   5.21524   5.21969   5.22144   5.22718
 Alpha virt. eigenvalues --    5.22814   5.23281   5.23799   5.25325   5.26681
 Alpha virt. eigenvalues --    5.27101   5.27714   5.28039   5.29746   5.30661
 Alpha virt. eigenvalues --    5.30748   5.31743   5.32216   5.34969   5.35348
 Alpha virt. eigenvalues --    5.36290   5.36514   5.36790   5.37119   5.37503
 Alpha virt. eigenvalues --    5.38427   5.38987   5.39972   5.40413   5.40525
 Alpha virt. eigenvalues --    5.40969   5.41124   5.41597   5.42361   5.42700
 Alpha virt. eigenvalues --    5.43797   5.44324   5.45311   5.45889   5.46063
 Alpha virt. eigenvalues --    5.46570   5.48450   5.48991   5.49565   5.52411
 Alpha virt. eigenvalues --    5.53505   5.53800   5.56068   5.56653   5.58502
 Alpha virt. eigenvalues --    5.61023   5.61296   5.62158   5.63591   5.64842
 Alpha virt. eigenvalues --    5.65936   5.67734   5.68064   5.68564   5.69763
 Alpha virt. eigenvalues --    5.69989   5.70862   5.71840   5.73256   5.73703
 Alpha virt. eigenvalues --    5.73799   5.74648   5.76628   5.77261   5.79100
 Alpha virt. eigenvalues --    5.83079   5.88276   5.88964   5.89290   5.89554
 Alpha virt. eigenvalues --    5.90061   5.91058   5.92236   5.93188   5.93579
 Alpha virt. eigenvalues --    5.95547   5.96674   5.97157   5.97858   5.98437
 Alpha virt. eigenvalues --    6.01953   6.09783   6.10263   6.11862  22.42023
 Alpha virt. eigenvalues --   22.44663  22.46325  22.53908  22.61822  22.62010
 Alpha virt. eigenvalues --   22.62465  22.64123  22.64392  22.66275  22.66538
 Alpha virt. eigenvalues --   22.66703  22.68780  22.85519  22.87494  22.87916
 Alpha virt. eigenvalues --   22.88237  22.89996  22.90580  22.98931  23.01220
 Alpha virt. eigenvalues --   23.02341  23.11313  23.12421  23.13014  23.13582
 Alpha virt. eigenvalues --   23.13965  23.14339  23.14850  23.15281  23.15920
 Alpha virt. eigenvalues --   23.16673  23.18326  23.20374  23.50820  23.50969
 Alpha virt. eigenvalues --   23.53202  32.04165  32.56883  32.60641  32.63962
 Alpha virt. eigenvalues --   32.66577  32.68937  32.71176  32.73208  32.74555
 Alpha virt. eigenvalues --   32.75056
          Condensed to atoms (all electrons):
 Mulliken charges:
               1
     1  C    0.371654
     2  C   -0.174908
     3  C   -0.380040
     4  C    0.395540
     5  H    0.122809
     6  C   -0.361967
     7  C    0.323925
     8  H    0.127796
     9  C   -0.303744
    10  C   -0.152983
    11  H    0.137655
    12  C   -0.181167
    13  H    0.091723
    14  H    0.099646
    15  H    0.099037
    16  C    0.391316
    17  C   -0.174966
    18  C   -0.378758
    19  C    0.373311
    20  H    0.121600
    21  C   -0.333144
    22  C    0.325970
    23  H    0.131079
    24  C   -0.359237
    25  C   -0.147405
    26  H    0.124641
    27  C   -0.173035
    28  H    0.086279
    29  H    0.088567
    30  H    0.087648
    31  C    0.316014
    32  C   -0.151268
    33  C   -0.292771
    34  C    0.378020
    35  H    0.135675
    36  C   -0.377099
    37  C    0.370912
    38  H    0.124455
    39  C   -0.368964
    40  C   -0.164765
    41  H    0.130105
    42  C   -0.180879
    43  H    0.093558
    44  H    0.099908
    45  C   -0.098049
    46  C   -0.069210
    47  N   -0.201255
    48  N   -0.208704
    49  C   -0.086019
    50  C   -0.117174
    51  N   -0.550503
    52  N   -0.188332
    53  C   -0.090760
    54  C   -0.132373
    55  N   -0.188679
    56  N   -0.186243
    57  C   -0.094859
    58  C   -0.071503
    59  N   -0.203420
    60  N   -0.203584
    61  C   -0.075217
    62  C   -0.078081
    63  N   -0.189753
    64  N   -0.198329
    65  H    0.236395
    66  H    0.228310
    67  H    0.088490
    68  H    0.111682
    69  H    0.116395
    70  H    0.122359
    71  H    0.080211
    72  H    0.086537
    73  H    0.129334
    74  H    0.092494
    75  H    0.124899
    76  H    0.127837
    77  H    0.086639
    78  H    0.083536
    79  H    0.128787
    80  H    0.115171
    81  H    0.115552
    82  H    0.092160
    83  H    0.125578
    84  H    0.128524
    85  H    0.087219
    86  H    0.130341
    87  H    0.101856
 Sum of Mulliken charges =   0.00000
 Mulliken charges with hydrogens summed into heavy atoms:
               1
     1  C    0.371654
     2  C   -0.075262
     3  C   -0.257231
     4  C    0.395540
     6  C   -0.234171
     7  C    0.323925
     9  C   -0.166088
    10  C   -0.061260
    12  C   -0.082130
    16  C    0.391316
    17  C   -0.086399
    18  C   -0.257158
    19  C    0.373311
    21  C   -0.202065
    22  C    0.325970
    24  C   -0.234596
    25  C   -0.061126
    27  C   -0.085387
    31  C    0.316014
    32  C   -0.062778
    33  C   -0.157096
    34  C    0.378020
    36  C   -0.252644
    37  C    0.370912
    39  C   -0.238859
    40  C   -0.071207
    42  C   -0.080971
    45  C    0.117822
    46  C    0.148184
    47  N   -0.201255
    48  N   -0.208704
    49  C    0.142058
    50  C    0.085396
    51  N   -0.085798
    52  N   -0.188332
    53  C    0.139962
    54  C    0.099824
    55  N   -0.188679
    56  N   -0.186243
    57  C    0.120885
    58  C    0.146234
    59  N   -0.203420
    60  N   -0.203584
    61  C    0.139258
    62  C    0.134242
    63  N   -0.189753
    64  N   -0.198329
 Electronic spatial extent (au):  <R**2>=          31064.4096
 Charge=              0.0000 electrons
 Dipole moment (field-independent basis, Debye):
    X=             -2.0967    Y=              2.3067    Z=             -2.5263  Tot=              4.0124
 Quadrupole moment (field-independent basis, Debye-Ang):
   XX=           -266.5638   YY=           -267.7818   ZZ=           -257.9947
   XY=              6.3264   XZ=              4.9340   YZ=              1.2648
 Traceless Quadrupole moment (field-independent basis, Debye-Ang):
   XX=             -2.4504   YY=             -3.6684   ZZ=              6.1187
   XY=              6.3264   XZ=              4.9340   YZ=              1.2648
 Octapole moment (field-independent basis, Debye-Ang**2):
  XXX=             31.7138  YYY=             97.9334  ZZZ=              9.3331  XYY=             23.4289
  XXY=             16.7392  XXZ=            -25.9655  XZZ=            -68.3558  YZZ=             -3.2951
  YYZ=            -66.2395  XYZ=             76.4137
 Hexadecapole moment (field-independent basis, Debye-Ang**3):
 XXXX=         -20371.2953 YYYY=         -11537.8120 ZZZZ=          -7492.4253 XXXY=            504.9291
 XXXZ=            473.2328 YYYX=           -335.6003 YYYZ=           -146.7654 ZZZX=           -101.0559
 ZZZY=             50.4216 XXYY=          -5851.2655 XXZZ=          -5106.2007 YYZZ=          -3356.6649
 XXYZ=            353.8627 YYXZ=            -94.0909 ZZXY=            201.2084
 N-N= 5.599399262767D+03 E-N=-1.580459224044D+04  KE= 1.970973400624D+03
 No NMR shielding tensors so no spin-rotation constants.
 Leave Link  601 at Mon Oct 18 09:21:20 2021, MaxMem=  7864320000 cpu:              64.1 elap:               2.3
 (Enter /apps/gaussian/g16-c01-avx/g16/l9999.exe)
 Unable to Open any file for archive entry.
 1\1\GINC-CX3-5-0\SP\RPBE1PBE\def2TZVP\C37H40N10\ROOT\18-Oct-2021\0\\#P
  PBE1PBE/Def2TZVP SP SCF=(YQC,MaxCycle=900) int=(Grid=Superfinegrid) E
 mpiricalDispersion=GD3 SCRF=(PCM,Solvent=Dichloromethane)\\_3_alde1_5_
 ami4_2_opt_dcm\\0,1\C,0,-4.594,-0.9946,-1.2207\C,0,-5.3871,0.1015,-0.6
 852\C,0,-4.3326,-2.1402,-0.4699\C,0,-3.4922,-3.1306,-0.9661\H,0,-4.791
 ,-2.2328,0.5032\C,0,-2.8709,-2.9498,-2.203\C,0,-3.1376,-1.8223,-2.9692
 \H,0,-2.1913,-3.714,-2.5477\C,0,-4.0249,-0.8634,-2.4823\C,0,-2.4459,-1
 .6022,-4.2329\H,0,-4.2295,-0.0002,-3.0956\C,0,-3.2415,-4.3406,-0.1948\
 H,0,-1.5431,-2.2117,-4.392\H,0,-5.6773,0.8722,-1.4142\H,0,-3.8342,-4.4
 469,0.7276\C,0,3.3644,-3.3035,-0.2926\C,0,4.3739,-3.9566,-1.115\C,0,3.
 5359,-1.9873,0.1325\C,0,2.5686,-1.3627,0.9139\H,0,4.4287,-1.448,-0.138
 1\C,0,1.4167,-2.0648,1.263\C,0,1.2389,-3.3849,0.8598\H,0,0.658,-1.5828
 ,1.865\C,0,2.2178,-3.9985,0.0808\C,0,0.0476,-4.1124,1.2685\H,0,2.0607,
 -5.0226,-0.2214\C,0,2.756,-0.001,1.3927\H,0,-0.7137,-3.5162,1.7991\H,0
 ,4.1605,-4.9994,-1.3983\H,0,1.9411,0.4021,2.0145\C,0,-2.009,2.3786,-0.
 409\C,0,-2.9928,2.3684,0.6658\C,0,-2.4283,2.2422,-1.7317\C,0,-1.5051,2
 .1044,-2.7613\H,0,-3.4884,2.2142,-1.9282\C,0,-0.1432,2.1519,-2.467\C,0
 ,0.2902,2.3558,-1.1614\H,0,0.5622,2.0384,-3.276\C,0,-0.6483,2.447,-0.1
 327\C,0,1.7149,2.4697,-0.8798\H,0,-0.2912,2.578,0.8775\C,0,-1.9804,1.8
 486,-4.1123\H,0,2.3893,2.2017,-1.7071\H,0,-3.0625,1.9777,-4.2623\C,0,-
 5.1805,2.3643,1.4904\C,0,-6.2883,1.4115,0.9901\N,0,-4.2239,2.5221,0.44
 3\N,0,-5.6729,0.2,0.5408\C,0,6.5086,-3.2219,-3.6326\C,0,6.3835,-4.0085
 ,-2.3065\N,0,6.8902,-1.8373,-3.476\N,0,5.4268,-3.3621,-1.472\C,0,-2.12
 57,-6.3633,0.204\C,0,-1.2988,-5.9962,1.4534\N,0,-2.4016,-5.1981,-0.583
 4\N,0,-0.0949,-5.3466,1.0541\C,0,-2.0633,-0.4592,-6.2323\C,0,-1.8184,1
 .0651,-6.2786\N,0,-2.8406,-0.7463,-5.0699\N,0,-1.2188,1.46,-5.041\C,0,
 3.9111,2.0045,1.6124\C,0,3.5439,2.9752,0.4746\N,0,3.7966,0.6636,1.1349
 \N,0,2.1411,2.885,0.2322\H,0,6.2122,-1.3712,-2.8815\H,0,7.7908,-1.7738
 ,-3.0116\H,0,-2.5946,2.1806,1.6754\H,0,5.5434,-3.2462,-4.1463\H,0,7.24
 99,-3.7182,-4.265\H,0,7.3482,-3.974,-1.7883\H,0,6.1283,-5.0602,-2.5224
 \H,0,-4.7324,1.9701,2.416\H,0,-5.6349,3.3379,1.6986\H,0,-6.8405,1.9186
 ,0.1847\H,0,-6.9625,1.1793,1.817\H,0,4.9524,2.1713,1.8976\H,0,3.2483,2
 .2093,2.4672\H,0,4.1494,2.7392,-0.4147\H,0,3.7593,3.9943,0.8081\H,0,-1
 .5459,-7.0442,-0.4223\H,0,-3.0449,-6.8616,0.5414\H,0,-2.784,1.5641,-6.
 4497\H,0,-1.1287,1.2936,-7.0935\H,0,-2.6413,-0.7415,-7.1171\H,0,-1.100
 8,-0.9945,-6.2395\H,0,-1.0307,-6.9191,1.9747\H,0,-1.9162,-5.3654,2.117
 3\\Version=ES64L-G16RevC.01\State=1-A\HF=-1979.8697212\RMSD=2.821e-09\
 Dipole=-1.0430966,-0.4344245,1.1023766\Quadrupole=-4.8384881,0.9357457
 ,3.9027424,-4.4344853,-2.2928196,2.7402869\PG=C01 [X(C37H40N10)]\\@
 The archive entry for this job was punched.


 WHEN ALL ELSE FAILS, LOOK AT THE SCHRODINGER EQUATION.
     -- RUSSELL T. PACK, APRIL 1978
 Job cpu time:       1 days  5 hours 12 minutes 39.2 seconds.
 Elapsed time:       0 days  0 hours 55 minutes 33.1 seconds.
 File lengths (MBytes):  RWF=   2296 Int=      0 D2E=      0 Chk=    176 Scr=     16
 Normal termination of Gaussian 16 at Mon Oct 18 09:21:21 2021.
