 Entering Gaussian System, Link 0=g16
 Initial command:
 /apps/gaussian/g16-c01-avx/g16/l1.exe "/rds/general/ephemeral/user/atarzia/ephemeral/Gau-199445.inp" -scrdir="/rds/general/ephemeral/user/atarzia/ephemeral/"
 Entering Link 1 = /apps/gaussian/g16-c01-avx/g16/l1.exe PID=    199446.
  
 Copyright (c) 1988-2019, Gaussian, Inc.  All Rights Reserved.
  
 This is part of the Gaussian(R) 16 program.  It is based on
 the Gaussian(R) 09 system (copyright 2009, Gaussian, Inc.),
 the Gaussian(R) 03 system (copyright 2003, Gaussian, Inc.),
 the Gaussian(R) 98 system (copyright 1998, Gaussian, Inc.),
 the Gaussian(R) 94 system (copyright 1995, Gaussian, Inc.),
 the Gaussian 92(TM) system (copyright 1992, Gaussian, Inc.),
 the Gaussian 90(TM) system (copyright 1990, Gaussian, Inc.),
 the Gaussian 88(TM) system (copyright 1988, Gaussian, Inc.),
 the Gaussian 86(TM) system (copyright 1986, Carnegie Mellon
 University), and the Gaussian 82(TM) system (copyright 1983,
 Carnegie Mellon University). Gaussian is a federally registered
 trademark of Gaussian, Inc.
  
 This software contains proprietary and confidential information,
 including trade secrets, belonging to Gaussian, Inc.
  
 This software is provided under written license and may be
 used, copied, transmitted, or stored only in accord with that
 written license.
  
 The following legend is applicable only to US Government
 contracts under FAR:
  
                    RESTRICTED RIGHTS LEGEND
  
 Use, reproduction and disclosure by the US Government is
 subject to restrictions as set forth in subparagraphs (a)
 and (c) of the Commercial Computer Software - Restricted
 Rights clause in FAR 52.227-19.
  
 Gaussian, Inc.
 340 Quinnipiac St., Bldg. 40, Wallingford CT 06492
  
  
 ---------------------------------------------------------------
 Warning -- This program may not be used in any manner that
 competes with the business of Gaussian, Inc. or will provide
 assistance to any competitor of Gaussian, Inc.  The licensee
 of this program is prohibited from giving any competitor of
 Gaussian, Inc. access to this program.  By using this program,
 the user acknowledges that Gaussian, Inc. is engaged in the
 business of creating and licensing software in the field of
 computational chemistry and represents and warrants to the
 licensee that it is not a competitor of Gaussian, Inc. and that
 it will not use this program in any manner prohibited above.
 ---------------------------------------------------------------
  

 Cite this work as:
 Gaussian 16, Revision C.01,
 M. J. Frisch, G. W. Trucks, H. B. Schlegel, G. E. Scuseria, 
 M. A. Robb, J. R. Cheeseman, G. Scalmani, V. Barone, 
 G. A. Petersson, H. Nakatsuji, X. Li, M. Caricato, A. V. Marenich, 
 J. Bloino, B. G. Janesko, R. Gomperts, B. Mennucci, H. P. Hratchian, 
 J. V. Ortiz, A. F. Izmaylov, J. L. Sonnenberg, D. Williams-Young, 
 F. Ding, F. Lipparini, F. Egidi, J. Goings, B. Peng, A. Petrone, 
 T. Henderson, D. Ranasinghe, V. G. Zakrzewski, J. Gao, N. Rega, 
 G. Zheng, W. Liang, M. Hada, M. Ehara, K. Toyota, R. Fukuda, 
 J. Hasegawa, M. Ishida, T. Nakajima, Y. Honda, O. Kitao, H. Nakai, 
 T. Vreven, K. Throssell, J. A. Montgomery, Jr., J. E. Peralta, 
 F. Ogliaro, M. J. Bearpark, J. J. Heyd, E. N. Brothers, K. N. Kudin, 
 V. N. Staroverov, T. A. Keith, R. Kobayashi, J. Normand, 
 K. Raghavachari, A. P. Rendell, J. C. Burant, S. S. Iyengar, 
 J. Tomasi, M. Cossi, J. M. Millam, M. Klene, C. Adamo, R. Cammi, 
 J. W. Ochterski, R. L. Martin, K. Morokuma, O. Farkas, 
 J. B. Foresman, and D. J. Fox, Gaussian, Inc., Wallingford CT, 2019.
 
 ******************************************
 Gaussian 16:  ES64L-G16RevC.01  3-Jul-2019
                18-Oct-2021 
 ******************************************
 %chk=_3_alde1_6_ami1_2_opt_cfm.chk
 %mem=60000mb
 %nprocshared=32
 Will use up to   32 processors via shared memory.
 ----------------------------------------------------------------------
 #P PBE1PBE/Def2TZVP SP SCF=(YQC,MaxCycle=900) int=(Grid=Superfinegrid)
  EmpiricalDispersion=GD3 SCRF=(PCM,Solvent=Chloroform)
 ----------------------------------------------------------------------
 1/38=1,172=1/1;
 2/12=2,17=6,18=5,40=1/2;
 3/5=44,7=101,11=2,25=1,30=1,70=2201,72=7,74=-13,75=-7,124=31/1,2,3;
 4//1;
 5/5=2,7=900,8=4,13=1,38=1,53=7/8,2,8;
 6/7=2,8=2,9=2,10=2,28=1/1;
 99/5=1,9=1/99;
 Leave Link    1 at Mon Oct 18 10:46:58 2021, MaxMem=  7864320000 cpu:               4.4 elap:               0.1
 (Enter /apps/gaussian/g16-c01-avx/g16/l101.exe)
 -------------------------
 _3_alde1_6_ami1_2_opt_cfm
 -------------------------
 Symbolic Z-matrix:
 Charge =  0 Multiplicity = 1
 C                    -1.2202   -0.1559   -3.184 
 C                    -0.0295    0.0051   -4.008 
 C                    -1.6376   -1.4241   -2.7909 
 C                    -2.7747   -1.5864   -2.0053 
 H                    -1.0712   -2.2891   -3.0939 
 C                    -3.5133   -0.4679   -1.6346 
 C                    -3.1246    0.8065   -2.0426 
 H                    -4.4084   -0.5635   -1.0391 
 C                    -1.9652    0.9565   -2.7986 
 C                    -3.9233    1.9719   -1.6939 
 H                    -1.6452    1.9459   -3.0952 
 C                    -3.1767   -2.9172   -1.5681 
 H                    -3.4759    2.9477   -1.9372 
 H                     0.2009    1.0334   -4.3259 
 H                    -3.8549   -2.9542   -0.7008 
 C                     2.413    -2.1944    0.907 
 C                     3.6827   -1.57      0.5646 
 C                     1.8661   -2.0177    2.1738 
 C                     0.6403   -2.586     2.506 
 H                     2.3913   -1.4259    2.9051 
 C                    -0.028    -3.3626    1.5659 
 C                     0.52     -3.5735    0.3018 
 H                    -0.9744   -3.8268    1.7977 
 C                     1.7307   -2.9702   -0.0277 
 C                    -0.1547   -4.427    -0.6653 
 H                     2.1494   -3.1142   -1.0143 
 C                     0.0628   -2.3374    3.8204 
 H                     0.2615   -4.418    -1.6845 
 H                     4.0488   -1.7494   -0.4578 
 H                    -1.0163   -2.5337    3.9206 
 C                     0.025     2.9845    0.9824 
 C                     0.8372    3.7038    0.0114 
 C                    -1.362     2.997     0.8724 
 C                    -2.1576    2.3444    1.8085 
 H                    -1.829     3.5193    0.0544 
 C                    -1.5552    1.6797    2.8702 
 C                    -0.168     1.6744    3.0077 
 H                    -2.1453    1.1742    3.6192 
 C                     0.6162    2.3178    2.0538 
 C                     0.4553    1.0264    4.1526 
 H                     1.693     2.3092    2.1513 
 C                    -3.6071    2.3622    1.659 
 H                     1.5539    0.9588    4.1273 
 H                     1.9117    3.7809    0.24 
 H                    -4.1604    1.5713    2.1894 
 C                     1.4076   -1.4047   -6.5761 
 C                     1.8137   -0.8245   -5.1972 
 N                     0.4125   -0.4991   -7.1412 
 H                     0.99     -2.4104   -6.3904 
 C                     2.5805   -1.5503   -7.565 
 N                     0.6779   -0.9838   -4.3411 
 H                     2.0544    0.242    -5.3542 
 C                     3.0156   -1.5211   -4.5293 
 H                     3.3294   -2.2021   -7.1059 
 C                     3.2148   -0.2007   -7.89 
 C                     2.1179   -2.2336   -8.8539 
 H                     3.8738   -1.457    -5.2042 
 C                     2.7176   -2.9872   -4.2263 
 C                     3.3797   -0.7799   -3.2431 
 H                     1.4844   -1.5717   -9.439 
 H                     1.5661   -3.1457   -8.6332 
 H                     2.9797   -2.4967   -9.4633 
 H                     3.9425   -0.3112   -8.6907 
 H                     3.7221    0.2131   -7.0226 
 H                     2.443     0.4955   -8.2057 
 H                     2.5517   -0.8105   -2.5375 
 H                     3.6143    0.2621   -3.45 
 H                     4.2531   -1.2389   -2.7835 
 H                     1.7971   -3.0583   -3.6534 
 H                     3.5323   -3.4261   -3.6528 
 H                     2.6008   -3.5606   -5.142 
 C                     6.6349   -0.6697    2.0945 
 C                     5.546    -0.237     1.0605 
 N                     6.1032   -1.1258    3.3663 
 H                     7.2514    0.2107    2.3175 
 C                     7.592    -1.7535    1.554 
 N                     4.3115   -0.8667    1.399 
 H                     5.8789   -0.5176    0.045 
 C                     5.3375    1.2962    1.0494 
 H                     8.1632   -2.087     2.4271 
 C                     8.5713   -1.1756    0.5343 
 C                     6.8763   -2.9708    0.9708 
 H                     6.3178    1.7513    0.865 
 C                     4.7887    1.8155    2.3757 
 C                     4.4039    1.6873   -0.0954 
 H                     6.134    -3.36      1.6633 
 H                     7.598    -3.7597    0.7699 
 H                     6.379    -2.7261    0.0353 
 H                     8.0493   -0.803    -0.3446 
 H                     9.2718   -1.9426    0.2117 
 H                     9.138    -0.355     0.9683 
 H                     3.4127    1.263     0.0561 
 H                     4.7865    1.3274   -1.0485 
 H                     4.3137    2.7703   -0.1512 
 H                     4.5524    2.8753    2.2933 
 H                     5.5161    1.6968    3.1748 
 H                     3.8843    1.2706    2.6363 
 C                     0.3474    6.3312   -2.2118 
 C                     1.0991    4.9955   -1.9286 
 N                    -0.9624    6.1273   -2.8006 
 H                     0.9563    6.8865   -2.9342 
 C                     0.1944    7.2651   -0.9853 
 N                     0.3175    4.2347   -1.0083 
 H                     2.1057    5.2214   -1.5345 
 C                     1.2896    4.1519   -3.2147 
 H                    -0.0866    8.2369   -1.4076 
 C                     1.5079    7.4445   -0.2268 
 C                    -0.9228    6.8565   -0.0268 
 H                     0.301     3.8239   -3.5551 
 C                     2.1192    2.9085   -2.8975 
 C                     1.9737    4.9358   -4.3334 
 H                    -0.9557    7.5543    0.8076 
 H                    -0.7635    5.8572    0.366 
 H                    -1.8831    6.8869   -0.5328 
 H                     1.4189    8.2714    0.4743 
 H                     2.3261    7.6642   -0.91 
 H                     1.7523    6.5503    0.3417 
 H                     2.9037    5.3734   -3.9757 
 H                     1.3432    5.7313   -4.7218 
 H                     2.2076    4.2652   -5.1581 
 H                     3.1076    3.193    -2.5414 
 H                     2.2419    2.3043   -3.7938 
 H                     1.6393    2.2958   -2.137 
 C                    -3.1221   -5.2507   -1.6641 
 C                    -1.7786   -5.9548   -1.3416 
 N                    -2.7647   -3.9535   -2.1518 
 H                    -3.705    -5.176    -0.7293 
 C                    -3.9766   -5.9807   -2.7199 
 N                    -1.1356   -5.1505   -0.3452 
 H                    -1.1876   -5.9692   -2.2737 
 C                    -1.9209   -7.3943   -0.8144 
 H                    -4.1956   -6.9838   -2.3409 
 C                    -3.2587   -6.0922   -4.0618 
 C                    -5.3035   -5.2413   -2.8938 
 H                    -2.4221   -7.9915   -1.5826 
 C                    -2.7277   -7.4527    0.4792 
 C                    -0.527    -7.9812   -0.5902 
 H                    -5.1308   -4.2439   -3.2922 
 H                    -5.8224   -5.1483   -1.9416 
 H                    -5.948    -5.7823   -3.583 
 H                    -2.4051   -6.7617   -3.9966 
 H                    -2.9121   -5.1108   -4.3738 
 H                    -3.9387   -6.4826   -4.8159 
 H                    -0.005    -7.4186    0.1806 
 H                     0.061    -7.9404   -1.5051 
 H                    -0.5997   -9.0195   -0.2746 
 H                    -2.6878   -8.4556    0.8987 
 H                    -3.7702   -7.1994    0.305 
 H                    -2.3112   -6.7537    1.199 
 C                    -5.773     3.0559   -0.7907 
 C                    -5.5894    3.1994    0.7444 
 N                    -5.0632    1.8685   -1.1656 
 H                    -5.3153    3.9462   -1.2546 
 C                    -7.2366    2.9444   -1.2517 
 N                    -4.1753    3.2368    0.9547 
 H                    -6.0396    2.316     1.23 
 C                    -6.2325    4.4704    1.3343 
 H                    -7.7633    3.8524   -0.9416 
 C                    -7.9347    1.7256   -0.6555 
 C                    -7.2686    2.872    -2.7786 
 H                    -7.3011    4.4486    1.0981 
 C                    -5.6136    5.7445    0.766 
 C                    -6.0825    4.4483    2.8556 
 H                    -6.758     1.9738   -3.1187 
 H                    -6.7744    3.7371   -3.2164 
 H                    -8.2956    2.8458   -3.1357 
 H                    -7.3346    0.8384   -0.837 
 H                    -8.9104    1.5915   -1.1174 
 H                    -8.0803    1.8398    0.4156 
 H                    -6.5882    5.3045    3.2961 
 H                    -5.0307    4.4889    3.1308 
 H                    -6.5155    3.542     3.2748 
 H                    -4.5327    5.7058    0.8708 
 H                    -5.9889    6.6116    1.3051 
 H                    -5.8605    5.8679   -0.285 
 C                     0.172    -1.5785    6.0287 
 C                     0.4317   -0.0596    6.2157 
 N                     0.7677   -1.9087    4.7713 
 H                    -0.9203   -1.7398    6.0064 
 C                     0.7813   -2.4616    7.1355 
 N                    -0.2237    0.596     5.1233 
 H                     1.5239    0.0896    6.1643 
 C                    -0.0945    0.5204    7.5408 
 H                     0.339    -2.1599    8.0901 
 C                     2.2987   -2.32      7.2127 
 C                     0.4023   -3.9203    6.8783 
 H                     0.4082    0.0034    8.3641 
 C                    -1.604     0.3483    7.6807 
 C                     0.2736    2.0026    7.614 
 H                     0.7641   -4.5513    7.6868 
 H                     0.8438   -4.2653    5.9458 
 H                    -0.6782   -4.0338    6.8122 
 H                     2.7059   -3.0553    7.9033 
 H                     2.5847   -1.332     7.5635 
 H                     2.7329   -2.4828    6.2302 
 H                    -0.2202    2.5492    6.8136 
 H                     1.3486    2.1388    7.513 
 H                    -0.0379    2.4235    8.5673 
 H                    -1.8718   -0.6986    7.7971 
 H                    -2.098     0.7417    6.7969 
 H                    -1.9617    0.8892    8.5541 
 H                    -1.4681    5.4573   -2.231 
 H                    -0.8776    5.7392   -3.7331 
 H                     0.0131   -0.9048   -7.9796 
 H                    -0.3465   -0.3676   -6.4804 
 H                     5.5317   -1.952     3.2216 
 H                     5.4893   -0.4211    3.7575 
 
 ITRead=  0  0  0  0  0  0  0  0  0  0  0  0  0  0  0  0  0  0  0  0
 ITRead=  0  0  0  0  0  0  0  0  0  0  0  0  0  0  0  0  0  0  0  0
 ITRead=  0  0  0  0  0  0  0  0  0  0  0  0  0  0  0  0  0  0  0  0
 ITRead=  0  0  0  0  0  0  0  0  0  0  0  0  0  0  0  0  0  0  0  0
 ITRead=  0  0  0  0  0  0  0  0  0  0  0  0  0  0  0  0  0  0  0  0
 ITRead=  0  0  0  0  0  0  0  0  0  0  0  0  0  0  0  0  0  0  0  0
 ITRead=  0  0  0  0  0  0  0  0  0  0  0  0  0  0  0  0  0  0  0  0
 ITRead=  0  0  0  0  0  0  0  0  0  0  0  0  0  0  0  0  0  0  0  0
 ITRead=  0  0  0  0  0  0  0  0  0  0  0  0  0  0  0  0  0  0  0  0
 ITRead=  0  0  0  0  0  0  0  0  0  0  0  0  0  0  0  0  0  0  0  0
 ITRead=  0  0  0  0  0  0  0
 MicOpt= -1 -1 -1 -1 -1 -1 -1 -1 -1 -1 -1 -1 -1 -1 -1 -1 -1 -1 -1 -1
 MicOpt= -1 -1 -1 -1 -1 -1 -1 -1 -1 -1 -1 -1 -1 -1 -1 -1 -1 -1 -1 -1
 MicOpt= -1 -1 -1 -1 -1 -1 -1 -1 -1 -1 -1 -1 -1 -1 -1 -1 -1 -1 -1 -1
 MicOpt= -1 -1 -1 -1 -1 -1 -1 -1 -1 -1 -1 -1 -1 -1 -1 -1 -1 -1 -1 -1
 MicOpt= -1 -1 -1 -1 -1 -1 -1 -1 -1 -1 -1 -1 -1 -1 -1 -1 -1 -1 -1 -1
 MicOpt= -1 -1 -1 -1 -1 -1 -1 -1 -1 -1 -1 -1 -1 -1 -1 -1 -1 -1 -1 -1
 MicOpt= -1 -1 -1 -1 -1 -1 -1 -1 -1 -1 -1 -1 -1 -1 -1 -1 -1 -1 -1 -1
 MicOpt= -1 -1 -1 -1 -1 -1 -1 -1 -1 -1 -1 -1 -1 -1 -1 -1 -1 -1 -1 -1
 MicOpt= -1 -1 -1 -1 -1 -1 -1 -1 -1 -1 -1 -1 -1 -1 -1 -1 -1 -1 -1 -1
 MicOpt= -1 -1 -1 -1 -1 -1 -1 -1 -1 -1 -1 -1 -1 -1 -1 -1 -1 -1 -1 -1
 MicOpt= -1 -1 -1 -1 -1 -1 -1
 NAtoms=    207 NQM=      207 NQMF=       0 NMMI=      0 NMMIF=      0
                NMic=       0 NMicF=      0.
                    Isotopes and Nuclear Properties:
 (Nuclear quadrupole moments (NQMom) in fm**2, nuclear magnetic moments (NMagM)
  in nuclear magnetons)

  Atom         1           2           3           4           5           6           7           8           9          10
 IAtWgt=          12          12          12          12           1          12          12           1          12          12
 AtmWgt=  12.0000000  12.0000000  12.0000000  12.0000000   1.0078250  12.0000000  12.0000000   1.0078250  12.0000000  12.0000000
 NucSpn=           0           0           0           0           1           0           0           1           0           0
 AtZEff=  -0.0000000  -0.0000000  -0.0000000  -0.0000000  -0.0000000  -0.0000000  -0.0000000  -0.0000000  -0.0000000  -0.0000000
 NQMom=    0.0000000   0.0000000   0.0000000   0.0000000   0.0000000   0.0000000   0.0000000   0.0000000   0.0000000   0.0000000
 NMagM=    0.0000000   0.0000000   0.0000000   0.0000000   2.7928460   0.0000000   0.0000000   2.7928460   0.0000000   0.0000000
 AtZNuc=   6.0000000   6.0000000   6.0000000   6.0000000   1.0000000   6.0000000   6.0000000   1.0000000   6.0000000   6.0000000

  Atom        11          12          13          14          15          16          17          18          19          20
 IAtWgt=           1          12           1           1           1          12          12          12          12           1
 AtmWgt=   1.0078250  12.0000000   1.0078250   1.0078250   1.0078250  12.0000000  12.0000000  12.0000000  12.0000000   1.0078250
 NucSpn=           1           0           1           1           1           0           0           0           0           1
 AtZEff=  -0.0000000  -0.0000000  -0.0000000  -0.0000000  -0.0000000  -0.0000000  -0.0000000  -0.0000000  -0.0000000  -0.0000000
 NQMom=    0.0000000   0.0000000   0.0000000   0.0000000   0.0000000   0.0000000   0.0000000   0.0000000   0.0000000   0.0000000
 NMagM=    2.7928460   0.0000000   2.7928460   2.7928460   2.7928460   0.0000000   0.0000000   0.0000000   0.0000000   2.7928460
 AtZNuc=   1.0000000   6.0000000   1.0000000   1.0000000   1.0000000   6.0000000   6.0000000   6.0000000   6.0000000   1.0000000

  Atom        21          22          23          24          25          26          27          28          29          30
 IAtWgt=          12          12           1          12          12           1          12           1           1           1
 AtmWgt=  12.0000000  12.0000000   1.0078250  12.0000000  12.0000000   1.0078250  12.0000000   1.0078250   1.0078250   1.0078250
 NucSpn=           0           0           1           0           0           1           0           1           1           1
 AtZEff=  -0.0000000  -0.0000000  -0.0000000  -0.0000000  -0.0000000  -0.0000000  -0.0000000  -0.0000000  -0.0000000  -0.0000000
 NQMom=    0.0000000   0.0000000   0.0000000   0.0000000   0.0000000   0.0000000   0.0000000   0.0000000   0.0000000   0.0000000
 NMagM=    0.0000000   0.0000000   2.7928460   0.0000000   0.0000000   2.7928460   0.0000000   2.7928460   2.7928460   2.7928460
 AtZNuc=   6.0000000   6.0000000   1.0000000   6.0000000   6.0000000   1.0000000   6.0000000   1.0000000   1.0000000   1.0000000

  Atom        31          32          33          34          35          36          37          38          39          40
 IAtWgt=          12          12          12          12           1          12          12           1          12          12
 AtmWgt=  12.0000000  12.0000000  12.0000000  12.0000000   1.0078250  12.0000000  12.0000000   1.0078250  12.0000000  12.0000000
 NucSpn=           0           0           0           0           1           0           0           1           0           0
 AtZEff=  -0.0000000  -0.0000000  -0.0000000  -0.0000000  -0.0000000  -0.0000000  -0.0000000  -0.0000000  -0.0000000  -0.0000000
 NQMom=    0.0000000   0.0000000   0.0000000   0.0000000   0.0000000   0.0000000   0.0000000   0.0000000   0.0000000   0.0000000
 NMagM=    0.0000000   0.0000000   0.0000000   0.0000000   2.7928460   0.0000000   0.0000000   2.7928460   0.0000000   0.0000000
 AtZNuc=   6.0000000   6.0000000   6.0000000   6.0000000   1.0000000   6.0000000   6.0000000   1.0000000   6.0000000   6.0000000

  Atom        41          42          43          44          45          46          47          48          49          50
 IAtWgt=           1          12           1           1           1          12          12          14           1          12
 AtmWgt=   1.0078250  12.0000000   1.0078250   1.0078250   1.0078250  12.0000000  12.0000000  14.0030740   1.0078250  12.0000000
 NucSpn=           1           0           1           1           1           0           0           2           1           0
 AtZEff=  -0.0000000  -0.0000000  -0.0000000  -0.0000000  -0.0000000  -0.0000000  -0.0000000  -0.0000000  -0.0000000  -0.0000000
 NQMom=    0.0000000   0.0000000   0.0000000   0.0000000   0.0000000   0.0000000   0.0000000   2.0440000   0.0000000   0.0000000
 NMagM=    2.7928460   0.0000000   2.7928460   2.7928460   2.7928460   0.0000000   0.0000000   0.4037610   2.7928460   0.0000000
 AtZNuc=   1.0000000   6.0000000   1.0000000   1.0000000   1.0000000   6.0000000   6.0000000   7.0000000   1.0000000   6.0000000

  Atom        51          52          53          54          55          56          57          58          59          60
 IAtWgt=          14           1          12           1          12          12           1          12          12           1
 AtmWgt=  14.0030740   1.0078250  12.0000000   1.0078250  12.0000000  12.0000000   1.0078250  12.0000000  12.0000000   1.0078250
 NucSpn=           2           1           0           1           0           0           1           0           0           1
 AtZEff=  -0.0000000  -0.0000000  -0.0000000  -0.0000000  -0.0000000  -0.0000000  -0.0000000  -0.0000000  -0.0000000  -0.0000000
 NQMom=    2.0440000   0.0000000   0.0000000   0.0000000   0.0000000   0.0000000   0.0000000   0.0000000   0.0000000   0.0000000
 NMagM=    0.4037610   2.7928460   0.0000000   2.7928460   0.0000000   0.0000000   2.7928460   0.0000000   0.0000000   2.7928460
 AtZNuc=   7.0000000   1.0000000   6.0000000   1.0000000   6.0000000   6.0000000   1.0000000   6.0000000   6.0000000   1.0000000

  Atom        61          62          63          64          65          66          67          68          69          70
 IAtWgt=           1           1           1           1           1           1           1           1           1           1
 AtmWgt=   1.0078250   1.0078250   1.0078250   1.0078250   1.0078250   1.0078250   1.0078250   1.0078250   1.0078250   1.0078250
 NucSpn=           1           1           1           1           1           1           1           1           1           1
 AtZEff=  -0.0000000  -0.0000000  -0.0000000  -0.0000000  -0.0000000  -0.0000000  -0.0000000  -0.0000000  -0.0000000  -0.0000000
 NQMom=    0.0000000   0.0000000   0.0000000   0.0000000   0.0000000   0.0000000   0.0000000   0.0000000   0.0000000   0.0000000
 NMagM=    2.7928460   2.7928460   2.7928460   2.7928460   2.7928460   2.7928460   2.7928460   2.7928460   2.7928460   2.7928460
 AtZNuc=   1.0000000   1.0000000   1.0000000   1.0000000   1.0000000   1.0000000   1.0000000   1.0000000   1.0000000   1.0000000

  Atom        71          72          73          74          75          76          77          78          79          80
 IAtWgt=           1          12          12          14           1          12          14           1          12           1
 AtmWgt=   1.0078250  12.0000000  12.0000000  14.0030740   1.0078250  12.0000000  14.0030740   1.0078250  12.0000000   1.0078250
 NucSpn=           1           0           0           2           1           0           2           1           0           1
 AtZEff=  -0.0000000  -0.0000000  -0.0000000  -0.0000000  -0.0000000  -0.0000000  -0.0000000  -0.0000000  -0.0000000  -0.0000000
 NQMom=    0.0000000   0.0000000   0.0000000   2.0440000   0.0000000   0.0000000   2.0440000   0.0000000   0.0000000   0.0000000
 NMagM=    2.7928460   0.0000000   0.0000000   0.4037610   2.7928460   0.0000000   0.4037610   2.7928460   0.0000000   2.7928460
 AtZNuc=   1.0000000   6.0000000   6.0000000   7.0000000   1.0000000   6.0000000   7.0000000   1.0000000   6.0000000   1.0000000

  Atom        81          82          83          84          85          86          87          88          89          90
 IAtWgt=          12          12           1          12          12           1           1           1           1           1
 AtmWgt=  12.0000000  12.0000000   1.0078250  12.0000000  12.0000000   1.0078250   1.0078250   1.0078250   1.0078250   1.0078250
 NucSpn=           0           0           1           0           0           1           1           1           1           1
 AtZEff=  -0.0000000  -0.0000000  -0.0000000  -0.0000000  -0.0000000  -0.0000000  -0.0000000  -0.0000000  -0.0000000  -0.0000000
 NQMom=    0.0000000   0.0000000   0.0000000   0.0000000   0.0000000   0.0000000   0.0000000   0.0000000   0.0000000   0.0000000
 NMagM=    0.0000000   0.0000000   2.7928460   0.0000000   0.0000000   2.7928460   2.7928460   2.7928460   2.7928460   2.7928460
 AtZNuc=   6.0000000   6.0000000   1.0000000   6.0000000   6.0000000   1.0000000   1.0000000   1.0000000   1.0000000   1.0000000

  Atom        91          92          93          94          95          96          97          98          99         100
 IAtWgt=           1           1           1           1           1           1           1          12          12          14
 AtmWgt=   1.0078250   1.0078250   1.0078250   1.0078250   1.0078250   1.0078250   1.0078250  12.0000000  12.0000000  14.0030740
 NucSpn=           1           1           1           1           1           1           1           0           0           2
 AtZEff=  -0.0000000  -0.0000000  -0.0000000  -0.0000000  -0.0000000  -0.0000000  -0.0000000  -0.0000000  -0.0000000  -0.0000000
 NQMom=    0.0000000   0.0000000   0.0000000   0.0000000   0.0000000   0.0000000   0.0000000   0.0000000   0.0000000   2.0440000
 NMagM=    2.7928460   2.7928460   2.7928460   2.7928460   2.7928460   2.7928460   2.7928460   0.0000000   0.0000000   0.4037610
 AtZNuc=   1.0000000   1.0000000   1.0000000   1.0000000   1.0000000   1.0000000   1.0000000   6.0000000   6.0000000   7.0000000

  Atom       101         102         103         104         105         106         107         108         109         110
 IAtWgt=           1          12          14           1          12           1          12          12           1          12
 AtmWgt=   1.0078250  12.0000000  14.0030740   1.0078250  12.0000000   1.0078250  12.0000000  12.0000000   1.0078250  12.0000000
 NucSpn=           1           0           2           1           0           1           0           0           1           0
 AtZEff=  -0.0000000  -0.0000000  -0.0000000  -0.0000000  -0.0000000  -0.0000000  -0.0000000  -0.0000000  -0.0000000  -0.0000000
 NQMom=    0.0000000   0.0000000   2.0440000   0.0000000   0.0000000   0.0000000   0.0000000   0.0000000   0.0000000   0.0000000
 NMagM=    2.7928460   0.0000000   0.4037610   2.7928460   0.0000000   2.7928460   0.0000000   0.0000000   2.7928460   0.0000000
 AtZNuc=   1.0000000   6.0000000   7.0000000   1.0000000   6.0000000   1.0000000   6.0000000   6.0000000   1.0000000   6.0000000

  Atom       111         112         113         114         115         116         117         118         119         120
 IAtWgt=          12           1           1           1           1           1           1           1           1           1
 AtmWgt=  12.0000000   1.0078250   1.0078250   1.0078250   1.0078250   1.0078250   1.0078250   1.0078250   1.0078250   1.0078250
 NucSpn=           0           1           1           1           1           1           1           1           1           1
 AtZEff=  -0.0000000  -0.0000000  -0.0000000  -0.0000000  -0.0000000  -0.0000000  -0.0000000  -0.0000000  -0.0000000  -0.0000000
 NQMom=    0.0000000   0.0000000   0.0000000   0.0000000   0.0000000   0.0000000   0.0000000   0.0000000   0.0000000   0.0000000
 NMagM=    0.0000000   2.7928460   2.7928460   2.7928460   2.7928460   2.7928460   2.7928460   2.7928460   2.7928460   2.7928460
 AtZNuc=   6.0000000   1.0000000   1.0000000   1.0000000   1.0000000   1.0000000   1.0000000   1.0000000   1.0000000   1.0000000

  Atom       121         122         123         124         125         126         127         128         129         130
 IAtWgt=           1           1           1          12          12          14           1          12          14           1
 AtmWgt=   1.0078250   1.0078250   1.0078250  12.0000000  12.0000000  14.0030740   1.0078250  12.0000000  14.0030740   1.0078250
 NucSpn=           1           1           1           0           0           2           1           0           2           1
 AtZEff=  -0.0000000  -0.0000000  -0.0000000  -0.0000000  -0.0000000  -0.0000000  -0.0000000  -0.0000000  -0.0000000  -0.0000000
 NQMom=    0.0000000   0.0000000   0.0000000   0.0000000   0.0000000   2.0440000   0.0000000   0.0000000   2.0440000   0.0000000
 NMagM=    2.7928460   2.7928460   2.7928460   0.0000000   0.0000000   0.4037610   2.7928460   0.0000000   0.4037610   2.7928460
 AtZNuc=   1.0000000   1.0000000   1.0000000   6.0000000   6.0000000   7.0000000   1.0000000   6.0000000   7.0000000   1.0000000

  Atom       131         132         133         134         135         136         137         138         139         140
 IAtWgt=          12           1          12          12           1          12          12           1           1           1
 AtmWgt=  12.0000000   1.0078250  12.0000000  12.0000000   1.0078250  12.0000000  12.0000000   1.0078250   1.0078250   1.0078250
 NucSpn=           0           1           0           0           1           0           0           1           1           1
 AtZEff=  -0.0000000  -0.0000000  -0.0000000  -0.0000000  -0.0000000  -0.0000000  -0.0000000  -0.0000000  -0.0000000  -0.0000000
 NQMom=    0.0000000   0.0000000   0.0000000   0.0000000   0.0000000   0.0000000   0.0000000   0.0000000   0.0000000   0.0000000
 NMagM=    0.0000000   2.7928460   0.0000000   0.0000000   2.7928460   0.0000000   0.0000000   2.7928460   2.7928460   2.7928460
 AtZNuc=   6.0000000   1.0000000   6.0000000   6.0000000   1.0000000   6.0000000   6.0000000   1.0000000   1.0000000   1.0000000

  Atom       141         142         143         144         145         146         147         148         149         150
 IAtWgt=           1           1           1           1           1           1           1           1           1          12
 AtmWgt=   1.0078250   1.0078250   1.0078250   1.0078250   1.0078250   1.0078250   1.0078250   1.0078250   1.0078250  12.0000000
 NucSpn=           1           1           1           1           1           1           1           1           1           0
 AtZEff=  -0.0000000  -0.0000000  -0.0000000  -0.0000000  -0.0000000  -0.0000000  -0.0000000  -0.0000000  -0.0000000  -0.0000000
 NQMom=    0.0000000   0.0000000   0.0000000   0.0000000   0.0000000   0.0000000   0.0000000   0.0000000   0.0000000   0.0000000
 NMagM=    2.7928460   2.7928460   2.7928460   2.7928460   2.7928460   2.7928460   2.7928460   2.7928460   2.7928460   0.0000000
 AtZNuc=   1.0000000   1.0000000   1.0000000   1.0000000   1.0000000   1.0000000   1.0000000   1.0000000   1.0000000   6.0000000

  Atom       151         152         153         154         155         156         157         158         159         160
 IAtWgt=          12          14           1          12          14           1          12           1          12          12
 AtmWgt=  12.0000000  14.0030740   1.0078250  12.0000000  14.0030740   1.0078250  12.0000000   1.0078250  12.0000000  12.0000000
 NucSpn=           0           2           1           0           2           1           0           1           0           0
 AtZEff=  -0.0000000  -0.0000000  -0.0000000  -0.0000000  -0.0000000  -0.0000000  -0.0000000  -0.0000000  -0.0000000  -0.0000000
 NQMom=    0.0000000   2.0440000   0.0000000   0.0000000   2.0440000   0.0000000   0.0000000   0.0000000   0.0000000   0.0000000
 NMagM=    0.0000000   0.4037610   2.7928460   0.0000000   0.4037610   2.7928460   0.0000000   2.7928460   0.0000000   0.0000000
 AtZNuc=   6.0000000   7.0000000   1.0000000   6.0000000   7.0000000   1.0000000   6.0000000   1.0000000   6.0000000   6.0000000

  Atom       161         162         163         164         165         166         167         168         169         170
 IAtWgt=           1          12          12           1           1           1           1           1           1           1
 AtmWgt=   1.0078250  12.0000000  12.0000000   1.0078250   1.0078250   1.0078250   1.0078250   1.0078250   1.0078250   1.0078250
 NucSpn=           1           0           0           1           1           1           1           1           1           1
 AtZEff=  -0.0000000  -0.0000000  -0.0000000  -0.0000000  -0.0000000  -0.0000000  -0.0000000  -0.0000000  -0.0000000  -0.0000000
 NQMom=    0.0000000   0.0000000   0.0000000   0.0000000   0.0000000   0.0000000   0.0000000   0.0000000   0.0000000   0.0000000
 NMagM=    2.7928460   0.0000000   0.0000000   2.7928460   2.7928460   2.7928460   2.7928460   2.7928460   2.7928460   2.7928460
 AtZNuc=   1.0000000   6.0000000   6.0000000   1.0000000   1.0000000   1.0000000   1.0000000   1.0000000   1.0000000   1.0000000

  Atom       171         172         173         174         175         176         177         178         179         180
 IAtWgt=           1           1           1           1           1          12          12          14           1          12
 AtmWgt=   1.0078250   1.0078250   1.0078250   1.0078250   1.0078250  12.0000000  12.0000000  14.0030740   1.0078250  12.0000000
 NucSpn=           1           1           1           1           1           0           0           2           1           0
 AtZEff=  -0.0000000  -0.0000000  -0.0000000  -0.0000000  -0.0000000  -0.0000000  -0.0000000  -0.0000000  -0.0000000  -0.0000000
 NQMom=    0.0000000   0.0000000   0.0000000   0.0000000   0.0000000   0.0000000   0.0000000   2.0440000   0.0000000   0.0000000
 NMagM=    2.7928460   2.7928460   2.7928460   2.7928460   2.7928460   0.0000000   0.0000000   0.4037610   2.7928460   0.0000000
 AtZNuc=   1.0000000   1.0000000   1.0000000   1.0000000   1.0000000   6.0000000   6.0000000   7.0000000   1.0000000   6.0000000

  Atom       181         182         183         184         185         186         187         188         189         190
 IAtWgt=          14           1          12           1          12          12           1          12          12           1
 AtmWgt=  14.0030740   1.0078250  12.0000000   1.0078250  12.0000000  12.0000000   1.0078250  12.0000000  12.0000000   1.0078250
 NucSpn=           2           1           0           1           0           0           1           0           0           1
 AtZEff=  -0.0000000  -0.0000000  -0.0000000  -0.0000000  -0.0000000  -0.0000000  -0.0000000  -0.0000000  -0.0000000  -0.0000000
 NQMom=    2.0440000   0.0000000   0.0000000   0.0000000   0.0000000   0.0000000   0.0000000   0.0000000   0.0000000   0.0000000
 NMagM=    0.4037610   2.7928460   0.0000000   2.7928460   0.0000000   0.0000000   2.7928460   0.0000000   0.0000000   2.7928460
 AtZNuc=   7.0000000   1.0000000   6.0000000   1.0000000   6.0000000   6.0000000   1.0000000   6.0000000   6.0000000   1.0000000

  Atom       191         192         193         194         195         196         197         198         199         200
 IAtWgt=           1           1           1           1           1           1           1           1           1           1
 AtmWgt=   1.0078250   1.0078250   1.0078250   1.0078250   1.0078250   1.0078250   1.0078250   1.0078250   1.0078250   1.0078250
 NucSpn=           1           1           1           1           1           1           1           1           1           1
 AtZEff=  -0.0000000  -0.0000000  -0.0000000  -0.0000000  -0.0000000  -0.0000000  -0.0000000  -0.0000000  -0.0000000  -0.0000000
 NQMom=    0.0000000   0.0000000   0.0000000   0.0000000   0.0000000   0.0000000   0.0000000   0.0000000   0.0000000   0.0000000
 NMagM=    2.7928460   2.7928460   2.7928460   2.7928460   2.7928460   2.7928460   2.7928460   2.7928460   2.7928460   2.7928460
 AtZNuc=   1.0000000   1.0000000   1.0000000   1.0000000   1.0000000   1.0000000   1.0000000   1.0000000   1.0000000   1.0000000

  Atom       201         202         203         204         205         206         207
 IAtWgt=           1           1           1           1           1           1           1
 AtmWgt=   1.0078250   1.0078250   1.0078250   1.0078250   1.0078250   1.0078250   1.0078250
 NucSpn=           1           1           1           1           1           1           1
 AtZEff=  -0.0000000  -0.0000000  -0.0000000  -0.0000000  -0.0000000  -0.0000000  -0.0000000
 NQMom=    0.0000000   0.0000000   0.0000000   0.0000000   0.0000000   0.0000000   0.0000000
 NMagM=    2.7928460   2.7928460   2.7928460   2.7928460   2.7928460   2.7928460   2.7928460
 AtZNuc=   1.0000000   1.0000000   1.0000000   1.0000000   1.0000000   1.0000000   1.0000000
 Leave Link  101 at Mon Oct 18 10:46:58 2021, MaxMem=  7864320000 cpu:               4.2 elap:               0.1
 (Enter /apps/gaussian/g16-c01-avx/g16/l202.exe)
 Stoichiometry    C75H120N12
 Framework group  C1[X(C75H120N12)]
 Deg. of freedom   615
 Full point group                 C1      NOp   1
 Largest Abelian subgroup         C1      NOp   1
 Largest concise Abelian subgroup C1      NOp   1
                         Standard orientation:                         
 ---------------------------------------------------------------------
 Center     Atomic      Atomic             Coordinates (Angstroms)
 Number     Number       Type             X           Y           Z
 ---------------------------------------------------------------------
      1          6           0        1.624795    2.820995    0.065714
      2          6           0        1.137824    3.543453   -1.102009
      3          6           0        0.985143    2.956776    1.294328
      4          6           0        1.445092    2.271455    2.414724
      5          1           0        0.121419    3.595443    1.377566
      6          6           0        2.572668    1.464782    2.305918
      7          6           0        3.241007    1.339404    1.089673
      8          1           0        2.962302    0.933440    3.160801
      9          6           0        2.748531    2.003121   -0.030679
     10          6           0        4.447688    0.532522    0.987042
     11          1           0        3.248497    1.887803   -0.982530
     12          6           0        0.741070    2.392277    3.684973
     13          1           0        4.833130    0.377223   -0.032205
     14          1           0        1.732318    3.429694   -2.021346
     15          1           0        0.933751    1.594297    4.419572
     16          6           0       -3.476620   -0.014611   -0.098053
     17          6           0       -3.866383    0.083432   -1.497240
     18          6           0       -3.359358   -1.260539    0.509415
     19          6           0       -2.961379   -1.370493    1.838110
     20          1           0       -3.569078   -2.153112   -0.056441
     21          6           0       -2.706784   -0.216560    2.571009
     22          6           0       -2.847619    1.040600    1.985819
     23          1           0       -2.408435   -0.268669    3.606942
     24          6           0       -3.213276    1.133680    0.645682
     25          6           0       -2.629819    2.249848    2.766361
     26          1           0       -3.303611    2.106383    0.181880
     27          6           0       -2.790681   -2.689602    2.432895
     28          1           0       -2.610220    3.191172    2.195750
     29          1           0       -3.931645    1.101681   -1.910066
     30          1           0       -2.187020   -2.731823    3.353135
     31          6           0        1.511761   -2.218565   -1.767748
     32          6           0        1.694540   -1.594818   -3.070604
     33          6           0        2.529811   -2.159948   -0.821089
     34          6           0        2.388727   -2.777947    0.417185
     35          1           0        3.440834   -1.631878   -1.047340
     36          6           0        1.217406   -3.468720    0.704860
     37          6           0        0.195561   -3.555406   -0.239374
     38          1           0        1.082495   -3.968616    1.651777
     39          6           0        0.344121   -2.917725   -1.468257
     40          6           0       -1.004802   -4.328523    0.044562
     41          1           0       -0.449179   -2.974761   -2.200720
     42          6           0        3.466100   -2.686935    1.394274
     43          1           0       -1.814399   -4.248875   -0.697287
     44          1           0        0.918469   -1.806295   -3.822763
     45          1           0        3.187640   -2.871445    2.443752
     46          6           0       -0.007192    6.498539   -1.879399
     47          6           0       -0.335520    5.014095   -2.181957
     48          7           0        1.446014    6.627486   -1.914586
     49          1           0       -0.415496    6.719364   -0.876987
     50          6           0       -0.629057    7.494198   -2.877779
     51          7           0        0.104209    4.263019   -1.045802
     52          1           0        0.227819    4.737923   -3.091015
     53          6           0       -1.830986    4.712933   -2.402839
     54          1           0       -1.713785    7.354282   -2.861791
     55          6           0       -0.110354    7.269288   -4.295434
     56          6           0       -0.354316    8.935899   -2.443984
     57          1           0       -2.190967    5.328627   -3.231960
     58          6           0       -2.654815    5.013595   -1.153451
     59          6           0       -1.998318    3.247914   -2.805303
     60          1           0        0.693573    9.190307   -2.581750
     61          1           0       -0.618473    9.083634   -1.398272
     62          1           0       -0.946895    9.622517   -3.044564
     63          1           0       -0.452774    8.066558   -4.951168
     64          1           0       -0.462880    6.322720   -4.696310
     65          1           0        0.975857    7.259456   -4.286270
     66          1           0       -1.647319    2.591508   -2.011376
     67          1           0       -1.431404    3.027093   -3.707221
     68          1           0       -3.046945    3.033781   -3.003466
     69          1           0       -2.224736    4.492482   -0.302532
     70          1           0       -3.683481    4.685499   -1.292989
     71          1           0       -2.665375    6.078697   -0.938085
     72          6           0       -5.827674   -1.599131   -3.775164
     73          6           0       -4.471183   -0.854002   -3.558823
     74          7           0       -6.129411   -2.596195   -2.763716
     75          1           0       -5.763092   -2.138966   -4.728743
     76          6           0       -7.035700   -0.644911   -3.888925
     77          7           0       -4.108444   -0.945409   -2.182176
     78          1           0       -4.580195    0.197503   -3.880155
     79          6           0       -3.335395   -1.462500   -4.415568
     80          1           0       -7.915339   -1.296166   -3.845375
     81          6           0       -7.046842    0.084473   -5.230812
     82          6           0       -7.138504    0.356990   -2.740103
     83          1           0       -3.677746   -1.449270   -5.457071
     84          6           0       -3.014479   -2.899987   -4.014858
     85          6           0       -2.081657   -0.595062   -4.311512
     86          1           0       -7.074440   -0.141725   -1.776142
     87          1           0       -8.093438    0.875846   -2.789755
     88          1           0       -6.349205    1.102903   -2.794558
     89          1           0       -6.174973    0.726725   -5.336343
     90          1           0       -7.936113    0.705503   -5.311913
     91          1           0       -7.049173   -0.626097   -6.054203
     92          1           0       -1.701921   -0.590757   -3.291099
     93          1           0       -2.295442    0.432314   -4.599790
     94          1           0       -1.305131   -0.979415   -4.969858
     95          1           0       -2.141956   -3.254608   -4.561438
     96          1           0       -3.843765   -3.565151   -4.242019
     97          1           0       -2.806261   -2.945088   -2.948378
     98          6           0        4.398055   -0.621709   -5.027597
     99          6           0        2.924694   -0.326923   -4.613279
    100          7           0        5.366820   -0.035825   -4.120917
    101          1           0        4.543727   -0.165593   -6.013354
    102          6           0        4.736778   -2.122943   -5.204926
    103          7           0        2.708954   -0.886805   -3.318421
    104          1           0        2.242257   -0.751349   -5.370729
    105          6           0        2.635557    1.193811   -4.537308
    106          1           0        5.686582   -2.132163   -5.752176
    107          6           0        3.698549   -2.854407   -6.053354
    108          6           0        4.972309   -2.867649   -3.892010
    109          1           0        3.223510    1.610347   -3.711720
    110          6           0        1.156424    1.422626   -4.229564
    111          6           0        2.994568    1.923614   -5.830552
    112          1           0        5.192758   -3.912021   -4.103955
    113          1           0        4.099427   -2.823666   -3.248262
    114          1           0        5.820596   -2.441950   -3.364445
    115          1           0        4.081646   -3.829778   -6.345096
    116          1           0        3.469266   -2.294400   -6.957956
    117          1           0        2.780378   -3.011142   -5.492184
    118          1           0        2.513132    1.445832   -6.681602
    119          1           0        4.066989    1.944467   -6.005724
    120          1           0        2.647116    2.953608   -5.776398
    121          1           0        0.535920    1.009096   -5.022438
    122          1           0        0.951539    2.488688   -4.158842
    123          1           0        0.871522    0.958013   -3.287741
    124          6           0       -0.768530    3.414790    5.145450
    125          6           0       -2.264526    3.436870    4.737692
    126          7           0       -0.039487    3.352476    3.915439
    127          1           0       -0.591496    2.512856    5.757313
    128          6           0       -0.317991    4.651102    5.949397
    129          7           0       -2.500450    2.219602    4.019529
    130          1           0       -2.409316    4.312435    4.081400
    131          6           0       -3.248439    3.525660    5.918531
    132          1           0       -0.922717    4.699111    6.860338
    133          6           0       -0.491160    5.944346    5.158169
    134          6           0        1.144251    4.479207    6.361607
    135          1           0       -3.047981    4.454842    6.461134
    136          6           0       -3.107328    2.342224    6.871056
    137          6           0       -4.674986    3.592286    5.372457
    138          1           0        1.783765    4.450011    5.482104
    139          1           0        1.282734    3.555729    6.920714
    140          1           0        1.457973    5.309699    6.990033
    141          1           0       -1.542378    6.175196    5.007298
    142          1           0       -0.010432    5.847048    4.188604
    143          1           0       -0.036078    6.773126    5.696224
    144          1           0       -4.913119    2.675114    4.838393
    145          1           0       -4.787359    4.429939    4.686775
    146          1           0       -5.386287    3.716376    6.185850
    147          1           0       -3.906469    2.359985    7.608917
    148          1           0       -2.157785    2.372601    7.399032
    149          1           0       -3.168113    1.414408    6.309230
    150          6           0        6.175281   -0.777994    1.829768
    151          6           0        5.675894   -2.236884    2.011666
    152          7           0        5.024962    0.059307    2.002909
    153          1           0        6.564944   -0.696718    0.800747
    154          6           0        7.273279   -0.350267    2.818973
    155          7           0        4.640628   -2.406621    1.039700
    156          1           0        5.278850   -2.340599    3.036596
    157          6           0        6.768226   -3.302805    1.793436
    158          1           0        8.134545   -1.011569    2.681356
    159          6           0        6.801918   -0.427837    4.268136
    160          6           0        7.709128    1.076742    2.485248
    161          1           0        7.577979   -3.106319    2.503270
    162          6           0        7.322515   -3.275031    0.371703
    163          6           0        6.190207   -4.683734    2.103715
    164          1           0        6.874536    1.761180    2.619951
    165          1           0        8.049023    1.145160    1.453700
    166          1           0        8.523164    1.386868    3.136479
    167          1           0        5.863596    0.109294    4.374098
    168          1           0        7.542024    0.022825    4.925762
    169          1           0        6.655299   -1.458724    4.580019
    170          1           0        6.964111   -5.443230    2.019524
    171          1           0        5.392626   -4.923918    1.403828
    172          1           0        5.786324   -4.716996    3.113849
    173          1           0        6.504780   -3.326609   -0.342072
    174          1           0        7.981889   -4.125728    0.213958
    175          1           0        7.892263   -2.368086    0.188331
    176          6           0       -3.044811   -5.013338    2.443501
    177          6           0       -2.307637   -5.785067    1.316346
    178          7           0       -3.297949   -3.713334    1.904189
    179          1           0       -2.372461   -4.957676    3.317847
    180          6           0       -4.374971   -5.657914    2.880897
    181          7           0       -1.095591   -5.063949    1.064097
    182          1           0       -2.965500   -5.768371    0.430490
    183          6           0       -1.963257   -7.245122    1.661049
    184          1           0       -4.157002   -6.664992    3.249947
    185          6           0       -5.375924   -5.744606    1.732381
    186          6           0       -4.968279   -4.849137    4.034788
    187          1           0       -2.897614   -7.779210    1.859914
    188          6           0       -1.052858   -7.344925    2.881292
    189          6           0       -1.291750   -7.895011    0.450886
    190          1           0       -5.872224   -5.327856    4.404173
    191          1           0       -5.220175   -3.845014    3.700439
    192          1           0       -4.260321   -4.772144    4.857952
    193          1           0       -6.343384   -6.072385    2.106531
    194          1           0       -5.047886   -6.453410    0.976743
    195          1           0       -5.490495   -4.767726    1.270950
    196          1           0       -0.351531   -7.393500    0.232423
    197          1           0       -1.930918   -7.828134   -0.427390
    198          1           0       -1.088889   -8.945057    0.648925
    199          1           0       -1.572283   -7.040120    3.786034
    200          1           0       -0.185863   -6.705751    2.741013
    201          1           0       -0.716253   -8.370991    3.012577
    202          1           0        5.120748   -0.303318   -3.173830
    203          1           0        5.338448    0.975975   -4.174070
    204          1           0        1.719018    7.547137   -1.587877
    205          1           0        1.866112    5.949154   -1.287359
    206          1           0       -6.214426   -2.148564   -1.856768
    207          1           0       -5.361841   -3.252842   -2.685206
 ---------------------------------------------------------------------
 Rotational constants (GHZ):           0.0174716           0.0170440           0.0154175
 Leave Link  202 at Mon Oct 18 10:46:58 2021, MaxMem=  7864320000 cpu:               0.2 elap:               0.0
 (Enter /apps/gaussian/g16-c01-avx/g16/l301.exe)
 Standard basis: def2TZVP (5D, 7F)
 Ernie: Thresh=  0.10000D-02 Tol=  0.10000D-05 Strict=F.
 There are  3852 symmetry adapted cartesian basis functions of A   symmetry.
 There are  3417 symmetry adapted basis functions of A   symmetry.
  3417 basis functions,  5397 primitive gaussians,  3852 cartesian basis functions
   327 alpha electrons      327 beta electrons
       nuclear repulsion energy     17246.3393847554 Hartrees.
 IExCor= 1009 DFT=T Ex+Corr=PBE1PBE ExCW=0 ScaHFX=  0.250000
 ScaDFX=  0.750000  0.750000  1.000000  1.000000 ScalE2=  1.000000  1.000000
 IRadAn=      7 IRanWt=     -1 IRanGd=            0 ICorTp=0 IEmpDi=131
 NAtoms=  207 NActive=  207 NUniq=  207 SFac= 1.00D+00 NAtFMM=   60 NAOKFM=T Big=T
 Integral buffers will be    131072 words long.
 Raffenetti 2 integral format.
 Two-electron integral symmetry is turned on.
 R6Disp:  Grimme-D3 Dispersion energy=       -0.1938678801 Hartrees.
 Nuclear repulsion after empirical dispersion term =    17246.1455168754 Hartrees.
 ------------------------------------------------------------------------------
 Polarizable Continuum Model (PCM)
 =================================
 Model                : PCM.
 Atomic radii         : UFF (Universal Force Field).
 Polarization charges : Total charges.
 Charge compensation  : None.
 Solution method      : On-the-fly selection.
 Cavity type          : Scaled VdW (van der Waals Surface) (Alpha=1.100).
 Cavity algorithm     : GePol (No added spheres)
                        Default sphere list used, NSphG=  207.
                        Lebedev-Laikov grids with approx.  5.0 points / Ang**2.
                        Smoothing algorithm: York/Karplus (Gamma=1.0000).
                        Polarization charges: spherical gaussians, with
                                              point-specific exponents (IZeta= 3).
                        Self-potential: point-specific (ISelfS= 7).
                        Self-field    : sphere-specific E.n sum rule (ISelfD= 2).
 Solvent              : Chloroform, Eps=   4.711300 Eps(inf)=   2.090627
 ------------------------------------------------------------------------------
 GePol: Number of generator spheres                  =     207
 GePol: Total number of spheres                      =     207
 GePol: Number of exposed spheres                    =     207 (100.00%)
 GePol: Number of points                             =   11410
 GePol: Average weight of points                     =       0.13
 GePol: Minimum weight of points                     =   0.22D-11
 GePol: Maximum weight of points                     =    0.20577
 GePol: Number of points with low weight             =     885
 GePol: Fraction of low-weight points (<1% of avg)   =       7.76%
 GePol: Cavity surface area                          =   1450.479 Ang**2
 GePol: Cavity volume                                =   1836.636 Ang**3
 Leave Link  301 at Mon Oct 18 10:46:58 2021, MaxMem=  7864320000 cpu:               2.8 elap:               0.1
 (Enter /apps/gaussian/g16-c01-avx/g16/l302.exe)
 NPDir=0 NMtPBC=     1 NCelOv=     1 NCel=       1 NClECP=     1 NCelD=      1
         NCelK=      1 NCelE2=     1 NClLst=     1 CellRange=     0.0.
 One-electron integrals computed using PRISM.
 One-electron integral symmetry used in STVInt
   1 Symmetry operations used in ECPInt.
 ECPInt:  NShTT= 1033203 NPrTT= 3029304 LenC2=  600120 LenP2D= 1095391.
 LDataN:  DoStor=T MaxTD1= 6 Len=  172
 Number of processors reduced to  21 by ecpmxn.
 NBasis=  3417 RedAO= T EigKep=  3.49D-06  NBF=  3417
 NBsUse=  3417 1.00D-06 EigRej= -1.00D+00 NBFU=  3417
 Precomputing XC quadrature grid using
 IXCGrd= 4 IRadAn=           7 IRanWt=          -1 IRanGd=           0 AccXCQ= 0.00D+00.
 Generated NRdTot=       0 NPtTot=           0 NUsed=           0 NTot=          32
 NSgBfM=  2935  2830  2870  2915  2935 MxSgAt=   207 MxSgA2=   207.
 Leave Link  302 at Mon Oct 18 10:47:52 2021, MaxMem=  7864320000 cpu:            1714.8 elap:              53.9
 (Enter /apps/gaussian/g16-c01-avx/g16/l303.exe)
 DipDrv:  MaxL=1.
 Leave Link  303 at Mon Oct 18 10:47:54 2021, MaxMem=  7864320000 cpu:              58.0 elap:               2.1
 (Enter /apps/gaussian/g16-c01-avx/g16/l401.exe)
 ExpMin= 9.52D-02 ExpMax= 1.97D+04 ExpMxC= 6.73D+02 IAcc=3 IRadAn=         7 AccDes= 0.00D+00
 Harris functional with IExCor= 1009 and IRadAn=       7 diagonalized for initial guess.
 HarFok:  IExCor= 1009 AccDes= 0.00D+00 IRadAn=         7 IDoV= 1 UseB2=F ITyADJ=14
 ICtDFT=  3500011 ScaDFX=  1.000000  1.000000  1.000000  1.000000
 FoFCou: FMM=F IPFlag=           0 FMFlag=      100000 FMFlg1=        2001
         NFxFlg=           0 DoJE=T BraDBF=F KetDBF=T FulRan=T
         wScrn=  0.000000 ICntrl=       500 IOpCl=  0 I1Cent=   200000004 NGrid=           0
         NMat0=    1 NMatS0=      1 NMatT0=    0 NMatD0=    1 NMtDS0=    0 NMtDT0=    0
 Petite list used in FoFCou.
 Harris En= -3585.82232629359    
 JPrj=0 DoOrth=F DoCkMO=F.
 Leave Link  401 at Mon Oct 18 10:49:30 2021, MaxMem=  7864320000 cpu:            3045.9 elap:              95.8
 (Enter /apps/gaussian/g16-c01-avx/g16/l508.exe)
 Integral symmetry usage will be decided dynamically.
 Tight linear equation convergence will be used.
 RPBE1PBE wavefunction.
 Linear searches until partial convergence.
 Full line searches.
 Fock matrices will be formed incrementally for  20 cycles.
 Inv3:  Mode=1 IEnd=   390564300.
 Iteration    1 A*A^-1 deviation from unit magnitude is 9.10D-15 for  11403.
 Iteration    1 A*A^-1 deviation from orthogonality  is 5.11D-15 for  11389   8663.
 Iteration    1 A^-1*A deviation from unit magnitude is 9.55D-15 for  11403.
 Iteration    1 A^-1*A deviation from orthogonality  is 3.71D-15 for  11395  11384.
 FoFJK:  IHMeth= 1 ICntrl=       0 DoSepK=F KAlg= 0 I1Cent=           0 FoldK=F
 IRaf= 520000000 NMat=       1 IRICut=       1 DoRegI=T DoRafI=F ISym2E= 1 IDoP0=0 IntGTp=1.
 Iteration   1 EE= -3581.83510416808                                    Grad=2.325D+00 Max rot=    1.8618 deg.
 Gradient too large for Newton-Raphson -- use scaled steepest descent instead.
 Alpha Gap=     0.158 HL deriv= 1.19D-02
     ILin= 1 X=0.000D+00 Y=-3.581835104168D+03 DE= 0.00D+00 F= -1.12D+01
 RMSU=  3.48D-04    CP:  9.87D-01
     ILin= 2 X=3.000D-01 Y=-3.584025004631D+03 DE=-2.19D+00 F= -3.37D+00 OKLS=F
 RMSU=  5.52D-05    CP:  9.80D-01  1.70D+00
     ILin= 3 X=5.000D-01 Y=-3.584171018737D+03 DE=-2.34D+00 F=  1.91D+00
     Accept linear search using points  2 and  3.
     An  expanding polynomial of degree  3 produced  0.3944
 RMSU=  4.11D-08    CP:  9.84D-01  1.33D+00  3.72D-01
 Iteration   2 EE= -3584.22548326298     Delta-E=       -2.390379094901 Grad=6.622D-01 Max rot=    1.7184 deg.
 Gradient too large for Newton-Raphson -- use scaled steepest descent instead.
 Alpha Gap=     0.192 HL deriv= 9.51D-03
     ILin= 1 X=0.000D+00 Y=-3.584225483263D+03 DE= 0.00D+00 F= -4.01D-01
 RMSU=  7.35D-05    CP:  9.80D-01  1.50D+00  6.55D-01 -3.00D+00
     ILin= 2 X=3.000D-01 Y=-3.584316943756D+03 DE=-9.15D-02 F= -2.09D-01 OKLS=F
 RMSU=  6.14D-06    CP:  9.76D-01  1.68D+00  1.06D+00 -3.00D+00  2.00D+00
     ILin= 3 X=6.000D-01 Y=-3.584350667473D+03 DE=-1.25D-01 F= -1.64D-02
 RMSU=  7.56D-05    CP:  9.70D-01  2.05D+00  2.24D+00 -3.00D+00  3.00D+00
                    CP:  3.00D+00
     ILin= 4 X=1.200D+00 Y=-3.584245664610D+03 DE=-2.02D-02 F=  3.66D-01
     An  expanding polynomial of degree  4 produced  0.6256
     Minimum is close to point  3 DX=  2.56D-02 DF= -2.10D-04 DXR=  4.10D-02 DFR=  1.68D-03 which will be used.
 Iteration   3 EE= -3584.35066747332     Delta-E=       -0.125184210341 Grad=2.548D-01 Max rot=    0.6776 deg.
 Gradient too large for Newton-Raphson -- use scaled steepest descent instead.
 Alpha Gap=     0.178 HL deriv= 1.01D-02
     ILin= 1 X=0.000D+00 Y=-3.584350667473D+03 DE= 0.00D+00 F= -7.63D-02
 RMSU=  5.93D-05    CP:  9.75D-01  1.84D+00  1.58D+00 -3.00D+00  2.55D+00
                    CP:  1.58D+00 -9.48D-05
     ILin= 2 X=5.000D-01 Y=-3.584364460309D+03 DE=-1.38D-02 F=  2.12D-02 OKLS=T
     Accept linear search using points  1 and  2.
     An  expanding polynomial of degree  2 produced  0.2909
 RMSU=  4.39D-07    CP:  9.75D-01  1.77D+00  1.35D+00 -3.00D+00  2.32D+00
                    CP:  1.28D+00 -5.39D-05  5.81D-01
 Iteration   4 EE= -3584.36461865043     Delta-E=       -0.013951177109 Grad=1.530D-01 Max rot=    0.4306 deg.
 Gradient too large for Newton-Raphson -- use scaled steepest descent instead.
 Alpha Gap=     0.184 HL deriv= 2.71D-05
     ILin= 1 X=0.000D+00 Y=-3.584364618650D+03 DE= 0.00D+00 F= -1.30D-02
 RMSU=  1.87D-05    CP:  9.74D-01  1.86D+00  1.67D+00 -3.00D+00  2.82D+00
                    CP:  1.85D+00  3.15D-04  1.02D+00  1.18D+00
     ILin= 2 X=6.000D-01 Y=-3.584369832752D+03 DE=-5.21D-03 F= -4.39D-03 OKLS=F
 RMSU=  7.50D-06    CP:  9.72D-01  1.96D+00  2.09D+00 -3.00D+00  3.00D+00
                    CP:  2.87D+00  3.89D-01  1.54D+00 -1.27D+00  2.18D+00
     ILin= 3 X=1.300D+00 Y=-3.584369387250D+03 DE=-4.77D-03 F=  5.66D-03
     An  expanding polynomial of degree  3 produced  0.9056
 RMSU=  1.47D-07    CP:  9.73D-01  1.90D+00  1.85D+00 -3.00D+00  3.00D+00
                    CP:  2.25D+00  7.66D-02  1.25D+00  4.65D-01  1.51D+00
                    CP:  2.00D-01
 Iteration   5 EE= -3584.37050286837     Delta-E=       -0.005884217942 Grad=2.222D-02 Max rot=    0.0279 deg.
 Gradient too large for Newton-Raphson -- use scaled steepest descent instead.
 Alpha Gap=     0.185 HL deriv= 4.37D-04
     ILin= 1 X=0.000D+00 Y=-3.584370502868D+03 DE= 0.00D+00 F= -8.61D-04
 RMSU=  1.01D-05    CP:  9.73D-01  1.92D+00  1.95D+00 -3.00D+00  3.00D+00
                    CP:  2.53D+00  1.46D-01  1.32D+00 -7.97D-01  1.72D+00
                    CP:  3.57D-01 -3.00D+00
     ILin= 2 X=5.000D-01 Y=-3.584370720405D+03 DE=-2.18D-04 F= -8.95D-06 OKLS=T
     Reject lnstep IMin12=  1  2 Big=T Turn=F Min= 5.967D-01 FVal=-3.584370721657D+03 Lims=  0.00D+00  5.00D-01
 RMSU=  5.55D-07    CP:  9.73D-01  1.94D+00  2.07D+00 -3.00D+00  3.00D+00
                    CP:  2.82D+00  2.15D-01  1.40D+00 -2.15D+00  1.93D+00
                    CP:  5.15D-01 -3.00D+00  2.00D+00
     ILin= 3 X=1.000D+00 Y=-3.584370511844D+03 DE=-8.98D-06 F=  8.43D-04
     An  expanding polynomial of degree  3 produced  0.5053
     Minimum is close to point  2 DX=  5.27D-03 DF= -2.36D-08 DXR=  1.04D-02 DFR=  1.09D-04 which will be used.
 Iteration   6 EE= -3584.37072040454     Delta-E=       -0.000217536173 Grad=8.472D-03 Max rot=    0.0083 deg.
 SCF Done:  E(RPBE1PBE) =  -3584.37072040     a.u. after    6 cycles
            Convg  =    0.8472D-02                    14 Fock formations.
              S**2 =  0.0000                  -V/T =  2.0048
 Leave Link  508 at Mon Oct 18 12:55:59 2021, MaxMem=  7864320000 cpu:          240281.5 elap:            7589.2
 (Enter /apps/gaussian/g16-c01-avx/g16/l502.exe)
 Integral symmetry usage will be decided dynamically.
 Closed shell SCF:
 Using DIIS extrapolation, IDIIS=  1040.
 NGot=  7864320000 LenX=  7834481618 LenY=  7819639862
 Requested convergence on RMS density matrix=1.00D-08 within 128 cycles.
 Requested convergence on MAX density matrix=1.00D-06.
 Requested convergence on             energy=1.00D-06.
 No special actions if energy rises.
 Fock matrices will be formed incrementally for  20 cycles.

 Cycle   1  Pass 1  IDiag  1:
 FoFJK:  IHMeth= 1 ICntrl=       0 DoSepK=F KAlg= 0 I1Cent=           0 FoldK=F
 IRaf= 520000000 NMat=       1 IRICut=       1 DoRegI=T DoRafI=F ISym2E= 0 IDoP0=0 IntGTp=1.
 FoFCou: FMM=T IPFlag=           0 FMFlag=      100000 FMFlg1=        2001
         NFxFlg=           0 DoJE=F BraDBF=F KetDBF=F FulRan=T
         wScrn=  0.000000 ICntrl=         0 IOpCl=  0 I1Cent=           0 NGrid=           0
         NMat0=    1 NMatS0=      1 NMatT0=    0 NMatD0=    1 NMtDS0=    0 NMtDT0=    0
 Symmetry not used in FoFCou.
 FMM levels:  10  Number of levels for PrismC:   9
 E= -3584.37072040443    
 DIIS: error= 3.26D-05 at cycle   1 NSaved=   1.
 NSaved= 1 IEnMin= 1 EnMin= -3584.37072040443     IErMin= 1 ErrMin= 3.26D-05
 ErrMax= 3.26D-05  0.00D+00 EMaxC= 1.00D-01 BMatC= 3.59D-05 BMatP= 3.59D-05
 IDIUse=1 WtCom= 1.00D+00 WtEn= 0.00D+00
 Coeff-Com:  0.100D+01
 Coeff:      0.100D+01
 Gap=     0.185 Goal=   None    Shift=    0.000
 RMSDP=1.74D-05 MaxDP=4.33D-03              OVMax= 1.12D-03

 Cycle   2  Pass 1  IDiag  1:
 RMSU=  1.72D-05    CP:  1.00D+00
 E= -3584.37074473918     Delta-E=       -0.000024334742 Rises=F Damp=F
 DIIS: error= 3.00D-05 at cycle   2 NSaved=   2.
 NSaved= 2 IEnMin= 2 EnMin= -3584.37074473918     IErMin= 2 ErrMin= 3.00D-05
 ErrMax= 3.00D-05  0.00D+00 EMaxC= 1.00D-01 BMatC= 1.50D-05 BMatP= 3.59D-05
 IDIUse=1 WtCom= 1.00D+00 WtEn= 0.00D+00
 Coeff-Com:  0.348D+00 0.652D+00
 Coeff:      0.348D+00 0.652D+00
 Gap=     0.174 Goal=   None    Shift=    0.000
 RMSDP=2.70D-06 MaxDP=7.50D-04 DE=-2.43D-05 OVMax= 9.19D-04

 Cycle   3  Pass 1  IDiag  1:
 RMSU=  2.67D-06    CP:  1.00D+00  1.02D+00
 E= -3584.37075161644     Delta-E=       -0.000006877261 Rises=F Damp=F
 DIIS: error= 2.16D-05 at cycle   3 NSaved=   3.
 NSaved= 3 IEnMin= 3 EnMin= -3584.37075161644     IErMin= 3 ErrMin= 2.16D-05
 ErrMax= 2.16D-05  0.00D+00 EMaxC= 1.00D-01 BMatC= 7.48D-06 BMatP= 1.50D-05
 IDIUse=1 WtCom= 1.00D+00 WtEn= 0.00D+00
 Coeff-Com:  0.188D-02 0.411D+00 0.587D+00
 Coeff:      0.188D-02 0.411D+00 0.587D+00
 Gap=     0.174 Goal=   None    Shift=    0.000
 RMSDP=1.45D-06 MaxDP=4.81D-04 DE=-6.88D-06 OVMax= 4.72D-04

 Cycle   4  Pass 1  IDiag  1:
 RMSU=  7.07D-07    CP:  1.00D+00  1.05D+00  5.65D-01
 E= -3584.37075787439     Delta-E=       -0.000006257953 Rises=F Damp=F
 DIIS: error= 6.05D-06 at cycle   4 NSaved=   4.
 NSaved= 4 IEnMin= 4 EnMin= -3584.37075787439     IErMin= 4 ErrMin= 6.05D-06
 ErrMax= 6.05D-06  0.00D+00 EMaxC= 1.00D-01 BMatC= 6.89D-07 BMatP= 7.48D-06
 IDIUse=1 WtCom= 1.00D+00 WtEn= 0.00D+00
 Coeff-Com: -0.127D-01 0.237D+00 0.377D+00 0.399D+00
 Coeff:     -0.127D-01 0.237D+00 0.377D+00 0.399D+00
 Gap=     0.174 Goal=   None    Shift=    0.000
 RMSDP=3.91D-07 MaxDP=1.35D-04 DE=-6.26D-06 OVMax= 1.08D-04

 Cycle   5  Pass 1  IDiag  1:
 RMSU=  2.23D-07    CP:  1.00D+00  1.06D+00  6.22D-01  6.66D-01
 E= -3584.37075847959     Delta-E=       -0.000000605203 Rises=F Damp=F
 DIIS: error= 1.18D-06 at cycle   5 NSaved=   5.
 NSaved= 5 IEnMin= 5 EnMin= -3584.37075847959     IErMin= 5 ErrMin= 1.18D-06
 ErrMax= 1.18D-06  0.00D+00 EMaxC= 1.00D-01 BMatC= 1.34D-08 BMatP= 6.89D-07
 IDIUse=1 WtCom= 1.00D+00 WtEn= 0.00D+00
 Coeff-Com: -0.518D-02 0.386D-01 0.717D-01 0.151D+00 0.744D+00
 Coeff:     -0.518D-02 0.386D-01 0.717D-01 0.151D+00 0.744D+00
 Gap=     0.174 Goal=   None    Shift=    0.000
 RMSDP=7.58D-08 MaxDP=2.07D-05 DE=-6.05D-07 OVMax= 1.86D-05

 Cycle   6  Pass 1  IDiag  1:
 RMSU=  5.80D-08    CP:  1.00D+00  1.06D+00  6.19D-01  7.31D-01  1.01D+00
 E= -3584.37075848980     Delta-E=       -0.000000010208 Rises=F Damp=F
 DIIS: error= 4.63D-07 at cycle   6 NSaved=   6.
 NSaved= 6 IEnMin= 6 EnMin= -3584.37075848980     IErMin= 6 ErrMin= 4.63D-07
 ErrMax= 4.63D-07  0.00D+00 EMaxC= 1.00D-01 BMatC= 3.03D-09 BMatP= 1.34D-08
 IDIUse=1 WtCom= 1.00D+00 WtEn= 0.00D+00
 Coeff-Com: -0.221D-02 0.887D-02 0.201D-01 0.642D-01 0.432D+00 0.477D+00
 Coeff:     -0.221D-02 0.887D-02 0.201D-01 0.642D-01 0.432D+00 0.477D+00
 Gap=     0.174 Goal=   None    Shift=    0.000
 RMSDP=2.96D-08 MaxDP=8.07D-06 DE=-1.02D-08 OVMax= 9.67D-06

 Cycle   7  Pass 1  IDiag  1:
 RMSU=  1.90D-08    CP:  1.00D+00  1.06D+00  6.20D-01  7.34D-01  1.00D+00
                    CP:  7.21D-01
 E= -3584.37075849211     Delta-E=       -0.000000002306 Rises=F Damp=F
 DIIS: error= 1.42D-07 at cycle   7 NSaved=   7.
 NSaved= 7 IEnMin= 7 EnMin= -3584.37075849211     IErMin= 7 ErrMin= 1.42D-07
 ErrMax= 1.42D-07  0.00D+00 EMaxC= 1.00D-01 BMatC= 2.82D-10 BMatP= 3.03D-09
 IDIUse=1 WtCom= 1.00D+00 WtEn= 0.00D+00
 Coeff-Com: -0.433D-03-0.616D-03 0.814D-03 0.131D-01 0.128D+00 0.263D+00
 Coeff-Com:  0.596D+00
 Coeff:     -0.433D-03-0.616D-03 0.814D-03 0.131D-01 0.128D+00 0.263D+00
 Coeff:      0.596D+00
 Gap=     0.174 Goal=   None    Shift=    0.000
 RMSDP=1.19D-08 MaxDP=3.80D-06 DE=-2.31D-09 OVMax= 3.56D-06

 Cycle   8  Pass 1  IDiag  1:
 RMSU=  8.43D-09    CP:  1.00D+00  1.06D+00  6.19D-01  7.41D-01  1.02D+00
                    CP:  7.89D-01  8.19D-01
 E= -3584.37075849250     Delta-E=       -0.000000000393 Rises=F Damp=F
 DIIS: error= 5.30D-08 at cycle   8 NSaved=   8.
 NSaved= 8 IEnMin= 8 EnMin= -3584.37075849250     IErMin= 8 ErrMin= 5.30D-08
 ErrMax= 5.30D-08  0.00D+00 EMaxC= 1.00D-01 BMatC= 5.57D-11 BMatP= 2.82D-10
 IDIUse=1 WtCom= 1.00D+00 WtEn= 0.00D+00
 Coeff-Com:  0.711D-04-0.188D-02-0.277D-02-0.216D-02 0.120D-01 0.846D-01
 Coeff-Com:  0.363D+00 0.548D+00
 Coeff:      0.711D-04-0.188D-02-0.277D-02-0.216D-02 0.120D-01 0.846D-01
 Coeff:      0.363D+00 0.548D+00
 Gap=     0.174 Goal=   None    Shift=    0.000
 RMSDP=3.38D-09 MaxDP=1.03D-06 DE=-3.93D-10 OVMax= 1.28D-06

 Cycle   9  Pass 1  IDiag  1:
 RMSU=  2.49D-09    CP:  1.00D+00  1.06D+00  6.20D-01  7.42D-01  1.02D+00
                    CP:  7.90D-01  8.59D-01  7.91D-01
 E= -3584.37075849245     Delta-E=        0.000000000047 Rises=F Damp=F
 DIIS: error= 2.05D-08 at cycle   9 NSaved=   9.
 NSaved= 9 IEnMin= 8 EnMin= -3584.37075849250     IErMin= 9 ErrMin= 2.05D-08
 ErrMax= 2.05D-08  0.00D+00 EMaxC= 1.00D-01 BMatC= 2.71D-12 BMatP= 5.57D-11
 IDIUse=1 WtCom= 1.00D+00 WtEn= 0.00D+00
 Coeff-Com:  0.592D-04-0.734D-03-0.119D-02-0.202D-02-0.529D-02 0.154D-01
 Coeff-Com:  0.116D+00 0.248D+00 0.630D+00
 Coeff:      0.592D-04-0.734D-03-0.119D-02-0.202D-02-0.529D-02 0.154D-01
 Coeff:      0.116D+00 0.248D+00 0.630D+00
 Gap=     0.174 Goal=   None    Shift=    0.000
 RMSDP=1.29D-09 MaxDP=4.22D-07 DE= 4.73D-11 OVMax= 5.68D-07

 Error on total polarization charges =  0.02973
 SCF Done:  E(RPBE1PBE) =  -3584.37075849     A.U. after    9 cycles
            NFock=  9  Conv=0.13D-08     -V/T= 2.0048
 KE= 3.567190557353D+03 PE=-4.281449371492D+04 EE= 1.841678688220D+04
 Leave Link  502 at Mon Oct 18 14:08:40 2021, MaxMem=  7864320000 cpu:          138347.6 elap:            4360.5
 (Enter /apps/gaussian/g16-c01-avx/g16/l508.exe)
 QCSCF skips out because SCF is already converged.
 Leave Link  508 at Mon Oct 18 14:08:40 2021, MaxMem=  7864320000 cpu:               0.0 elap:               0.0
 (Enter /apps/gaussian/g16-c01-avx/g16/l601.exe)
 Copying SCF densities to generalized density rwf, IOpCl= 0 IROHF=0.
 Hyperfine terms turned off by default for NAtoms > 100.

 **********************************************************************

            Population analysis using the SCF Density.

 **********************************************************************

 Orbital symmetries:
       Occupied  (A) (A) (A) (A) (A) (A) (A) (A) (A) (A) (A) (A)
                 (A) (A) (A) (A) (A) (A) (A) (A) (A) (A) (A) (A)
                 (A) (A) (A) (A) (A) (A) (A) (A) (A) (A) (A) (A)
                 (A) (A) (A) (A) (A) (A) (A) (A) (A) (A) (A) (A)
                 (A) (A) (A) (A) (A) (A) (A) (A) (A) (A) (A) (A)
                 (A) (A) (A) (A) (A) (A) (A) (A) (A) (A) (A) (A)
                 (A) (A) (A) (A) (A) (A) (A) (A) (A) (A) (A) (A)
                 (A) (A) (A) (A) (A) (A) (A) (A) (A) (A) (A) (A)
                 (A) (A) (A) (A) (A) (A) (A) (A) (A) (A) (A) (A)
                 (A) (A) (A) (A) (A) (A) (A) (A) (A) (A) (A) (A)
                 (A) (A) (A) (A) (A) (A) (A) (A) (A) (A) (A) (A)
                 (A) (A) (A) (A) (A) (A) (A) (A) (A) (A) (A) (A)
                 (A) (A) (A) (A) (A) (A) (A) (A) (A) (A) (A) (A)
                 (A) (A) (A) (A) (A) (A) (A) (A) (A) (A) (A) (A)
                 (A) (A) (A) (A) (A) (A) (A) (A) (A) (A) (A) (A)
                 (A) (A) (A) (A) (A) (A) (A) (A) (A) (A) (A) (A)
                 (A) (A) (A) (A) (A) (A) (A) (A) (A) (A) (A) (A)
                 (A) (A) (A) (A) (A) (A) (A) (A) (A) (A) (A) (A)
                 (A) (A) (A) (A) (A) (A) (A) (A) (A) (A) (A) (A)
                 (A) (A) (A) (A) (A) (A) (A) (A) (A) (A) (A) (A)
                 (A) (A) (A) (A) (A) (A) (A) (A) (A) (A) (A) (A)
                 (A) (A) (A) (A) (A) (A) (A) (A) (A) (A) (A) (A)
                 (A) (A) (A) (A) (A) (A) (A) (A) (A) (A) (A) (A)
                 (A) (A) (A) (A) (A) (A) (A) (A) (A) (A) (A) (A)
                 (A) (A) (A) (A) (A) (A) (A) (A) (A) (A) (A) (A)
                 (A) (A) (A) (A) (A) (A) (A) (A) (A) (A) (A) (A)
                 (A) (A) (A) (A) (A) (A) (A) (A) (A) (A) (A) (A)
                 (A) (A) (A)
       Virtual   (A) (A) (A) (A) (A) (A) (A) (A) (A) (A) (A) (A)
                 (A) (A) (A) (A) (A) (A) (A) (A) (A) (A) (A) (A)
                 (A) (A) (A) (A) (A) (A) (A) (A) (A) (A) (A) (A)
                 (A) (A) (A) (A) (A) (A) (A) (A) (A) (A) (A) (A)
                 (A) (A) (A) (A) (A) (A) (A) (A) (A) (A) (A) (A)
                 (A) (A) (A) (A) (A) (A) (A) (A) (A) (A) (A) (A)
                 (A) (A) (A) (A) (A) (A) (A) (A) (A) (A) (A) (A)
                 (A) (A) (A) (A) (A) (A) (A) (A) (A) (A) (A) (A)
                 (A) (A) (A) (A) (A) (A) (A) (A) (A) (A) (A) (A)
                 (A) (A) (A) (A) (A) (A) (A) (A) (A) (A) (A) (A)
                 (A) (A) (A) (A) (A) (A) (A) (A) (A) (A) (A) (A)
                 (A) (A) (A) (A) (A) (A) (A) (A) (A) (A) (A) (A)
                 (A) (A) (A) (A) (A) (A) (A) (A) (A) (A) (A) (A)
                 (A) (A) (A) (A) (A) (A) (A) (A) (A) (A) (A) (A)
                 (A) (A) (A) (A) (A) (A) (A) (A) (A) (A) (A) (A)
                 (A) (A) (A) (A) (A) (A) (A) (A) (A) (A) (A) (A)
                 (A) (A) (A) (A) (A) (A) (A) (A) (A) (A) (A) (A)
                 (A) (A) (A) (A) (A) (A) (A) (A) (A) (A) (A) (A)
                 (A) (A) (A) (A) (A) (A) (A) (A) (A) (A) (A) (A)
                 (A) (A) (A) (A) (A) (A) (A) (A) (A) (A) (A) (A)
                 (A) (A) (A) (A) (A) (A) (A) (A) (A) (A) (A) (A)
                 (A) (A) (A) (A) (A) (A) (A) (A) (A) (A) (A) (A)
                 (A) (A) (A) (A) (A) (A) (A) (A) (A) (A) (A) (A)
                 (A) (A) (A) (A) (A) (A) (A) (A) (A) (A) (A) (A)
                 (A) (A) (A) (A) (A) (A) (A) (A) (A) (A) (A) (A)
                 (A) (A) (A) (A) (A) (A) (A) (A) (A) (A) (A) (A)
                 (A) (A) (A) (A) (A) (A) (A) (A) (A) (A) (A) (A)
                 (A) (A) (A) (A) (A) (A) (A) (A) (A) (A) (A) (A)
                 (A) (A) (A) (A) (A) (A) (A) (A) (A) (A) (A) (A)
                 (A) (A) (A) (A) (A) (A) (A) (A) (A) (A) (A) (A)
                 (A) (A) (A) (A) (A) (A) (A) (A) (A) (A) (A) (A)
                 (A) (A) (A) (A) (A) (A) (A) (A) (A) (A) (A) (A)
                 (A) (A) (A) (A) (A) (A) (A) (A) (A) (A) (A) (A)
                 (A) (A) (A) (A) (A) (A) (A) (A) (A) (A) (A) (A)
                 (A) (A) (A) (A) (A) (A) (A) (A) (A) (A) (A) (A)
                 (A) (A) (A) (A) (A) (A) (A) (A) (A) (A) (A) (A)
                 (A) (A) (A) (A) (A) (A) (A) (A) (A) (A) (A) (A)
                 (A) (A) (A) (A) (A) (A) (A) (A) (A) (A) (A) (A)
                 (A) (A) (A) (A) (A) (A) (A) (A) (A) (A) (A) (A)
                 (A) (A) (A) (A) (A) (A) (A) (A) (A) (A) (A) (A)
                 (A) (A) (A) (A) (A) (A) (A) (A) (A) (A) (A) (A)
                 (A) (A) (A) (A) (A) (A) (A) (A) (A) (A) (A) (A)
                 (A) (A) (A) (A) (A) (A) (A) (A) (A) (A) (A) (A)
                 (A) (A) (A) (A) (A) (A) (A) (A) (A) (A) (A) (A)
                 (A) (A) (A) (A) (A) (A) (A) (A) (A) (A) (A) (A)
                 (A) (A) (A) (A) (A) (A) (A) (A) (A) (A) (A) (A)
                 (A) (A) (A) (A) (A) (A) (A) (A) (A) (A) (A) (A)
                 (A) (A) (A) (A) (A) (A) (A) (A) (A) (A) (A) (A)
                 (A) (A) (A) (A) (A) (A) (A) (A) (A) (A) (A) (A)
                 (A) (A) (A) (A) (A) (A) (A) (A) (A) (A) (A) (A)
                 (A) (A) (A) (A) (A) (A) (A) (A) (A) (A) (A) (A)
                 (A) (A) (A) (A) (A) (A) (A) (A) (A) (A) (A) (A)
                 (A) (A) (A) (A) (A) (A) (A) (A) (A) (A) (A) (A)
                 (A) (A) (A) (A) (A) (A) (A) (A) (A) (A) (A) (A)
                 (A) (A) (A) (A) (A) (A) (A) (A) (A) (A) (A) (A)
                 (A) (A) (A) (A) (A) (A) (A) (A) (A) (A) (A) (A)
                 (A) (A) (A) (A) (A) (A) (A) (A) (A) (A) (A) (A)
                 (A) (A) (A) (A) (A) (A) (A) (A) (A) (A) (A) (A)
                 (A) (A) (A) (A) (A) (A) (A) (A) (A) (A) (A) (A)
                 (A) (A) (A) (A) (A) (A) (A) (A) (A) (A) (A) (A)
                 (A) (A) (A) (A) (A) (A) (A) (A) (A) (A) (A) (A)
                 (A) (A) (A) (A) (A) (A) (A) (A) (A) (A) (A) (A)
                 (A) (A) (A) (A) (A) (A) (A) (A) (A) (A) (A) (A)
                 (A) (A) (A) (A) (A) (A) (A) (A) (A) (A) (A) (A)
                 (A) (A) (A) (A) (A) (A) (A) (A) (A) (A) (A) (A)
                 (A) (A) (A) (A) (A) (A) (A) (A) (A) (A) (A) (A)
                 (A) (A) (A) (A) (A) (A) (A) (A) (A) (A) (A) (A)
                 (A) (A) (A) (A) (A) (A) (A) (A) (A) (A) (A) (A)
                 (A) (A) (A) (A) (A) (A) (A) (A) (A) (A) (A) (A)
                 (A) (A) (A) (A) (A) (A) (A) (A) (A) (A) (A) (A)
                 (A) (A) (A) (A) (A) (A) (A) (A) (A) (A) (A) (A)
                 (A) (A) (A) (A) (A) (A) (A) (A) (A) (A) (A) (A)
                 (A) (A) (A) (A) (A) (A) (A) (A) (A) (A) (A) (A)
                 (A) (A) (A) (A) (A) (A) (A) (A) (A) (A) (A) (A)
                 (A) (A) (A) (A) (A) (A) (A) (A) (A) (A) (A) (A)
                 (A) (A) (A) (A) (A) (A) (A) (A) (A) (A) (A) (A)
                 (A) (A) (A) (A) (A) (A) (A) (A) (A) (A) (A) (A)
                 (A) (A) (A) (A) (A) (A) (A) (A) (A) (A) (A) (A)
                 (A) (A) (A) (A) (A) (A) (A) (A) (A) (A) (A) (A)
                 (A) (A) (A) (A) (A) (A) (A) (A) (A) (A) (A) (A)
                 (A) (A) (A) (A) (A) (A) (A) (A) (A) (A) (A) (A)
                 (A) (A) (A) (A) (A) (A) (A) (A) (A) (A) (A) (A)
                 (A) (A) (A) (A) (A) (A) (A) (A) (A) (A) (A) (A)
                 (A) (A) (A) (A) (A) (A) (A) (A) (A) (A) (A) (A)
[...]
 Alpha virt. eigenvalues --    4.73300   4.73590   4.74348   4.74836   4.75281
 Alpha virt. eigenvalues --    4.75285   4.75787   4.76879   4.76931   4.77138
 Alpha virt. eigenvalues --    4.77179   4.77511   4.77606   4.78310   4.78557
 Alpha virt. eigenvalues --    4.79253   4.79436   4.79722   4.79938   4.80671
 Alpha virt. eigenvalues --    4.81198   4.81591   4.81714   4.82359   4.82626
 Alpha virt. eigenvalues --    4.82976   4.83198   4.83502   4.84148   4.84533
 Alpha virt. eigenvalues --    4.85107   4.85605   4.85805   4.86269   4.86718
 Alpha virt. eigenvalues --    4.86838   4.87346   4.87875   4.88676   4.89772
 Alpha virt. eigenvalues --    4.90253   4.90444   4.90690   4.90826   4.91109
 Alpha virt. eigenvalues --    4.91270   4.91457   4.91763   4.92177   4.92344
 Alpha virt. eigenvalues --    4.92405   4.92611   4.92864   4.93328   4.93610
 Alpha virt. eigenvalues --    4.93728   4.93840   4.94212   4.94581   4.94940
 Alpha virt. eigenvalues --    4.95294   4.95600   4.95870   4.96105   4.96367
 Alpha virt. eigenvalues --    4.96732   4.96893   4.97171   4.97637   4.97705
 Alpha virt. eigenvalues --    4.97821   4.98517   4.98521   4.98866   4.99005
 Alpha virt. eigenvalues --    4.99115   4.99337   4.99797   5.00197   5.00389
 Alpha virt. eigenvalues --    5.01533   5.02290   5.02990   5.03555   5.03782
 Alpha virt. eigenvalues --    5.04149   5.04538   5.04937   5.05255   5.05454
 Alpha virt. eigenvalues --    5.05608   5.05829   5.05921   5.06732   5.07394
 Alpha virt. eigenvalues --    5.08147   5.10682   5.11471   5.11974   5.12307
 Alpha virt. eigenvalues --    5.13917   5.14206   5.14500   5.14953   5.15445
 Alpha virt. eigenvalues --    5.15826   5.16372   5.16707   5.16896   5.17566
 Alpha virt. eigenvalues --    5.18114   5.18384   5.18755   5.19014   5.19223
 Alpha virt. eigenvalues --    5.19594   5.20585   5.20916   5.21581   5.23615
 Alpha virt. eigenvalues --    5.23817   5.24963   5.25384   5.25637   5.26290
 Alpha virt. eigenvalues --    5.26708   5.27193   5.28245   5.28299   5.28618
 Alpha virt. eigenvalues --    5.29077   5.29551   5.29776   5.29821   5.30624
 Alpha virt. eigenvalues --    5.30732   5.31681   5.32104   5.33284   5.35291
 Alpha virt. eigenvalues --    5.36458   5.36630   5.36853   5.38626   5.38944
 Alpha virt. eigenvalues --    5.39426   5.39938   5.40474   5.40653   5.40832
 Alpha virt. eigenvalues --    5.41533   5.41789   5.41980   5.42374   5.43083
 Alpha virt. eigenvalues --    5.43195   5.43641   5.43867   5.44200   5.44294
 Alpha virt. eigenvalues --    5.44684   5.44780   5.45432   5.46472   5.47308
 Alpha virt. eigenvalues --    5.48095   5.48183   5.48805   5.48902   5.49198
 Alpha virt. eigenvalues --    5.49524   5.49772   5.50255   5.51449   5.51523
 Alpha virt. eigenvalues --    5.52059   5.52258   5.52859   5.53197   5.56260
 Alpha virt. eigenvalues --    5.56978   5.57227   5.58547   5.58902   5.59785
 Alpha virt. eigenvalues --    5.61057   5.61276   5.61798   5.64602   5.64898
 Alpha virt. eigenvalues --    5.66383   5.66883   5.67227   5.67710   5.70143
 Alpha virt. eigenvalues --    5.71037   5.71154   5.74334   5.75196   5.75963
 Alpha virt. eigenvalues --    5.76240   5.77174   5.77666   5.78542   5.79610
 Alpha virt. eigenvalues --    5.79700   5.82304   5.82412   5.82609   5.86528
 Alpha virt. eigenvalues --    5.87130   5.87484   5.91687   5.95017   5.96262
 Alpha virt. eigenvalues --    5.97181   5.97474   5.98204   6.01903   6.02097
 Alpha virt. eigenvalues --    6.02457   6.06927   6.07622   6.08018   6.10310
 Alpha virt. eigenvalues --    6.10756   6.11098   6.11613   6.11818   6.12544
 Alpha virt. eigenvalues --    6.13831   6.13970   6.14125  22.45956  22.47958
 Alpha virt. eigenvalues --   22.48836  22.49482  22.49838  22.50310  22.50504
 Alpha virt. eigenvalues --   22.50730  22.50866  22.50942  22.51312  22.51423
 Alpha virt. eigenvalues --   22.51662  22.51764  22.51887  22.52062  22.52834
 Alpha virt. eigenvalues --   22.52851  22.52928  22.54196  22.55504  22.56652
 Alpha virt. eigenvalues --   22.57891  22.58466  22.59634  22.60840  22.61519
 Alpha virt. eigenvalues --   22.72880  22.73058  22.73203  22.73938  22.75886
 Alpha virt. eigenvalues --   22.77252  22.77697  22.78513  22.79808  22.80062
 Alpha virt. eigenvalues --   22.80511  22.80832  22.83778  22.86500  22.87384
 Alpha virt. eigenvalues --   22.88239  22.88460  22.89694  22.91122  22.91579
 Alpha virt. eigenvalues --   22.92260  22.94464  22.95386  22.95802  22.96121
 Alpha virt. eigenvalues --   22.96587  22.97149  22.97502  22.98051  22.99602
 Alpha virt. eigenvalues --   23.06477  23.09545  23.09974  23.15737  23.15761
 Alpha virt. eigenvalues --   23.16780  23.16945  23.17494  23.17869  23.18837
 Alpha virt. eigenvalues --   23.19028  23.19234  23.24676  23.25051  23.25603
 Alpha virt. eigenvalues --   23.53014  23.53939  23.54962  32.19410  32.28453
 Alpha virt. eigenvalues --   32.31296  32.80564  32.81676  32.85325  32.91761
 Alpha virt. eigenvalues --   32.93676  32.94928  32.95437  32.96734  32.97115
          Condensed to atoms (all electrons):
 Mulliken charges:
               1
     1  C    0.424638
     2  C   -0.283429
     3  C   -0.369685
     4  C    0.418406
     5  H    0.136919
     6  C   -0.375320
     7  C    0.368417
     8  H    0.133240
     9  C   -0.350522
    10  C   -0.211527
    11  H    0.135172
    12  C   -0.189807
    13  H    0.099636
    14  H    0.113771
    15  H    0.087534
    16  C    0.429087
    17  C   -0.266239
    18  C   -0.374156
    19  C    0.422345
    20  H    0.137035
    21  C   -0.377738
    22  C    0.359356
    23  H    0.130659
    24  C   -0.357308
    25  C   -0.200191
    26  H    0.145310
    27  C   -0.193132
    28  H    0.103537
    29  H    0.092536
    30  H    0.087215
    31  C    0.441832
    32  C   -0.283934
    33  C   -0.368348
    34  C    0.413912
    35  H    0.149822
    36  C   -0.379374
    37  C    0.362263
    38  H    0.132739
    39  C   -0.341854
    40  C   -0.196571
    41  H    0.125864
    42  C   -0.188344
    43  H    0.101898
    44  H    0.103986
    45  H    0.088056
    46  C    0.070735
    47  C    0.085540
    48  N   -0.573212
    49  H    0.112969
    50  C   -0.053935
    51  N   -0.244338
    52  H    0.086673
    53  C    0.042727
    54  H    0.088288
    55  C   -0.397644
    56  C   -0.423870
    57  H    0.091112
    58  C   -0.417098
    59  C   -0.486545
    60  H    0.124402
    61  H    0.128661
    62  H    0.131062
    63  H    0.124623
    64  H    0.124081
    65  H    0.123755
    66  H    0.142120
    67  H    0.130138
    68  H    0.129614
    69  H    0.122963
    70  H    0.120398
    71  H    0.133881
    72  C    0.038042
    73  C    0.037231
    74  N   -0.502718
    75  H    0.092648
    76  C   -0.028897
    77  N   -0.227399
    78  H    0.070136
    79  C    0.078192
    80  H    0.076425
    81  C   -0.390417
    82  C   -0.388570
    83  H    0.083731
    84  C   -0.454408
    85  C   -0.486281
    86  H    0.122370
    87  H    0.136206
    88  H    0.107012
    89  H    0.114017
    90  H    0.127854
    91  H    0.125802
    92  H    0.139082
    93  H    0.128107
    94  H    0.129898
    95  H    0.124443
    96  H    0.147169
    97  H    0.129260
    98  C    0.102257
    99  C   -0.043822
   100  N   -0.551017
   101  H    0.111836
   102  C    0.063086
   103  N   -0.215886
   104  H    0.078368
   105  C   -0.003942
   106  H    0.069700
   107  C   -0.416866
   108  C   -0.452223
   109  H    0.069612
   110  C   -0.468947
   111  C   -0.400138
   112  H    0.118090
   113  H    0.131798
   114  H    0.131397
   115  H    0.130685
   116  H    0.125066
   117  H    0.121197
   118  H    0.125595
   119  H    0.136741
   120  H    0.131808
   121  H    0.121837
   122  H    0.130303
   123  H    0.150372
   124  C    0.087130
   125  C    0.110496
   126  N   -0.250609
   127  H    0.087767
   128  C   -0.023046
   129  N   -0.255138
   130  H    0.084921
   131  C   -0.011444
   132  H    0.090444
   133  C   -0.423293
   134  C   -0.395036
   135  H    0.089217
   136  C   -0.423829
   137  C   -0.398304
   138  H    0.127802
   139  H    0.118676
   140  H    0.129378
   141  H    0.127283
   142  H    0.134774
   143  H    0.124285
   144  H    0.128961
   145  H    0.118583
   146  H    0.127778
   147  H    0.123823
   148  H    0.126529
   149  H    0.133914
   150  C    0.105202
   151  C    0.086877
   152  N   -0.255577
   153  H    0.085911
   154  C   -0.004118
   155  N   -0.254502
   156  H    0.087445
   157  C   -0.017416
   158  H    0.087827
   159  C   -0.424860
   160  C   -0.401356
   161  H    0.088404
   162  C   -0.430672
   163  C   -0.395020
   164  H    0.128335
   165  H    0.119434
   166  H    0.127437
   167  H    0.133754
   168  H    0.123526
   169  H    0.126243
   170  H    0.128782
   171  H    0.127530
   172  H    0.118407
   173  H    0.142733
   174  H    0.123557
   175  H    0.126345
   176  C    0.090453
   177  C    0.098249
   178  N   -0.249373
   179  H    0.088204
   180  C   -0.024384
   181  N   -0.254424
   182  H    0.086310
   183  C   -0.008920
   184  H    0.090739
   185  C   -0.423587
   186  C   -0.394381
   187  H    0.089791
   188  C   -0.424001
   189  C   -0.399502
   190  H    0.129065
   191  H    0.127634
   192  H    0.118526
   193  H    0.124721
   194  H    0.127487
   195  H    0.135396
   196  H    0.129281
   197  H    0.118775
   198  H    0.127641
   199  H    0.126589
   200  H    0.134112
   201  H    0.123785
   202  H    0.236244
   203  H    0.223152
   204  H    0.227193
   205  H    0.225767
   206  H    0.222829
   207  H    0.220680
 Sum of Mulliken charges =  -0.00000
 Mulliken charges with hydrogens summed into heavy atoms:
               1
     1  C    0.424638
     2  C   -0.169658
     3  C   -0.232766
     4  C    0.418406
     6  C   -0.242080
     7  C    0.368417
     9  C   -0.215351
    10  C   -0.111891
    12  C   -0.102273
    16  C    0.429087
    17  C   -0.173703
    18  C   -0.237121
    19  C    0.422345
    21  C   -0.247078
    22  C    0.359356
    24  C   -0.211998
    25  C   -0.096654
    27  C   -0.105917
    31  C    0.441832
    32  C   -0.179948
    33  C   -0.218525
    34  C    0.413912
    36  C   -0.246635
    37  C    0.362263
    39  C   -0.215990
    40  C   -0.094674
    42  C   -0.100289
    46  C    0.183705
    47  C    0.172214
    48  N   -0.120252
    50  C    0.034353
    51  N   -0.244338
    53  C    0.133839
    55  C   -0.025185
    56  C   -0.039745
    58  C   -0.039855
    59  C   -0.084672
    72  C    0.130690
    73  C    0.107367
    74  N   -0.059209
    76  C    0.047528
    77  N   -0.227399
    79  C    0.161923
    81  C   -0.022745
    82  C   -0.022981
    84  C   -0.053535
    85  C   -0.089194
    98  C    0.214093
    99  C    0.034546
   100  N   -0.091621
   102  C    0.132786
   103  N   -0.215886
   105  C    0.065670
   107  C   -0.039918
   108  C   -0.070938
   110  C   -0.066435
   111  C   -0.005994
   124  C    0.174897
   125  C    0.195417
   126  N   -0.250609
   128  C    0.067398
   129  N   -0.255138
   131  C    0.077773
   133  C   -0.036950
   134  C   -0.019179
   136  C   -0.039563
   137  C   -0.022981
   150  C    0.191114
   151  C    0.174322
   152  N   -0.255577
   154  C    0.083708
   155  N   -0.254502
   157  C    0.070988
   159  C   -0.041337
   160  C   -0.026149
   162  C   -0.038038
   163  C   -0.020301
   176  C    0.178657
   177  C    0.184559
   178  N   -0.249373
   180  C    0.066355
   181  N   -0.254424
   183  C    0.080871
   185  C   -0.035983
   186  C   -0.019156
   188  C   -0.039515
   189  C   -0.023805
 Electronic spatial extent (au):  <R**2>=          93647.2550
 Charge=             -0.0000 electrons
 Dipole moment (field-independent basis, Debye):
    X=             -0.5002    Y=              2.3619    Z=             -0.1248  Tot=              2.4175
 Quadrupole moment (field-independent basis, Debye-Ang):
   XX=           -570.1603   YY=           -533.3527   ZZ=           -522.0224
   XY=            -10.5096   XZ=             10.0339   YZ=             -8.2709
 Traceless Quadrupole moment (field-independent basis, Debye-Ang):
   XX=            -28.3152   YY=              8.4924   ZZ=             19.8227
   XY=            -10.5096   XZ=             10.0339   YZ=             -8.2709
 Octapole moment (field-independent basis, Debye-Ang**2):
  XXX=            115.8707  YYY=             61.1543  ZZZ=              9.3238  XYY=            -44.0225
  XXY=            103.3545  XXZ=            122.1563  XZZ=            -40.9540  YZZ=              4.9513
  YYZ=             64.9598  XYZ=             13.0814
 Hexadecapole moment (field-independent basis, Debye-Ang**3):
 XXXX=         -48756.8201 YYYY=         -44557.4158 ZZZZ=         -36408.9820 XXXY=           -793.2761
 XXXZ=            505.8471 YYYX=            142.6006 YYYZ=           -131.0395 ZZZX=             26.2522
 ZZZY=            408.1663 XXYY=         -15562.4848 XXZZ=         -14396.5526 YYZZ=         -13628.2777
 XXYZ=           -581.2047 YYXZ=           -144.5739 ZZXY=           -140.7366
 N-N= 1.724614551688D+04 E-N=-4.281449375727D+04  KE= 3.567190557353D+03
 Leave Link  601 at Mon Oct 18 14:08:43 2021, MaxMem=  7864320000 cpu:              82.6 elap:               3.3
 (Enter /apps/gaussian/g16-c01-avx/g16/l9999.exe)
 Unable to Open any file for archive entry.
 1\1\GINC-CX3-6-2\SP\RPBE1PBE\def2TZVP\C75H120N12\ATARZIA\18-Oct-2021\0
 \\#P PBE1PBE/Def2TZVP SP SCF=(YQC,MaxCycle=900) int=(Grid=Superfinegri
 d) EmpiricalDispersion=GD3 SCRF=(PCM,Solvent=Chloroform)\\_3_alde1_6_a
 mi1_2_opt_cfm\\0,1\C,0,-1.2202,-0.1559,-3.184\C,0,-0.0295,0.0051,-4.00
 8\C,0,-1.6376,-1.4241,-2.7909\C,0,-2.7747,-1.5864,-2.0053\H,0,-1.0712,
 -2.2891,-3.0939\C,0,-3.5133,-0.4679,-1.6346\C,0,-3.1246,0.8065,-2.0426
 \H,0,-4.4084,-0.5635,-1.0391\C,0,-1.9652,0.9565,-2.7986\C,0,-3.9233,1.
 9719,-1.6939\H,0,-1.6452,1.9459,-3.0952\C,0,-3.1767,-2.9172,-1.5681\H,
 0,-3.4759,2.9477,-1.9372\H,0,0.2009,1.0334,-4.3259\H,0,-3.8549,-2.9542
 ,-0.7008\C,0,2.413,-2.1944,0.907\C,0,3.6827,-1.57,0.5646\C,0,1.8661,-2
 .0177,2.1738\C,0,0.6403,-2.586,2.506\H,0,2.3913,-1.4259,2.9051\C,0,-0.
 028,-3.3626,1.5659\C,0,0.52,-3.5735,0.3018\H,0,-0.9744,-3.8268,1.7977\
 C,0,1.7307,-2.9702,-0.0277\C,0,-0.1547,-4.427,-0.6653\H,0,2.1494,-3.11
 42,-1.0143\C,0,0.0628,-2.3374,3.8204\H,0,0.2615,-4.418,-1.6845\H,0,4.0
 488,-1.7494,-0.4578\H,0,-1.0163,-2.5337,3.9206\C,0,0.025,2.9845,0.9824
 \C,0,0.8372,3.7038,0.0114\C,0,-1.362,2.997,0.8724\C,0,-2.1576,2.3444,1
 .8085\H,0,-1.829,3.5193,0.0544\C,0,-1.5552,1.6797,2.8702\C,0,-0.168,1.
 6744,3.0077\H,0,-2.1453,1.1742,3.6192\C,0,0.6162,2.3178,2.0538\C,0,0.4
 553,1.0264,4.1526\H,0,1.693,2.3092,2.1513\C,0,-3.6071,2.3622,1.659\H,0
 ,1.5539,0.9588,4.1273\H,0,1.9117,3.7809,0.24\H,0,-4.1604,1.5713,2.1894
 \C,0,1.4076,-1.4047,-6.5761\C,0,1.8137,-0.8245,-5.1972\N,0,0.4125,-0.4
 991,-7.1412\H,0,0.99,-2.4104,-6.3904\C,0,2.5805,-1.5503,-7.565\N,0,0.6
 779,-0.9838,-4.3411\H,0,2.0544,0.242,-5.3542\C,0,3.0156,-1.5211,-4.529
 3\H,0,3.3294,-2.2021,-7.1059\C,0,3.2148,-0.2007,-7.89\C,0,2.1179,-2.23
 36,-8.8539\H,0,3.8738,-1.457,-5.2042\C,0,2.7176,-2.9872,-4.2263\C,0,3.
 3797,-0.7799,-3.2431\H,0,1.4844,-1.5717,-9.439\H,0,1.5661,-3.1457,-8.6
 332\H,0,2.9797,-2.4967,-9.4633\H,0,3.9425,-0.3112,-8.6907\H,0,3.7221,0
 .2131,-7.0226\H,0,2.443,0.4955,-8.2057\H,0,2.5517,-0.8105,-2.5375\H,0,
 3.6143,0.2621,-3.45\H,0,4.2531,-1.2389,-2.7835\H,0,1.7971,-3.0583,-3.6
 534\H,0,3.5323,-3.4261,-3.6528\H,0,2.6008,-3.5606,-5.142\C,0,6.6349,-0
 .6697,2.0945\C,0,5.546,-0.237,1.0605\N,0,6.1032,-1.1258,3.3663\H,0,7.2
 514,0.2107,2.3175\C,0,7.592,-1.7535,1.554\N,0,4.3115,-0.8667,1.399\H,0
 ,5.8789,-0.5176,0.045\C,0,5.3375,1.2962,1.0494\H,0,8.1632,-2.087,2.427
 1\C,0,8.5713,-1.1756,0.5343\C,0,6.8763,-2.9708,0.9708\H,0,6.3178,1.751
 3,0.865\C,0,4.7887,1.8155,2.3757\C,0,4.4039,1.6873,-0.0954\H,0,6.134,-
 3.36,1.6633\H,0,7.598,-3.7597,0.7699\H,0,6.379,-2.7261,0.0353\H,0,8.04
 93,-0.803,-0.3446\H,0,9.2718,-1.9426,0.2117\H,0,9.138,-0.355,0.9683\H,
 0,3.4127,1.263,0.0561\H,0,4.7865,1.3274,-1.0485\H,0,4.3137,2.7703,-0.1
 512\H,0,4.5524,2.8753,2.2933\H,0,5.5161,1.6968,3.1748\H,0,3.8843,1.270
 6,2.6363\C,0,0.3474,6.3312,-2.2118\C,0,1.0991,4.9955,-1.9286\N,0,-0.96
 24,6.1273,-2.8006\H,0,0.9563,6.8865,-2.9342\C,0,0.1944,7.2651,-0.9853\
 N,0,0.3175,4.2347,-1.0083\H,0,2.1057,5.2214,-1.5345\C,0,1.2896,4.1519,
 -3.2147\H,0,-0.0866,8.2369,-1.4076\C,0,1.5079,7.4445,-0.2268\C,0,-0.92
 28,6.8565,-0.0268\H,0,0.301,3.8239,-3.5551\C,0,2.1192,2.9085,-2.8975\C
 ,0,1.9737,4.9358,-4.3334\H,0,-0.9557,7.5543,0.8076\H,0,-0.7635,5.8572,
 0.366\H,0,-1.8831,6.8869,-0.5328\H,0,1.4189,8.2714,0.4743\H,0,2.3261,7
 .6642,-0.91\H,0,1.7523,6.5503,0.3417\H,0,2.9037,5.3734,-3.9757\H,0,1.3
 432,5.7313,-4.7218\H,0,2.2076,4.2652,-5.1581\H,0,3.1076,3.193,-2.5414\
 H,0,2.2419,2.3043,-3.7938\H,0,1.6393,2.2958,-2.137\C,0,-3.1221,-5.2507
 ,-1.6641\C,0,-1.7786,-5.9548,-1.3416\N,0,-2.7647,-3.9535,-2.1518\H,0,-
 3.705,-5.176,-0.7293\C,0,-3.9766,-5.9807,-2.7199\N,0,-1.1356,-5.1505,-
 0.3452\H,0,-1.1876,-5.9692,-2.2737\C,0,-1.9209,-7.3943,-0.8144\H,0,-4.
 1956,-6.9838,-2.3409\C,0,-3.2587,-6.0922,-4.0618\C,0,-5.3035,-5.2413,-
 2.8938\H,0,-2.4221,-7.9915,-1.5826\C,0,-2.7277,-7.4527,0.4792\C,0,-0.5
 27,-7.9812,-0.5902\H,0,-5.1308,-4.2439,-3.2922\H,0,-5.8224,-5.1483,-1.
 9416\H,0,-5.948,-5.7823,-3.583\H,0,-2.4051,-6.7617,-3.9966\H,0,-2.9121
 ,-5.1108,-4.3738\H,0,-3.9387,-6.4826,-4.8159\H,0,-0.005,-7.4186,0.1806
 \H,0,0.061,-7.9404,-1.5051\H,0,-0.5997,-9.0195,-0.2746\H,0,-2.6878,-8.
 4556,0.8987\H,0,-3.7702,-7.1994,0.305\H,0,-2.3112,-6.7537,1.199\C,0,-5
 .773,3.0559,-0.7907\C,0,-5.5894,3.1994,0.7444\N,0,-5.0632,1.8685,-1.16
 56\H,0,-5.3153,3.9462,-1.2546\C,0,-7.2366,2.9444,-1.2517\N,0,-4.1753,3
 .2368,0.9547\H,0,-6.0396,2.316,1.23\C,0,-6.2325,4.4704,1.3343\H,0,-7.7
 633,3.8524,-0.9416\C,0,-7.9347,1.7256,-0.6555\C,0,-7.2686,2.872,-2.778
 6\H,0,-7.3011,4.4486,1.0981\C,0,-5.6136,5.7445,0.766\C,0,-6.0825,4.448
 3,2.8556\H,0,-6.758,1.9738,-3.1187\H,0,-6.7744,3.7371,-3.2164\H,0,-8.2
 956,2.8458,-3.1357\H,0,-7.3346,0.8384,-0.837\H,0,-8.9104,1.5915,-1.117
 4\H,0,-8.0803,1.8398,0.4156\H,0,-6.5882,5.3045,3.2961\H,0,-5.0307,4.48
 89,3.1308\H,0,-6.5155,3.542,3.2748\H,0,-4.5327,5.7058,0.8708\H,0,-5.98
 89,6.6116,1.3051\H,0,-5.8605,5.8679,-0.285\C,0,0.172,-1.5785,6.0287\C,
 0,0.4317,-0.0596,6.2157\N,0,0.7677,-1.9087,4.7713\H,0,-0.9203,-1.7398,
 6.0064\C,0,0.7813,-2.4616,7.1355\N,0,-0.2237,0.596,5.1233\H,0,1.5239,0
 .0896,6.1643\C,0,-0.0945,0.5204,7.5408\H,0,0.339,-2.1599,8.0901\C,0,2.
 2987,-2.32,7.2127\C,0,0.4023,-3.9203,6.8783\H,0,0.4082,0.0034,8.3641\C
 ,0,-1.604,0.3483,7.6807\C,0,0.2736,2.0026,7.614\H,0,0.7641,-4.5513,7.6
 868\H,0,0.8438,-4.2653,5.9458\H,0,-0.6782,-4.0338,6.8122\H,0,2.7059,-3
 .0553,7.9033\H,0,2.5847,-1.332,7.5635\H,0,2.7329,-2.4828,6.2302\H,0,-0
 .2202,2.5492,6.8136\H,0,1.3486,2.1388,7.513\H,0,-0.0379,2.4235,8.5673\
 H,0,-1.8718,-0.6986,7.7971\H,0,-2.098,0.7417,6.7969\H,0,-1.9617,0.8892
 ,8.5541\H,0,-1.4681,5.4573,-2.231\H,0,-0.8776,5.7392,-3.7331\H,0,0.013
 1,-0.9048,-7.9796\H,0,-0.3465,-0.3676,-6.4804\H,0,5.5317,-1.952,3.2216
 \H,0,5.4893,-0.4211,3.7575\\Version=ES64L-G16RevC.01\State=1-A\HF=-358
 4.3707585\RMSD=1.287e-09\Dipole=0.1983362,-0.4660262,-0.8050713\Quadru
 pole=4.9610605,-6.8610437,1.8999832,12.3533541,-16.1992226,7.2088359\P
 G=C01 [X(C75H120N12)]\\@
 The archive entry for this job was punched.


     SCHOPENHAUER'S LAW OF ENTROPY
 IF YOU PUT A SPOONFUL OF WINE IN A BARREL FULL
 OF SEWAGE, YOU GET SEWAGE.
 IF YOU PUT A SPOONFUL OF SEWAGE IN A BARREL FULL
 OF WINE, YOU GET SEWAGE.
 Job cpu time:       4 days 10 hours 32 minutes 31.9 seconds.
 Elapsed time:       0 days  3 hours 21 minutes 45.6 seconds.
 File lengths (MBytes):  RWF=   8824 Int=      0 D2E=      0 Chk=    688 Scr=     16
 Normal termination of Gaussian 16 at Mon Oct 18 14:08:44 2021.
