 Entering Gaussian System, Link 0=g16
 Initial command:
 /apps/gaussian/g16-c01-avx/g16/l1.exe "/rds/general/ephemeral/user/atarzia/ephemeral/Gau-289653.inp" -scrdir="/rds/general/ephemeral/user/atarzia/ephemeral/"
 Entering Link 1 = /apps/gaussian/g16-c01-avx/g16/l1.exe PID=    289654.
  
 Copyright (c) 1988-2019, Gaussian, Inc.  All Rights Reserved.
  
 This is part of the Gaussian(R) 16 program.  It is based on
 the Gaussian(R) 09 system (copyright 2009, Gaussian, Inc.),
 the Gaussian(R) 03 system (copyright 2003, Gaussian, Inc.),
 the Gaussian(R) 98 system (copyright 1998, Gaussian, Inc.),
 the Gaussian(R) 94 system (copyright 1995, Gaussian, Inc.),
 the Gaussian 92(TM) system (copyright 1992, Gaussian, Inc.),
 the Gaussian 90(TM) system (copyright 1990, Gaussian, Inc.),
 the Gaussian 88(TM) system (copyright 1988, Gaussian, Inc.),
 the Gaussian 86(TM) system (copyright 1986, Carnegie Mellon
 University), and the Gaussian 82(TM) system (copyright 1983,
 Carnegie Mellon University). Gaussian is a federally registered
 trademark of Gaussian, Inc.
  
 This software contains proprietary and confidential information,
 including trade secrets, belonging to Gaussian, Inc.
  
 This software is provided under written license and may be
 used, copied, transmitted, or stored only in accord with that
 written license.
  
 The following legend is applicable only to US Government
 contracts under FAR:
  
                    RESTRICTED RIGHTS LEGEND
  
 Use, reproduction and disclosure by the US Government is
 subject to restrictions as set forth in subparagraphs (a)
 and (c) of the Commercial Computer Software - Restricted
 Rights clause in FAR 52.227-19.
  
 Gaussian, Inc.
 340 Quinnipiac St., Bldg. 40, Wallingford CT 06492
  
  
 ---------------------------------------------------------------
 Warning -- This program may not be used in any manner that
 competes with the business of Gaussian, Inc. or will provide
 assistance to any competitor of Gaussian, Inc.  The licensee
 of this program is prohibited from giving any competitor of
 Gaussian, Inc. access to this program.  By using this program,
 the user acknowledges that Gaussian, Inc. is engaged in the
 business of creating and licensing software in the field of
 computational chemistry and represents and warrants to the
 licensee that it is not a competitor of Gaussian, Inc. and that
 it will not use this program in any manner prohibited above.
 ---------------------------------------------------------------
  

 Cite this work as:
 Gaussian 16, Revision C.01,
 M. J. Frisch, G. W. Trucks, H. B. Schlegel, G. E. Scuseria, 
 M. A. Robb, J. R. Cheeseman, G. Scalmani, V. Barone, 
 G. A. Petersson, H. Nakatsuji, X. Li, M. Caricato, A. V. Marenich, 
 J. Bloino, B. G. Janesko, R. Gomperts, B. Mennucci, H. P. Hratchian, 
 J. V. Ortiz, A. F. Izmaylov, J. L. Sonnenberg, D. Williams-Young, 
 F. Ding, F. Lipparini, F. Egidi, J. Goings, B. Peng, A. Petrone, 
 T. Henderson, D. Ranasinghe, V. G. Zakrzewski, J. Gao, N. Rega, 
 G. Zheng, W. Liang, M. Hada, M. Ehara, K. Toyota, R. Fukuda, 
 J. Hasegawa, M. Ishida, T. Nakajima, Y. Honda, O. Kitao, H. Nakai, 
 T. Vreven, K. Throssell, J. A. Montgomery, Jr., J. E. Peralta, 
 F. Ogliaro, M. J. Bearpark, J. J. Heyd, E. N. Brothers, K. N. Kudin, 
 V. N. Staroverov, T. A. Keith, R. Kobayashi, J. Normand, 
 K. Raghavachari, A. P. Rendell, J. C. Burant, S. S. Iyengar, 
 J. Tomasi, M. Cossi, J. M. Millam, M. Klene, C. Adamo, R. Cammi, 
 J. W. Ochterski, R. L. Martin, K. Morokuma, O. Farkas, 
 J. B. Foresman, and D. J. Fox, Gaussian, Inc., Wallingford CT, 2019.
 
 ******************************************
 Gaussian 16:  ES64L-G16RevC.01  3-Jul-2019
                18-Oct-2021 
 ******************************************
 %chk=_3_alde1_5_ami3_2_opt_cfm.chk
 %mem=60000mb
 %nprocshared=32
 Will use up to   32 processors via shared memory.
 ----------------------------------------------------------------------
 #P PBE1PBE/Def2TZVP SP SCF=(YQC,MaxCycle=900) int=(Grid=Superfinegrid)
  EmpiricalDispersion=GD3 SCRF=(PCM,Solvent=Chloroform)
 ----------------------------------------------------------------------
 1/38=1,172=1/1;
 2/12=2,17=6,18=5,40=1/2;
 3/5=44,7=101,11=2,25=1,30=1,70=2201,72=7,74=-13,75=-7,124=31/1,2,3;
 4//1;
 5/5=2,7=900,8=4,13=1,38=1,53=7/8,2,8;
 6/7=2,8=2,9=2,10=2,28=1/1;
 99/5=1,9=1/99;
 Leave Link    1 at Mon Oct 18 20:54:40 2021, MaxMem=  7864320000 cpu:               5.0 elap:               0.2
 (Enter /apps/gaussian/g16-c01-avx/g16/l101.exe)
 -------------------------
 _3_alde1_5_ami3_2_opt_cfm
 -------------------------
 Symbolic Z-matrix:
 Charge =  0 Multiplicity = 1
 C                    -3.3192   -1.4255   -0.146 
 C                    -3.3564   -1.1076    1.272 
 C                    -2.5731   -2.4936   -0.6411 
 C                    -2.492    -2.7238   -2.0107 
 H                    -2.0589   -3.1312    0.0618 
 C                    -3.1191   -1.844    -2.8936 
 C                    -3.8664   -0.775    -2.414 
 H                    -3.0129   -2.0216   -3.9529 
 C                    -3.9863   -0.5927   -1.0375 
 C                    -4.4386    0.2077   -3.3247 
 H                    -4.5811    0.2349   -0.6845 
 C                    -1.7324   -3.8594   -2.5106 
 H                    -4.0123    0.2154   -4.3404 
 H                    -4.0515   -0.2998    1.5473 
 H                    -1.2664   -4.4917   -1.7401 
 C                     2.0145   -2.0023    0.2643 
 C                     1.7556   -2.6109    1.5636 
 C                     2.6454   -0.7629    0.1638 
 C                     2.9003   -0.1917   -1.0779 
 H                     2.9384   -0.259     1.073 
 C                     2.4923   -0.8577   -2.2332 
 C                     1.8652   -2.095    -2.1495 
 H                     2.6861   -0.3928   -3.1876 
 C                     1.6381   -2.6653   -0.8978 
 C                     1.4148   -2.7776   -3.3546 
 H                     1.1551   -3.6293   -0.8551 
 C                     3.5561    1.1043   -1.1539 
 H                     1.3266   -2.1496   -4.2549 
 H                     1.28     -3.5971    1.5208 
 H                     3.7243    1.604    -0.1869 
 C                    -0.9369    1.9432    0.5275 
 C                    -0.712     1.0674    1.6704 
 C                    -2.2373    2.2615    0.1409 
 C                    -2.4828    2.9321   -1.0524 
 H                    -3.0502    1.9333    0.7693 
 C                    -1.4077    3.327    -1.8469 
 C                    -0.1027    3.0806   -1.4372 
 H                    -1.6145    3.829    -2.7797 
 C                     0.1264    2.3752   -0.2567 
 C                     1.0246    3.4638   -2.2789 
 H                     1.145     2.1536    0.0214 
 C                    -3.8562    3.1067   -1.4967 
 H                     0.8128    3.5242   -3.3586 
 H                    -4.6252    2.8251   -0.7613 
 C                    -1.402    -0.14      3.5426 
 C                    -2.6042   -1.1128    3.4536 
 N                    -1.6002    0.8605    2.541 
 N                    -2.611    -1.6582    2.1297 
 C                     3.2845   -2.5802    4.6294 
 C                     1.889    -2.5637    3.9423 
 N                     3.9818   -1.3125    4.561 
 N                     2.0669   -2.0177    2.6328 
 C                    -0.785    -5.1979   -4.1537 
 C                     0.5989   -4.6175   -4.5325 
 N                    -1.6161   -4.1085   -3.7423 
 N                     1.1324   -4.0059   -3.3578 
 C                    -5.7202    2.0887   -3.8318 
 C                    -5.5331    3.4167   -3.0559 
 N                    -5.319     1.0319   -2.9577 
 N                    -4.1592    3.4857   -2.6621 
 C                     4.4169    2.9692   -2.2162 
 C                     3.2781    3.9079   -2.676 
 N                     3.9028    1.635    -2.2449 
 N                     2.1703    3.6772   -1.802 
 H                     4.0685   -1.0315    3.5901 
 H                     3.4425   -0.5952    5.0367 
 H                     0.2617    0.5532    1.6881 
 C                     1.2338   -3.9421    4.057 
 C                    -1.3696    0.487     4.9376 
 C                     3.767     5.3547   -2.5978 
 C                    -7.1895    1.952    -4.233 
 C                     1.5115   -5.7516   -5.0019 
 H                     0.46     -3.8867   -5.3501 
 C                     0.8994   -6.472    -6.1981 
 H                     2.486    -5.3351   -5.266 
 H                     1.6567   -6.4475   -4.1739 
 C                    -0.4794   -7.023    -5.847 
 H                     1.5575   -7.2849   -6.5117 
 H                     0.8081   -5.7732   -7.033 
 C                    -1.3955   -5.9054   -5.3606 
 H                    -0.3788   -7.7757   -5.0615 
 H                    -0.9206   -7.5071   -6.7204 
 H                    -1.5508   -5.1708   -6.1524 
 H                    -2.371    -6.3074   -5.0801 
 H                    -0.621    -5.9161   -3.3311 
 H                    -0.4735   -0.7102    3.3638 
 C                    -1.2595   -0.5912    6.0108 
 H                    -2.2816    1.0696    5.0795 
 H                    -0.5209    1.1721    4.9987 
 C                    -2.4087   -1.5895    5.9026 
 H                    -1.2622   -0.1258    6.9988 
 H                    -0.3104   -1.1204    5.895 
 C                    -2.4614   -2.205     4.5081 
 H                    -3.3517   -1.0769    6.1064 
 H                    -2.2886   -2.3772    6.6495 
 H                    -3.3061   -2.8922    4.4283 
 H                    -1.5497   -2.7687    4.3084 
 H                    -3.5148   -0.518     3.6471 
 H                     3.0215    3.6686   -3.7237 
 C                     5.6148    3.1338   -3.1465 
 H                     4.6935    3.2695   -1.1894 
 C                     6.1037    4.5787   -3.114 
 H                     5.3172    2.8542   -4.1584 
 H                     6.4107    2.4564   -2.8308 
 C                     4.9838    5.5425   -3.4989 
 H                     6.9461    4.6984   -3.798 
 H                     6.4539    4.8168   -2.1068 
 H                     4.6936    5.3624   -4.5368 
 H                     5.3391    6.5723   -3.4246 
 H                     4.0199    5.5875   -1.562 
 H                     2.959     6.0222   -2.9058 
 H                    -5.0935    2.1222   -4.7414 
 C                    -5.9198    4.5876   -3.9535 
 H                    -6.2014    3.3755   -2.1773 
 C                    -7.3747    4.4542   -4.3925 
 H                    -5.2593    4.5982   -4.822 
 H                    -5.772     5.5212   -3.4073 
 C                    -7.6057    3.1276   -5.1115 
 H                    -7.6388    5.2836   -5.0514 
 H                    -8.0219    4.5058   -3.5136 
 H                    -8.6595    3.029    -5.3797 
 H                    -7.022     3.1109   -6.0349 
 H                    -7.8002    1.9169   -3.3293 
 H                    -7.3262    1.01     -4.7688 
 H                     1.2775   -1.8258    4.4835 
 C                     3.1265   -3.        6.0903 
 H                     3.9077   -3.3148    4.1041 
 C                     2.448    -4.36      6.2083 
 H                     2.5316   -2.2463    6.6133 
 H                     4.1144   -3.0231    6.5518 
 C                     1.0857   -4.3379    5.5223 
 H                     2.3308   -4.6239    7.2612 
 H                     3.0771   -5.1205    5.7403 
 H                     0.4331   -3.6234    6.0306 
 H                     0.6169   -5.3221    5.591 
 H                     1.8562   -4.6804    3.5443 
 H                     0.2532   -3.9263    3.5731 
 
 ITRead=  0  0  0  0  0  0  0  0  0  0  0  0  0  0  0  0  0  0  0  0
 ITRead=  0  0  0  0  0  0  0  0  0  0  0  0  0  0  0  0  0  0  0  0
 ITRead=  0  0  0  0  0  0  0  0  0  0  0  0  0  0  0  0  0  0  0  0
 ITRead=  0  0  0  0  0  0  0  0  0  0  0  0  0  0  0  0  0  0  0  0
 ITRead=  0  0  0  0  0  0  0  0  0  0  0  0  0  0  0  0  0  0  0  0
 ITRead=  0  0  0  0  0  0  0  0  0  0  0  0  0  0  0  0  0  0  0  0
 ITRead=  0  0  0  0  0  0  0  0  0  0  0  0  0  0  0  0  0
 MicOpt= -1 -1 -1 -1 -1 -1 -1 -1 -1 -1 -1 -1 -1 -1 -1 -1 -1 -1 -1 -1
 MicOpt= -1 -1 -1 -1 -1 -1 -1 -1 -1 -1 -1 -1 -1 -1 -1 -1 -1 -1 -1 -1
 MicOpt= -1 -1 -1 -1 -1 -1 -1 -1 -1 -1 -1 -1 -1 -1 -1 -1 -1 -1 -1 -1
 MicOpt= -1 -1 -1 -1 -1 -1 -1 -1 -1 -1 -1 -1 -1 -1 -1 -1 -1 -1 -1 -1
 MicOpt= -1 -1 -1 -1 -1 -1 -1 -1 -1 -1 -1 -1 -1 -1 -1 -1 -1 -1 -1 -1
 MicOpt= -1 -1 -1 -1 -1 -1 -1 -1 -1 -1 -1 -1 -1 -1 -1 -1 -1 -1 -1 -1
 MicOpt= -1 -1 -1 -1 -1 -1 -1 -1 -1 -1 -1 -1 -1 -1 -1 -1 -1
 NAtoms=    137 NQM=      137 NQMF=       0 NMMI=      0 NMMIF=      0
                NMic=       0 NMicF=      0.
                    Isotopes and Nuclear Properties:
 (Nuclear quadrupole moments (NQMom) in fm**2, nuclear magnetic moments (NMagM)
  in nuclear magnetons)

  Atom         1           2           3           4           5           6           7           8           9          10
 IAtWgt=          12          12          12          12           1          12          12           1          12          12
 AtmWgt=  12.0000000  12.0000000  12.0000000  12.0000000   1.0078250  12.0000000  12.0000000   1.0078250  12.0000000  12.0000000
 NucSpn=           0           0           0           0           1           0           0           1           0           0
 AtZEff=  -0.0000000  -0.0000000  -0.0000000  -0.0000000  -0.0000000  -0.0000000  -0.0000000  -0.0000000  -0.0000000  -0.0000000
 NQMom=    0.0000000   0.0000000   0.0000000   0.0000000   0.0000000   0.0000000   0.0000000   0.0000000   0.0000000   0.0000000
 NMagM=    0.0000000   0.0000000   0.0000000   0.0000000   2.7928460   0.0000000   0.0000000   2.7928460   0.0000000   0.0000000
 AtZNuc=   6.0000000   6.0000000   6.0000000   6.0000000   1.0000000   6.0000000   6.0000000   1.0000000   6.0000000   6.0000000

  Atom        11          12          13          14          15          16          17          18          19          20
 IAtWgt=           1          12           1           1           1          12          12          12          12           1
 AtmWgt=   1.0078250  12.0000000   1.0078250   1.0078250   1.0078250  12.0000000  12.0000000  12.0000000  12.0000000   1.0078250
 NucSpn=           1           0           1           1           1           0           0           0           0           1
 AtZEff=  -0.0000000  -0.0000000  -0.0000000  -0.0000000  -0.0000000  -0.0000000  -0.0000000  -0.0000000  -0.0000000  -0.0000000
 NQMom=    0.0000000   0.0000000   0.0000000   0.0000000   0.0000000   0.0000000   0.0000000   0.0000000   0.0000000   0.0000000
 NMagM=    2.7928460   0.0000000   2.7928460   2.7928460   2.7928460   0.0000000   0.0000000   0.0000000   0.0000000   2.7928460
 AtZNuc=   1.0000000   6.0000000   1.0000000   1.0000000   1.0000000   6.0000000   6.0000000   6.0000000   6.0000000   1.0000000

  Atom        21          22          23          24          25          26          27          28          29          30
 IAtWgt=          12          12           1          12          12           1          12           1           1           1
 AtmWgt=  12.0000000  12.0000000   1.0078250  12.0000000  12.0000000   1.0078250  12.0000000   1.0078250   1.0078250   1.0078250
 NucSpn=           0           0           1           0           0           1           0           1           1           1
 AtZEff=  -0.0000000  -0.0000000  -0.0000000  -0.0000000  -0.0000000  -0.0000000  -0.0000000  -0.0000000  -0.0000000  -0.0000000
 NQMom=    0.0000000   0.0000000   0.0000000   0.0000000   0.0000000   0.0000000   0.0000000   0.0000000   0.0000000   0.0000000
 NMagM=    0.0000000   0.0000000   2.7928460   0.0000000   0.0000000   2.7928460   0.0000000   2.7928460   2.7928460   2.7928460
 AtZNuc=   6.0000000   6.0000000   1.0000000   6.0000000   6.0000000   1.0000000   6.0000000   1.0000000   1.0000000   1.0000000

  Atom        31          32          33          34          35          36          37          38          39          40
 IAtWgt=          12          12          12          12           1          12          12           1          12          12
 AtmWgt=  12.0000000  12.0000000  12.0000000  12.0000000   1.0078250  12.0000000  12.0000000   1.0078250  12.0000000  12.0000000
 NucSpn=           0           0           0           0           1           0           0           1           0           0
 AtZEff=  -0.0000000  -0.0000000  -0.0000000  -0.0000000  -0.0000000  -0.0000000  -0.0000000  -0.0000000  -0.0000000  -0.0000000
 NQMom=    0.0000000   0.0000000   0.0000000   0.0000000   0.0000000   0.0000000   0.0000000   0.0000000   0.0000000   0.0000000
 NMagM=    0.0000000   0.0000000   0.0000000   0.0000000   2.7928460   0.0000000   0.0000000   2.7928460   0.0000000   0.0000000
 AtZNuc=   6.0000000   6.0000000   6.0000000   6.0000000   1.0000000   6.0000000   6.0000000   1.0000000   6.0000000   6.0000000

  Atom        41          42          43          44          45          46          47          48          49          50
 IAtWgt=           1          12           1           1          12          12          14          14          12          12
 AtmWgt=   1.0078250  12.0000000   1.0078250   1.0078250  12.0000000  12.0000000  14.0030740  14.0030740  12.0000000  12.0000000
 NucSpn=           1           0           1           1           0           0           2           2           0           0
 AtZEff=  -0.0000000  -0.0000000  -0.0000000  -0.0000000  -0.0000000  -0.0000000  -0.0000000  -0.0000000  -0.0000000  -0.0000000
 NQMom=    0.0000000   0.0000000   0.0000000   0.0000000   0.0000000   0.0000000   2.0440000   2.0440000   0.0000000   0.0000000
 NMagM=    2.7928460   0.0000000   2.7928460   2.7928460   0.0000000   0.0000000   0.4037610   0.4037610   0.0000000   0.0000000
 AtZNuc=   1.0000000   6.0000000   1.0000000   1.0000000   6.0000000   6.0000000   7.0000000   7.0000000   6.0000000   6.0000000

  Atom        51          52          53          54          55          56          57          58          59          60
 IAtWgt=          14          14          12          12          14          14          12          12          14          14
 AtmWgt=  14.0030740  14.0030740  12.0000000  12.0000000  14.0030740  14.0030740  12.0000000  12.0000000  14.0030740  14.0030740
 NucSpn=           2           2           0           0           2           2           0           0           2           2
 AtZEff=  -0.0000000  -0.0000000  -0.0000000  -0.0000000  -0.0000000  -0.0000000  -0.0000000  -0.0000000  -0.0000000  -0.0000000
 NQMom=    2.0440000   2.0440000   0.0000000   0.0000000   2.0440000   2.0440000   0.0000000   0.0000000   2.0440000   2.0440000
 NMagM=    0.4037610   0.4037610   0.0000000   0.0000000   0.4037610   0.4037610   0.0000000   0.0000000   0.4037610   0.4037610
 AtZNuc=   7.0000000   7.0000000   6.0000000   6.0000000   7.0000000   7.0000000   6.0000000   6.0000000   7.0000000   7.0000000

  Atom        61          62          63          64          65          66          67          68          69          70
 IAtWgt=          12          12          14          14           1           1           1          12          12          12
 AtmWgt=  12.0000000  12.0000000  14.0030740  14.0030740   1.0078250   1.0078250   1.0078250  12.0000000  12.0000000  12.0000000
 NucSpn=           0           0           2           2           1           1           1           0           0           0
 AtZEff=  -0.0000000  -0.0000000  -0.0000000  -0.0000000  -0.0000000  -0.0000000  -0.0000000  -0.0000000  -0.0000000  -0.0000000
 NQMom=    0.0000000   0.0000000   2.0440000   2.0440000   0.0000000   0.0000000   0.0000000   0.0000000   0.0000000   0.0000000
 NMagM=    0.0000000   0.0000000   0.4037610   0.4037610   2.7928460   2.7928460   2.7928460   0.0000000   0.0000000   0.0000000
 AtZNuc=   6.0000000   6.0000000   7.0000000   7.0000000   1.0000000   1.0000000   1.0000000   6.0000000   6.0000000   6.0000000

  Atom        71          72          73          74          75          76          77          78          79          80
 IAtWgt=          12          12           1          12           1           1          12           1           1          12
 AtmWgt=  12.0000000  12.0000000   1.0078250  12.0000000   1.0078250   1.0078250  12.0000000   1.0078250   1.0078250  12.0000000
 NucSpn=           0           0           1           0           1           1           0           1           1           0
 AtZEff=  -0.0000000  -0.0000000  -0.0000000  -0.0000000  -0.0000000  -0.0000000  -0.0000000  -0.0000000  -0.0000000  -0.0000000
 NQMom=    0.0000000   0.0000000   0.0000000   0.0000000   0.0000000   0.0000000   0.0000000   0.0000000   0.0000000   0.0000000
 NMagM=    0.0000000   0.0000000   2.7928460   0.0000000   2.7928460   2.7928460   0.0000000   2.7928460   2.7928460   0.0000000
 AtZNuc=   6.0000000   6.0000000   1.0000000   6.0000000   1.0000000   1.0000000   6.0000000   1.0000000   1.0000000   6.0000000

  Atom        81          82          83          84          85          86          87          88          89          90
 IAtWgt=           1           1           1           1           1           1          12           1           1          12
 AtmWgt=   1.0078250   1.0078250   1.0078250   1.0078250   1.0078250   1.0078250  12.0000000   1.0078250   1.0078250  12.0000000
 NucSpn=           1           1           1           1           1           1           0           1           1           0
 AtZEff=  -0.0000000  -0.0000000  -0.0000000  -0.0000000  -0.0000000  -0.0000000  -0.0000000  -0.0000000  -0.0000000  -0.0000000
 NQMom=    0.0000000   0.0000000   0.0000000   0.0000000   0.0000000   0.0000000   0.0000000   0.0000000   0.0000000   0.0000000
 NMagM=    2.7928460   2.7928460   2.7928460   2.7928460   2.7928460   2.7928460   0.0000000   2.7928460   2.7928460   0.0000000
 AtZNuc=   1.0000000   1.0000000   1.0000000   1.0000000   1.0000000   1.0000000   6.0000000   1.0000000   1.0000000   6.0000000

  Atom        91          92          93          94          95          96          97          98          99         100
 IAtWgt=           1           1          12           1           1           1           1           1           1          12
 AtmWgt=   1.0078250   1.0078250  12.0000000   1.0078250   1.0078250   1.0078250   1.0078250   1.0078250   1.0078250  12.0000000
 NucSpn=           1           1           0           1           1           1           1           1           1           0
 AtZEff=  -0.0000000  -0.0000000  -0.0000000  -0.0000000  -0.0000000  -0.0000000  -0.0000000  -0.0000000  -0.0000000  -0.0000000
 NQMom=    0.0000000   0.0000000   0.0000000   0.0000000   0.0000000   0.0000000   0.0000000   0.0000000   0.0000000   0.0000000
 NMagM=    2.7928460   2.7928460   0.0000000   2.7928460   2.7928460   2.7928460   2.7928460   2.7928460   2.7928460   0.0000000
 AtZNuc=   1.0000000   1.0000000   6.0000000   1.0000000   1.0000000   1.0000000   1.0000000   1.0000000   1.0000000   6.0000000

  Atom       101         102         103         104         105         106         107         108         109         110
 IAtWgt=           1          12           1           1          12           1           1           1           1           1
 AtmWgt=   1.0078250  12.0000000   1.0078250   1.0078250  12.0000000   1.0078250   1.0078250   1.0078250   1.0078250   1.0078250
 NucSpn=           1           0           1           1           0           1           1           1           1           1
 AtZEff=  -0.0000000  -0.0000000  -0.0000000  -0.0000000  -0.0000000  -0.0000000  -0.0000000  -0.0000000  -0.0000000  -0.0000000
 NQMom=    0.0000000   0.0000000   0.0000000   0.0000000   0.0000000   0.0000000   0.0000000   0.0000000   0.0000000   0.0000000
 NMagM=    2.7928460   0.0000000   2.7928460   2.7928460   0.0000000   2.7928460   2.7928460   2.7928460   2.7928460   2.7928460
 AtZNuc=   1.0000000   6.0000000   1.0000000   1.0000000   6.0000000   1.0000000   1.0000000   1.0000000   1.0000000   1.0000000

  Atom       111         112         113         114         115         116         117         118         119         120
 IAtWgt=           1           1          12           1          12           1           1          12           1           1
 AtmWgt=   1.0078250   1.0078250  12.0000000   1.0078250  12.0000000   1.0078250   1.0078250  12.0000000   1.0078250   1.0078250
 NucSpn=           1           1           0           1           0           1           1           0           1           1
 AtZEff=  -0.0000000  -0.0000000  -0.0000000  -0.0000000  -0.0000000  -0.0000000  -0.0000000  -0.0000000  -0.0000000  -0.0000000
 NQMom=    0.0000000   0.0000000   0.0000000   0.0000000   0.0000000   0.0000000   0.0000000   0.0000000   0.0000000   0.0000000
 NMagM=    2.7928460   2.7928460   0.0000000   2.7928460   0.0000000   2.7928460   2.7928460   0.0000000   2.7928460   2.7928460
 AtZNuc=   1.0000000   1.0000000   6.0000000   1.0000000   6.0000000   1.0000000   1.0000000   6.0000000   1.0000000   1.0000000

  Atom       121         122         123         124         125         126         127         128         129         130
 IAtWgt=           1           1           1           1           1          12           1          12           1           1
 AtmWgt=   1.0078250   1.0078250   1.0078250   1.0078250   1.0078250  12.0000000   1.0078250  12.0000000   1.0078250   1.0078250
 NucSpn=           1           1           1           1           1           0           1           0           1           1
 AtZEff=  -0.0000000  -0.0000000  -0.0000000  -0.0000000  -0.0000000  -0.0000000  -0.0000000  -0.0000000  -0.0000000  -0.0000000
 NQMom=    0.0000000   0.0000000   0.0000000   0.0000000   0.0000000   0.0000000   0.0000000   0.0000000   0.0000000   0.0000000
 NMagM=    2.7928460   2.7928460   2.7928460   2.7928460   2.7928460   0.0000000   2.7928460   0.0000000   2.7928460   2.7928460
 AtZNuc=   1.0000000   1.0000000   1.0000000   1.0000000   1.0000000   6.0000000   1.0000000   6.0000000   1.0000000   1.0000000

  Atom       131         132         133         134         135         136         137
 IAtWgt=          12           1           1           1           1           1           1
 AtmWgt=  12.0000000   1.0078250   1.0078250   1.0078250   1.0078250   1.0078250   1.0078250
 NucSpn=           0           1           1           1           1           1           1
 AtZEff=  -0.0000000  -0.0000000  -0.0000000  -0.0000000  -0.0000000  -0.0000000  -0.0000000
 NQMom=    0.0000000   0.0000000   0.0000000   0.0000000   0.0000000   0.0000000   0.0000000
 NMagM=    0.0000000   2.7928460   2.7928460   2.7928460   2.7928460   2.7928460   2.7928460
 AtZNuc=   6.0000000   1.0000000   1.0000000   1.0000000   1.0000000   1.0000000   1.0000000
 Leave Link  101 at Mon Oct 18 20:54:40 2021, MaxMem=  7864320000 cpu:               2.8 elap:               0.1
 (Enter /apps/gaussian/g16-c01-avx/g16/l202.exe)
 Stoichiometry    C57H70N10
 Framework group  C1[X(C57H70N10)]
 Deg. of freedom   405
 Full point group                 C1      NOp   1
 Largest Abelian subgroup         C1      NOp   1
 Largest concise Abelian subgroup C1      NOp   1
                         Standard orientation:                         
 ---------------------------------------------------------------------
 Center     Atomic      Atomic             Coordinates (Angstroms)
 Number     Number       Type             X           Y           Z
 ---------------------------------------------------------------------
      1          6           0        0.727597   -2.972786   -0.649754
      2          6           0       -0.118204   -3.095539   -1.825646
      3          6           0        0.197633   -2.957553    0.639250
      4          6           0        1.023971   -2.757391    1.740375
      5          1           0       -0.865508   -3.099684    0.759807
      6          6           0        2.384113   -2.516131    1.543852
      7          6           0        2.926141   -2.528564    0.264287
      8          1           0        2.999671   -2.327873    2.410215
      9          6           0        2.094858   -2.789117   -0.823574
     10          6           0        4.321674   -2.176631    0.038197
     11          1           0        2.536366   -2.807412   -1.807471
     12          6           0        0.460092   -2.772277    3.081381
     13          1           0        4.813524   -1.639378    0.864563
     14          1           0        0.424526   -3.186654   -2.778871
     15          1           0       -0.622369   -2.961729    3.136298
     16          6           0       -2.734780    0.659471    1.291395
     17          6           0       -3.786133   -0.176463    0.724408
     18          6           0       -2.458365    1.921515    0.766909
     19          6           0       -1.462329    2.719706    1.318150
     20          1           0       -3.040730    2.268610   -0.073796
     21          6           0       -0.714228    2.235661    2.390896
     22          6           0       -0.979855    0.981232    2.926640
     23          1           0        0.063982    2.863412    2.796960
     24          6           0       -1.997788    0.202766    2.377667
     25          6           0       -0.180574    0.464816    4.029152
     26          1           0       -2.191805   -0.765726    2.812167
     27          6           0       -1.191814    4.030464    0.748764
     28          1           0        0.785691    0.966387    4.194869
     29          1           0       -3.933314   -1.135478    1.233570
     30          1           0       -1.748889    4.267963   -0.171205
     31          6           0        0.441693    0.773621   -2.482727
     32          6           0       -0.881529    0.174873   -2.602780
     33          6           0        1.568209    0.055490   -2.879039
     34          6           0        2.847452    0.522951   -2.598047
     35          1           0        1.420553   -0.894288   -3.368455
     36          6           0        2.999373    1.747594   -1.949830
     37          6           0        1.885832    2.508620   -1.614479
     38          1           0        3.997642    2.088024   -1.720808
     39          6           0        0.609205    2.009913   -1.869766
     40          6           0        2.037558    3.775548   -0.908804
     41          1           0       -0.243333    2.594472   -1.560797
     42          6           0        3.991098   -0.327241   -2.886773
     43          1           0        2.946989    3.871297   -0.293966
     44          1           0        3.764124   -1.236775   -3.463578
     45          6           0       -2.369833   -1.474155   -3.313205
     46          6           0       -2.081142   -2.969937   -3.032422
     47          7           0       -1.106245   -0.807386   -3.360620
     48          7           0       -1.379058   -3.039487   -1.786445
     49          6           0       -6.785661    0.383377   -0.833480
     50          6           0       -5.527622   -0.531100   -0.862943
     51          7           0       -6.555781    1.706893   -1.375172
     52          7           0       -4.452526    0.206716   -0.276130
     53          6           0        0.515542   -2.535040    5.389968
     54          6           0        0.285727   -1.045827    5.743471
     55          7           0        1.160861   -2.584986    4.114100
     56          7           0       -0.568878   -0.503347    4.736514
     57          6           0        6.216774   -1.897398   -1.291629
     58          6           0        6.152567   -1.098473   -2.617603
     59          7           0        4.907821   -2.417787   -1.051470
     60          7           0        5.152586   -0.088190   -2.453868
     61          6           0       -0.080415    6.047813    0.542838
     62          6           0        1.285004    5.848425   -0.153806
     63          7           0       -0.370956    4.843110    1.256623
     64          7           0        1.167334    4.683315   -0.974167
     65          1           0       -5.788902    2.143501   -0.874777
     66          1           0       -6.280689    1.638261   -2.350501
     67          1           0       -1.654381    0.598850   -1.942667
     68          6           0       -5.862508   -1.899835   -0.265577
     69          6           0       -3.100209   -1.349532   -4.651571
     70          6           0        1.604112    7.092858   -0.983218
     71          6           0        7.244116   -3.020485   -1.439060
     72          6           0       -0.382769   -0.949274    7.115750
     73          1           0        1.266568   -0.536768    5.768800
     74          6           0        0.481796   -1.614071    8.181165
     75          1           0       -0.543012    0.103629    7.357801
     76          1           0       -1.358957   -1.434244    7.062783
     77          6           0        0.741541   -3.075708    7.828871
     78          1           0       -0.015771   -1.546501    9.150757
     79          1           0        1.434713   -1.084787    8.255487
     80          6           0        1.392556   -3.188520    6.454714
     81          1           0       -0.205283   -3.620873    7.826262
     82          1           0        1.388259   -3.531044    8.581375
     83          1           0        2.365721   -2.694908    6.454518
     84          1           0        1.548130   -4.236639    6.191793
     85          1           0       -0.476978   -3.018240    5.361698
     86          1           0       -3.003258   -1.078917   -2.499712
     87          6           0       -4.400974   -2.145789   -4.632021
     88          1           0       -2.444092   -1.717046   -5.442613
     89          1           0       -3.303517   -0.294238   -4.847545
     90          6           0       -4.138924   -3.612852   -4.303349
     91          1           0       -4.894777   -2.064012   -5.602701
     92          1           0       -5.072215   -1.722542   -3.880655
     93          6           0       -3.392708   -3.746013   -2.979840
     94          1           0       -3.540885   -4.059583   -5.101048
     95          1           0       -5.084517   -4.156728   -4.250352
     96          1           0       -3.179235   -4.795728   -2.768515
     97          1           0       -3.999222   -3.355343   -2.162312
     98          1           0       -1.457028   -3.339429   -3.865716
     99          1           0        2.063234    5.719649    0.619860
    100          6           0       -0.001324    7.252619    1.475416
    101          1           0       -0.827669    6.233526   -0.249708
    102          6           0        0.349400    8.505212    0.678034
    103          1           0        0.756007    7.060537    2.237149
    104          1           0       -0.961065    7.380030    1.980054
    105          6           0        1.662426    8.320356   -0.078949
    106          1           0        0.427926    9.360967    1.351338
    107          1           0       -0.451752    8.712935   -0.035261
    108          1           0        2.478322    8.200251    0.637833
    109          1           0        1.872325    9.207892   -0.679340
    110          1           0        0.833473    7.217253   -1.745896
    111          1           0        2.560605    6.948572   -1.490749
    112          1           0        6.535183   -1.213061   -0.484445
    113          6           0        7.520905   -0.492245   -2.911487
    114          1           0        5.875496   -1.812948   -3.413226
    115          6           0        8.568689   -1.594607   -3.030639
    116          1           0        7.781490    0.195450   -2.105363
    117          1           0        7.466356    0.081671   -3.838543
    118          6           0        8.617096   -2.437781   -1.759063
    119          1           0        9.548979   -1.152988   -3.219866
    120          1           0        8.321043   -2.236129   -3.879825
    121          1           0        9.339789   -3.247602   -1.877607
    122          1           0        8.946538   -1.814227   -0.924617
    123          1           0        6.920443   -3.692390   -2.235702
    124          1           0        7.281485   -3.593205   -0.509691
    125          1           0       -5.250454   -0.655554   -1.920779
    126          6           0       -7.923181   -0.292748   -1.597894
    127          1           0       -7.079053    0.515538    0.215524
    128          6           0       -8.239513   -1.668649   -1.022815
    129          1           0       -7.635150   -0.391131   -2.648064
    130          1           0       -8.801143    0.352707   -1.552792
    131          6           0       -6.997916   -2.554584   -1.045221
    132          1           0       -9.040379   -2.134774   -1.600153
    133          1           0       -8.588318   -1.559564    0.006547
    134          1           0       -6.685299   -2.718037   -2.079784
    135          1           0       -7.227122   -3.529935   -0.610137
    136          1           0       -6.166053   -1.773125    0.777081
    137          1           0       -4.975864   -2.539626   -0.288298
 ---------------------------------------------------------------------
 Rotational constants (GHZ):           0.0301744           0.0238463           0.0232715
 Leave Link  202 at Mon Oct 18 20:54:40 2021, MaxMem=  7864320000 cpu:               0.1 elap:               0.0
 (Enter /apps/gaussian/g16-c01-avx/g16/l301.exe)
 Standard basis: def2TZVP (5D, 7F)
 Ernie: Thresh=  0.10000D-02 Tol=  0.10000D-05 Strict=F.
 There are  2832 symmetry adapted cartesian basis functions of A   symmetry.
 There are  2497 symmetry adapted basis functions of A   symmetry.
  2497 basis functions,  3977 primitive gaussians,  2832 cartesian basis functions
   241 alpha electrons      241 beta electrons
       nuclear repulsion energy     10439.7883638270 Hartrees.
 IExCor= 1009 DFT=T Ex+Corr=PBE1PBE ExCW=0 ScaHFX=  0.250000
 ScaDFX=  0.750000  0.750000  1.000000  1.000000 ScalE2=  1.000000  1.000000
 IRadAn=      7 IRanWt=     -1 IRanGd=            0 ICorTp=0 IEmpDi=131
 NAtoms=  137 NActive=  137 NUniq=  137 SFac= 1.00D+00 NAtFMM=   60 NAOKFM=T Big=T
 Integral buffers will be    131072 words long.
 Raffenetti 2 integral format.
 Two-electron integral symmetry is turned on.
 R6Disp:  Grimme-D3 Dispersion energy=       -0.1203945898 Hartrees.
 Nuclear repulsion after empirical dispersion term =    10439.6679692372 Hartrees.
 ------------------------------------------------------------------------------
 Polarizable Continuum Model (PCM)
 =================================
 Model                : PCM.
 Atomic radii         : UFF (Universal Force Field).
 Polarization charges : Total charges.
 Charge compensation  : None.
 Solution method      : On-the-fly selection.
 Cavity type          : Scaled VdW (van der Waals Surface) (Alpha=1.100).
 Cavity algorithm     : GePol (No added spheres)
                        Default sphere list used, NSphG=  137.
                        Lebedev-Laikov grids with approx.  5.0 points / Ang**2.
                        Smoothing algorithm: York/Karplus (Gamma=1.0000).
                        Polarization charges: spherical gaussians, with
                                              point-specific exponents (IZeta= 3).
                        Self-potential: point-specific (ISelfS= 7).
                        Self-field    : sphere-specific E.n sum rule (ISelfD= 2).
 Solvent              : Chloroform, Eps=   4.711300 Eps(inf)=   2.090627
 ------------------------------------------------------------------------------
 GePol: Number of generator spheres                  =     137
 GePol: Total number of spheres                      =     137
 GePol: Number of exposed spheres                    =     137 (100.00%)
 GePol: Number of points                             =    7914
 GePol: Average weight of points                     =       0.13
 GePol: Minimum weight of points                     =   0.24D-11
 GePol: Maximum weight of points                     =    0.20577
 GePol: Number of points with low weight             =     740
 GePol: Fraction of low-weight points (<1% of avg)   =       9.35%
 GePol: Cavity surface area                          =   1001.676 Ang**2
 GePol: Cavity volume                                =   1264.224 Ang**3
 Leave Link  301 at Mon Oct 18 20:54:40 2021, MaxMem=  7864320000 cpu:               1.6 elap:               0.1
 (Enter /apps/gaussian/g16-c01-avx/g16/l302.exe)
 NPDir=0 NMtPBC=     1 NCelOv=     1 NCel=       1 NClECP=     1 NCelD=      1
         NCelK=      1 NCelE2=     1 NClLst=     1 CellRange=     0.0.
 One-electron integrals computed using PRISM.
 One-electron integral symmetry used in STVInt
   1 Symmetry operations used in ECPInt.
 ECPInt:  NShTT=  517653 NPrTT= 1551364 LenC2=  324164 LenP2D=  616911.
 LDataN:  DoStor=T MaxTD1= 6 Len=  172
 Number of processors reduced to  29 by ecpmxn.
 NBasis=  2497 RedAO= T EigKep=  4.65D-06  NBF=  2497
 NBsUse=  2497 1.00D-06 EigRej= -1.00D+00 NBFU=  2497
 Precomputing XC quadrature grid using
 IXCGrd= 4 IRadAn=           7 IRanWt=          -1 IRanGd=           0 AccXCQ= 0.00D+00.
 Generated NRdTot=       0 NPtTot=           0 NUsed=           0 NTot=          32
 NSgBfM=  2414  2404  2406  2406  2414 MxSgAt=   137 MxSgA2=   137.
 Leave Link  302 at Mon Oct 18 20:54:56 2021, MaxMem=  7864320000 cpu:             512.8 elap:              16.2
 (Enter /apps/gaussian/g16-c01-avx/g16/l303.exe)
 DipDrv:  MaxL=1.
 Leave Link  303 at Mon Oct 18 20:54:57 2021, MaxMem=  7864320000 cpu:              31.2 elap:               1.2
 (Enter /apps/gaussian/g16-c01-avx/g16/l401.exe)
 ExpMin= 9.52D-02 ExpMax= 1.97D+04 ExpMxC= 6.73D+02 IAcc=3 IRadAn=         7 AccDes= 0.00D+00
 Harris functional with IExCor= 1009 and IRadAn=       7 diagonalized for initial guess.
 HarFok:  IExCor= 1009 AccDes= 0.00D+00 IRadAn=         7 IDoV= 1 UseB2=F ITyADJ=14
 ICtDFT=  3500011 ScaDFX=  1.000000  1.000000  1.000000  1.000000
 FoFCou: FMM=F IPFlag=           0 FMFlag=      100000 FMFlg1=        2001
         NFxFlg=           0 DoJE=T BraDBF=F KetDBF=T FulRan=T
         wScrn=  0.000000 ICntrl=       500 IOpCl=  0 I1Cent=   200000004 NGrid=           0
         NMat0=    1 NMatS0=      1 NMatT0=    0 NMatD0=    1 NMtDS0=    0 NMtDT0=    0
 Petite list used in FoFCou.
 Harris En= -2760.33113221921    
 JPrj=0 DoOrth=F DoCkMO=F.
 Leave Link  401 at Mon Oct 18 20:55:37 2021, MaxMem=  7864320000 cpu:            1255.7 elap:              39.7
 (Enter /apps/gaussian/g16-c01-avx/g16/l508.exe)
 Integral symmetry usage will be decided dynamically.
 Tight linear equation convergence will be used.
 RPBE1PBE wavefunction.
 Linear searches until partial convergence.
 Full line searches.
 Fock matrices will be formed incrementally for  20 cycles.
 Inv3:  Mode=1 IEnd=   187894188.
 Iteration    1 A*A^-1 deviation from unit magnitude is 9.55D-15 for   7893.
 Iteration    1 A*A^-1 deviation from orthogonality  is 4.64D-15 for   7911   5980.
 Iteration    1 A^-1*A deviation from unit magnitude is 9.33D-15 for   7893.
 Iteration    1 A^-1*A deviation from orthogonality  is 2.71D-15 for   7897   7878.
 FoFJK:  IHMeth= 1 ICntrl=       0 DoSepK=F KAlg= 0 I1Cent=           0 FoldK=F
 IRaf= 580000000 NMat=       1 IRICut=       1 DoRegI=T DoRafI=F ISym2E= 1 IDoP0=0 IntGTp=1.
 Iteration   1 EE= -2758.06766773203                                    Grad=1.786D+00 Max rot=    2.1513 deg.
 Gradient too large for Newton-Raphson -- use scaled steepest descent instead.
 Alpha Gap=     0.168 HL deriv= 1.04D-03
     ILin= 1 X=0.000D+00 Y=-2.758067667732D+03 DE= 0.00D+00 F= -6.13D+00
 RMSU=  4.52D-04    CP:  9.96D-01
     ILin= 2 X=3.000D-01 Y=-2.759295385265D+03 DE=-1.23D+00 F= -2.04D+00 OKLS=F
 RMSU=  7.52D-05    CP:  9.95D-01  1.73D+00
     ILin= 3 X=5.000D-01 Y=-2.759425534011D+03 DE=-1.36D+00 F=  7.39D-01
     Accept linear search using points  2 and  3.
     An  expanding polynomial of degree  3 produced  0.3901
 RMSU=  3.78D-08    CP:  9.95D-01  1.32D+00  3.52D-01
 Iteration   2 EE= -2759.42272723545     Delta-E=       -1.355059503425 Grad=5.886D-01 Max rot=    1.7212 deg.
 Gradient too large for Newton-Raphson -- use scaled steepest descent instead.
 Alpha Gap=     0.198 HL deriv= 2.84D-03
     ILin= 1 X=0.000D+00 Y=-2.759422727235D+03 DE= 0.00D+00 F= -3.27D-01
 RMSU=  8.53D-05    CP:  9.94D-01  1.61D+00  8.57D-01 -3.00D+00
     ILin= 2 X=3.000D-01 Y=-2.759497830197D+03 DE=-7.51D-02 F= -1.74D-01 OKLS=F
 RMSU=  1.37D-05    CP:  9.93D-01  2.02D+00  1.85D+00 -3.00D+00  2.35D+00
     ILin= 3 X=7.000D-01 Y=-2.759526337811D+03 DE=-1.04D-01 F=  3.11D-02
     Accept linear search using points  2 and  3.
     An  expanding polynomial of degree  3 produced  0.5176
 RMSU=  2.71D-08    CP:  9.93D-01  1.83D+00  1.35D+00 -3.00D+00  1.73D+00
                    CP:  4.02D-01
 Iteration   3 EE= -2759.52349561736     Delta-E=       -0.100768381912 Grad=2.411D-01 Max rot=    0.7799 deg.
 Gradient too large for Newton-Raphson -- use scaled steepest descent instead.
 Alpha Gap=     0.188 HL deriv= 1.32D-03
     ILin= 1 X=0.000D+00 Y=-2.759523495617D+03 DE= 0.00D+00 F= -4.15D-02
 RMSU=  4.21D-05    CP:  9.94D-01  2.02D+00  1.93D+00 -3.00D+00  2.36D+00
                    CP:  9.57D-01 -3.00D+00
     ILin= 2 X=4.000D-01 Y=-2.759534571075D+03 DE=-1.11D-02 F= -1.39D-02 OKLS=F
 RMSU=  1.33D-05    CP:  9.95D-01  2.27D+00  2.78D+00 -3.00D+00  3.00D+00
                    CP:  2.01D+00 -3.00D+00  2.26D+00
     ILin= 3 X=9.000D-01 Y=-2.759532900167D+03 DE=-9.40D-03 F=  2.06D-02
     An  expanding polynomial of degree  3 produced  0.6015
 RMSU=  8.61D-07    CP:  9.94D-01  2.12D+00  2.26D+00 -3.00D+00  2.68D+00
                    CP:  1.33D+00 -3.00D+00  1.51D+00  1.67D-02
 Iteration   4 EE= -2759.53597238306     Delta-E=       -0.012476765694 Grad=1.049D-01 Max rot=    0.2865 deg.
 Gradient too large for Newton-Raphson -- use scaled steepest descent instead.
 Alpha Gap=     0.192 HL deriv= 1.73D-03
     ILin= 1 X=0.000D+00 Y=-2.759535972383D+03 DE= 0.00D+00 F= -1.37D-02
 RMSU=  3.52D-05    CP:  9.93D-01  2.18D+00  2.47D+00 -3.00D+00  3.00D+00
                    CP:  1.73D+00 -3.00D+00  1.58D+00  7.26D-01 -1.06D+00
     ILin= 2 X=6.000D-01 Y=-2.759537517090D+03 DE=-1.54D-03 F=  8.57D-03 OKLS=T
     Accept linear search using points  1 and  2.
     An  expanding polynomial of degree  2 produced  0.3281
 RMSU=  1.75D-07    CP:  9.94D-01  2.15D+00  2.37D+00 -3.00D+00  2.92D+00
                    CP:  1.54D+00 -3.00D+00  1.54D+00  2.12D-02  1.39D+00
                    CP:  5.45D-01
 Iteration   5 EE= -2759.53847503240     Delta-E=       -0.002502649342 Grad=5.796D-02 Max rot=    0.1858 deg.
 Gradient too large for Newton-Raphson -- use scaled steepest descent instead.
 Alpha Gap=     0.190 HL deriv= 1.15D-04
     ILin= 1 X=0.000D+00 Y=-2.759538475032D+03 DE= 0.00D+00 F= -1.72D-03
 RMSU=  6.80D-06    CP:  9.94D-01  2.21D+00  2.60D+00 -3.00D+00  3.00D+00
                    CP:  1.84D+00 -3.00D+00  1.83D+00  7.82D-01 -2.25D-01
                    CP:  7.33D-01  2.76D+00
     ILin= 2 X=4.000D-01 Y=-2.759539006401D+03 DE=-5.31D-04 F= -9.32D-04 OKLS=F
 RMSU=  1.35D-06    CP:  9.95D-01  2.29D+00  2.90D+00 -3.00D+00  3.00D+00
                    CP:  2.25D+00 -3.00D+00  2.19D+00  2.39D+00 -3.00D+00
                    CP:  9.70D-01  3.00D+00  2.25D+00
     ILin= 3 X=9.000D-01 Y=-2.759539224468D+03 DE=-7.49D-04 F=  5.96D-05
     Accept linear search using points  2 and  3.
     An  expanding polynomial of degree  3 produced  0.7404
 RMSU=  1.36D-07    CP:  9.95D-01  2.26D+00  2.80D+00 -3.00D+00  3.00D+00
                    CP:  2.11D+00 -3.00D+00  2.08D+00  1.88D+00 -3.00D+00
                    CP:  8.94D-01  3.00D+00  1.85D+00  1.47D-01
 Iteration   6 EE= -2759.53920872433     Delta-E=       -0.000733691926 Grad=1.693D-02 Max rot=    0.0400 deg.
 Gradient too large for Newton-Raphson -- use scaled steepest descent instead.
 Alpha Gap=     0.191 HL deriv= 3.78D-04
     ILin= 1 X=0.000D+00 Y=-2.759539208724D+03 DE= 0.00D+00 F= -3.42D-04
 RMSU=  2.17D-06    CP:  9.95D-01  2.28D+00  2.88D+00 -3.00D+00  3.00D+00
                    CP:  2.22D+00 -3.00D+00  2.16D+00  2.38D+00 -3.00D+00
                    CP:  1.12D+00  2.97D+00  2.30D+00  9.65D-01  1.94D-01
     ILin= 2 X=5.000D-01 Y=-2.759539272901D+03 DE=-6.42D-05 F=  8.47D-05 OKLS=T
     Accept linear search using points  1 and  2.
     An  expanding polynomial of degree  2 produced  0.2943
 RMSU=  6.58D-09    CP:  9.95D-01  2.27D+00  2.85D+00 -3.00D+00  3.00D+00
                    CP:  2.18D+00 -3.00D+00  2.13D+00  2.17D+00 -3.00D+00
                    CP:  1.03D+00  3.00D+00  2.12D+00  6.30D-01  5.30D-01
                    CP:  5.88D-01
 Iteration   7 EE= -2759.53927230542     Delta-E=       -0.000063581088 Grad=1.026D-02 Max rot=    0.0267 deg.
 Gradient too large for Newton-Raphson -- use scaled steepest descent instead.
 Alpha Gap=     0.191 HL deriv= 5.68D-05
     ILin= 1 X=0.000D+00 Y=-2.759539272305D+03 DE= 0.00D+00 F= -6.36D-05
 RMSU=  4.96D-07    CP:  9.95D-01  2.30D+00  2.96D+00 -3.00D+00  3.00D+00
                    CP:  2.33D+00 -3.00D+00  2.26D+00  2.73D+00 -3.00D+00
                    CP:  1.19D+00  3.00D+00  2.90D+00  1.39D+00  6.47D-01
                    CP:  1.51D+00  3.00D+00
     ILin= 2 X=7.000D-01 Y=-2.759539302422D+03 DE=-3.01D-05 F= -2.25D-05 OKLS=F
 RMSU=  9.77D-06    CP:  9.96D-01  2.33D+00  3.00D+00 -3.00D+00  3.00D+00
                    CP:  2.50D+00 -3.00D+00  2.42D+00  3.00D+00 -3.00D+00
                    CP:  1.37D+00  3.00D+00  3.00D+00  2.22D+00  8.38D-01
                    CP:  2.57D+00  1.92D+00  2.13D+00
     ILin= 3 X=1.500D+00 Y=-2.759539301628D+03 DE=-2.93D-05 F=  2.45D-05
     An  expanding polynomial of degree  3 produced  1.0831
 RMSU=  1.19D-06    CP:  9.95D-01  2.31D+00  3.00D+00 -3.00D+00  3.00D+00
                    CP:  2.41D+00 -3.00D+00  2.34D+00  3.00D+00 -3.00D+00
                    CP:  1.28D+00  3.00D+00  3.00D+00  1.79D+00  7.31D-01
                    CP:  2.02D+00  3.00D+00  1.54D+00  2.46D-01
 Iteration   8 EE= -2759.53930672930     Delta-E=       -0.000034423889 Grad=1.374D-03 Max rot=    0.0042 deg.
 SCF Done:  E(RPBE1PBE) =  -2759.53930673     a.u. after    8 cycles
            Convg  =    0.1374D-02                    20 Fock formations.
              S**2 =  0.0000                  -V/T =  2.0047
 Leave Link  508 at Mon Oct 18 22:20:38 2021, MaxMem=  7864320000 cpu:          161188.2 elap:            5100.5
 (Enter /apps/gaussian/g16-c01-avx/g16/l502.exe)
 Integral symmetry usage will be decided dynamically.
 Closed shell SCF:
 Using DIIS extrapolation, IDIIS=  1040.
 NGot=  7864320000 LenX=  7848160858 LenY=  7840137802
 Requested convergence on RMS density matrix=1.00D-08 within 128 cycles.
 Requested convergence on MAX density matrix=1.00D-06.
 Requested convergence on             energy=1.00D-06.
 No special actions if energy rises.
 Fock matrices will be formed incrementally for  20 cycles.

 Cycle   1  Pass 1  IDiag  1:
 FoFJK:  IHMeth= 1 ICntrl=       0 DoSepK=F KAlg= 0 I1Cent=           0 FoldK=F
 IRaf= 580000000 NMat=       1 IRICut=       1 DoRegI=T DoRafI=F ISym2E= 0 IDoP0=0 IntGTp=1.
 FoFCou: FMM=T IPFlag=           0 FMFlag=      100000 FMFlg1=        2001
         NFxFlg=           0 DoJE=F BraDBF=F KetDBF=F FulRan=T
         wScrn=  0.000000 ICntrl=         0 IOpCl=  0 I1Cent=           0 NGrid=           0
         NMat0=    1 NMatS0=      1 NMatT0=    0 NMatD0=    1 NMtDS0=    0 NMtDT0=    0
 Symmetry not used in FoFCou.
 FMM levels:  10  Number of levels for PrismC:   9
 E= -2759.53930672934    
 DIIS: error= 6.63D-06 at cycle   1 NSaved=   1.
 NSaved= 1 IEnMin= 1 EnMin= -2759.53930672934     IErMin= 1 ErrMin= 6.63D-06
 ErrMax= 6.63D-06  0.00D+00 EMaxC= 1.00D-01 BMatC= 9.44D-07 BMatP= 9.44D-07
 IDIUse=1 WtCom= 1.00D+00 WtEn= 0.00D+00
 Coeff-Com:  0.100D+01
 Coeff:      0.100D+01
 Gap=     0.191 Goal=   None    Shift=    0.000
 RMSDP=4.72D-06 MaxDP=9.83D-04              OVMax= 1.71D-04

 Cycle   2  Pass 1  IDiag  1:
 RMSU=  4.48D-06    CP:  1.00D+00
 E= -2759.53930690105     Delta-E=       -0.000000171705 Rises=F Damp=F
 DIIS: error= 7.40D-06 at cycle   2 NSaved=   2.
 NSaved= 2 IEnMin= 2 EnMin= -2759.53930690105     IErMin= 1 ErrMin= 6.63D-06
 ErrMax= 7.40D-06  0.00D+00 EMaxC= 1.00D-01 BMatC= 6.52D-07 BMatP= 9.44D-07
 IDIUse=1 WtCom= 1.00D+00 WtEn= 0.00D+00
 Coeff-Com:  0.440D+00 0.560D+00
 Coeff:      0.440D+00 0.560D+00
 Gap=     0.181 Goal=   None    Shift=    0.000
 RMSDP=1.16D-06 MaxDP=3.42D-04 DE=-1.72D-07 OVMax= 1.60D-04

 Cycle   3  Pass 1  IDiag  1:
 RMSU=  9.73D-07    CP:  1.00D+00  8.90D-01
 E= -2759.53930734856     Delta-E=       -0.000000447511 Rises=F Damp=F
 DIIS: error= 3.08D-06 at cycle   3 NSaved=   3.
 NSaved= 3 IEnMin= 3 EnMin= -2759.53930734856     IErMin= 3 ErrMin= 3.08D-06
 ErrMax= 3.08D-06  0.00D+00 EMaxC= 1.00D-01 BMatC= 1.65D-07 BMatP= 6.52D-07
 IDIUse=1 WtCom= 1.00D+00 WtEn= 0.00D+00
 Coeff-Com:  0.367D-01 0.334D+00 0.630D+00
 Coeff:      0.367D-01 0.334D+00 0.630D+00
 Gap=     0.181 Goal=   None    Shift=    0.000
 RMSDP=5.29D-07 MaxDP=1.55D-04 DE=-4.48D-07 OVMax= 7.58D-05

 Cycle   4  Pass 1  IDiag  1:
 RMSU=  1.83D-07    CP:  1.00D+00  9.72D-01  7.17D-01
 E= -2759.53930747341     Delta-E=       -0.000000124852 Rises=F Damp=F
 DIIS: error= 1.53D-06 at cycle   4 NSaved=   4.
 NSaved= 4 IEnMin= 4 EnMin= -2759.53930747341     IErMin= 4 ErrMin= 1.53D-06
 ErrMax= 1.53D-06  0.00D+00 EMaxC= 1.00D-01 BMatC= 2.30D-08 BMatP= 1.65D-07
 IDIUse=1 WtCom= 1.00D+00 WtEn= 0.00D+00
 Coeff-Com:  0.573D-02 0.195D+00 0.416D+00 0.383D+00
 Coeff:      0.573D-02 0.195D+00 0.416D+00 0.383D+00
 Gap=     0.181 Goal=   None    Shift=    0.000
 RMSDP=9.95D-08 MaxDP=3.29D-05 DE=-1.25D-07 OVMax= 2.23D-05

 Cycle   5  Pass 1  IDiag  1:
 RMSU=  4.57D-08    CP:  1.00D+00  9.67D-01  7.68D-01  6.46D-01
 E= -2759.53930749614     Delta-E=       -0.000000022726 Rises=F Damp=F
 DIIS: error= 1.90D-07 at cycle   5 NSaved=   5.
 NSaved= 5 IEnMin= 5 EnMin= -2759.53930749614     IErMin= 5 ErrMin= 1.90D-07
 ErrMax= 1.90D-07  0.00D+00 EMaxC= 1.00D-01 BMatC= 2.47D-10 BMatP= 2.30D-08
 IDIUse=1 WtCom= 1.00D+00 WtEn= 0.00D+00
 Coeff-Com: -0.130D-02 0.382D-01 0.844D-01 0.123D+00 0.756D+00
 Coeff:     -0.130D-02 0.382D-01 0.844D-01 0.123D+00 0.756D+00
 Gap=     0.181 Goal=   None    Shift=    0.000
 RMSDP=3.07D-08 MaxDP=5.97D-06 DE=-2.27D-08 OVMax= 3.14D-06

 Cycle   6  Pass 1  IDiag  1:
 RMSU=  1.38D-08    CP:  1.00D+00  9.72D-01  7.66D-01  6.40D-01  1.04D+00
 E= -2759.53930749615     Delta-E=       -0.000000000013 Rises=F Damp=F
 DIIS: error= 1.18D-07 at cycle   6 NSaved=   6.
 NSaved= 6 IEnMin= 6 EnMin= -2759.53930749615     IErMin= 6 ErrMin= 1.18D-07
 ErrMax= 1.18D-07  0.00D+00 EMaxC= 1.00D-01 BMatC= 6.44D-11 BMatP= 2.47D-10
 IDIUse=1 WtCom= 1.00D+00 WtEn= 0.00D+00
 Coeff-Com: -0.134D-02-0.943D-02-0.200D-01 0.611D-02 0.374D+00 0.651D+00
 Coeff:     -0.134D-02-0.943D-02-0.200D-01 0.611D-02 0.374D+00 0.651D+00
 Gap=     0.181 Goal=   None    Shift=    0.000
 RMSDP=9.54D-09 MaxDP=1.72D-06 DE=-1.27D-11 OVMax= 1.33D-06

 Cycle   7  Pass 1  IDiag  1:
 RMSU=  4.26D-09    CP:  1.00D+00  9.72D-01  7.72D-01  6.66D-01  1.11D+00
                    CP:  8.00D-01
 E= -2759.53930749633     Delta-E=       -0.000000000176 Rises=F Damp=F
 DIIS: error= 2.16D-08 at cycle   7 NSaved=   7.
 NSaved= 7 IEnMin= 7 EnMin= -2759.53930749633     IErMin= 7 ErrMin= 2.16D-08
 ErrMax= 2.16D-08  0.00D+00 EMaxC= 1.00D-01 BMatC= 3.90D-12 BMatP= 6.44D-11
 IDIUse=1 WtCom= 1.00D+00 WtEn= 0.00D+00
 Coeff-Com: -0.594D-03-0.600D-02-0.129D-01-0.886D-03 0.151D+00 0.310D+00
 Coeff-Com:  0.559D+00
 Coeff:     -0.594D-03-0.600D-02-0.129D-01-0.886D-03 0.151D+00 0.310D+00
 Coeff:      0.559D+00
 Gap=     0.181 Goal=   None    Shift=    0.000
 RMSDP=2.40D-09 MaxDP=6.98D-07 DE=-1.76D-10 OVMax= 4.79D-07

 Error on total polarization charges =  0.02575
 SCF Done:  E(RPBE1PBE) =  -2759.53930750     A.U. after    7 cycles
            NFock=  7  Conv=0.24D-08     -V/T= 2.0047
 KE= 2.746587511093D+03 PE=-2.729244563035D+04 EE= 1.134665084252D+04
 Leave Link  502 at Mon Oct 18 22:50:17 2021, MaxMem=  7864320000 cpu:           56295.8 elap:            1779.5
 (Enter /apps/gaussian/g16-c01-avx/g16/l508.exe)
 QCSCF skips out because SCF is already converged.
 Leave Link  508 at Mon Oct 18 22:50:17 2021, MaxMem=  7864320000 cpu:               0.0 elap:               0.0
 (Enter /apps/gaussian/g16-c01-avx/g16/l601.exe)
 Copying SCF densities to generalized density rwf, IOpCl= 0 IROHF=0.
 Hyperfine terms turned off by default for NAtoms > 100.

 **********************************************************************

            Population analysis using the SCF Density.

 **********************************************************************

 Orbital symmetries:
       Occupied  (A) (A) (A) (A) (A) (A) (A) (A) (A) (A) (A) (A)
                 (A) (A) (A) (A) (A) (A) (A) (A) (A) (A) (A) (A)
                 (A) (A) (A) (A) (A) (A) (A) (A) (A) (A) (A) (A)
                 (A) (A) (A) (A) (A) (A) (A) (A) (A) (A) (A) (A)
                 (A) (A) (A) (A) (A) (A) (A) (A) (A) (A) (A) (A)
                 (A) (A) (A) (A) (A) (A) (A) (A) (A) (A) (A) (A)
                 (A) (A) (A) (A) (A) (A) (A) (A) (A) (A) (A) (A)
                 (A) (A) (A) (A) (A) (A) (A) (A) (A) (A) (A) (A)
                 (A) (A) (A) (A) (A) (A) (A) (A) (A) (A) (A) (A)
                 (A) (A) (A) (A) (A) (A) (A) (A) (A) (A) (A) (A)
                 (A) (A) (A) (A) (A) (A) (A) (A) (A) (A) (A) (A)
                 (A) (A) (A) (A) (A) (A) (A) (A) (A) (A) (A) (A)
                 (A) (A) (A) (A) (A) (A) (A) (A) (A) (A) (A) (A)
                 (A) (A) (A) (A) (A) (A) (A) (A) (A) (A) (A) (A)
                 (A) (A) (A) (A) (A) (A) (A) (A) (A) (A) (A) (A)
                 (A) (A) (A) (A) (A) (A) (A) (A) (A) (A) (A) (A)
                 (A) (A) (A) (A) (A) (A) (A) (A) (A) (A) (A) (A)
                 (A) (A) (A) (A) (A) (A) (A) (A) (A) (A) (A) (A)
                 (A) (A) (A) (A) (A) (A) (A) (A) (A) (A) (A) (A)
                 (A) (A) (A) (A) (A) (A) (A) (A) (A) (A) (A) (A)
                 (A)
       Virtual   (A) (A) (A) (A) (A) (A) (A) (A) (A) (A) (A) (A)
                 (A) (A) (A) (A) (A) (A) (A) (A) (A) (A) (A) (A)
                 (A) (A) (A) (A) (A) (A) (A) (A) (A) (A) (A) (A)
                 (A) (A) (A) (A) (A) (A) (A) (A) (A) (A) (A) (A)
                 (A) (A) (A) (A) (A) (A) (A) (A) (A) (A) (A) (A)
                 (A) (A) (A) (A) (A) (A) (A) (A) (A) (A) (A) (A)
                 (A) (A) (A) (A) (A) (A) (A) (A) (A) (A) (A) (A)
                 (A) (A) (A) (A) (A) (A) (A) (A) (A) (A) (A) (A)
                 (A) (A) (A) (A) (A) (A) (A) (A) (A) (A) (A) (A)
                 (A) (A) (A) (A) (A) (A) (A) (A) (A) (A) (A) (A)
                 (A) (A) (A) (A) (A) (A) (A) (A) (A) (A) (A) (A)
                 (A) (A) (A) (A) (A) (A) (A) (A) (A) (A) (A) (A)
                 (A) (A) (A) (A) (A) (A) (A) (A) (A) (A) (A) (A)
                 (A) (A) (A) (A) (A) (A) (A) (A) (A) (A) (A) (A)
                 (A) (A) (A) (A) (A) (A) (A) (A) (A) (A) (A) (A)
                 (A) (A) (A) (A) (A) (A) (A) (A) (A) (A) (A) (A)
                 (A) (A) (A) (A) (A) (A) (A) (A) (A) (A) (A) (A)
                 (A) (A) (A) (A) (A) (A) (A) (A) (A) (A) (A) (A)
                 (A) (A) (A) (A) (A) (A) (A) (A) (A) (A) (A) (A)
                 (A) (A) (A) (A) (A) (A) (A) (A) (A) (A) (A) (A)
                 (A) (A) (A) (A) (A) (A) (A) (A) (A) (A) (A) (A)
                 (A) (A) (A) (A) (A) (A) (A) (A) (A) (A) (A) (A)
                 (A) (A) (A) (A) (A) (A) (A) (A) (A) (A) (A) (A)
                 (A) (A) (A) (A) (A) (A) (A) (A) (A) (A) (A) (A)
                 (A) (A) (A) (A) (A) (A) (A) (A) (A) (A) (A) (A)
                 (A) (A) (A) (A) (A) (A) (A) (A) (A) (A) (A) (A)
                 (A) (A) (A) (A) (A) (A) (A) (A) (A) (A) (A) (A)
                 (A) (A) (A) (A) (A) (A) (A) (A) (A) (A) (A) (A)
                 (A) (A) (A) (A) (A) (A) (A) (A) (A) (A) (A) (A)
                 (A) (A) (A) (A) (A) (A) (A) (A) (A) (A) (A) (A)
                 (A) (A) (A) (A) (A) (A) (A) (A) (A) (A) (A) (A)
                 (A) (A) (A) (A) (A) (A) (A) (A) (A) (A) (A) (A)
                 (A) (A) (A) (A) (A) (A) (A) (A) (A) (A) (A) (A)
                 (A) (A) (A) (A) (A) (A) (A) (A) (A) (A) (A) (A)
                 (A) (A) (A) (A) (A) (A) (A) (A) (A) (A) (A) (A)
                 (A) (A) (A) (A) (A) (A) (A) (A) (A) (A) (A) (A)
                 (A) (A) (A) (A) (A) (A) (A) (A) (A) (A) (A) (A)
                 (A) (A) (A) (A) (A) (A) (A) (A) (A) (A) (A) (A)
                 (A) (A) (A) (A) (A) (A) (A) (A) (A) (A) (A) (A)
                 (A) (A) (A) (A) (A) (A) (A) (A) (A) (A) (A) (A)
                 (A) (A) (A) (A) (A) (A) (A) (A) (A) (A) (A) (A)
                 (A) (A) (A) (A) (A) (A) (A) (A) (A) (A) (A) (A)
                 (A) (A) (A) (A) (A) (A) (A) (A) (A) (A) (A) (A)
                 (A) (A) (A) (A) (A) (A) (A) (A) (A) (A) (A) (A)
                 (A) (A) (A) (A) (A) (A) (A) (A) (A) (A) (A) (A)
                 (A) (A) (A) (A) (A) (A) (A) (A) (A) (A) (A) (A)
                 (A) (A) (A) (A) (A) (A) (A) (A) (A) (A) (A) (A)
                 (A) (A) (A) (A) (A) (A) (A) (A) (A) (A) (A) (A)
                 (A) (A) (A) (A) (A) (A) (A) (A) (A) (A) (A) (A)
                 (A) (A) (A) (A) (A) (A) (A) (A) (A) (A) (A) (A)
                 (A) (A) (A) (A) (A) (A) (A) (A) (A) (A) (A) (A)
                 (A) (A) (A) (A) (A) (A) (A) (A) (A) (A) (A) (A)
                 (A) (A) (A) (A) (A) (A) (A) (A) (A) (A) (A) (A)
                 (A) (A) (A) (A) (A) (A) (A) (A) (A) (A) (A) (A)
                 (A) (A) (A) (A) (A) (A) (A) (A) (A) (A) (A) (A)
                 (A) (A) (A) (A) (A) (A) (A) (A) (A) (A) (A) (A)
                 (A) (A) (A) (A) (A) (A) (A) (A) (A) (A) (A) (A)
                 (A) (A) (A) (A) (A) (A) (A) (A) (A) (A) (A) (A)
                 (A) (A) (A) (A) (A) (A) (A) (A) (A) (A) (A) (A)
                 (A) (A) (A) (A) (A) (A) (A) (A) (A) (A) (A) (A)
                 (A) (A) (A) (A) (A) (A) (A) (A) (A) (A) (A) (A)
                 (A) (A) (A) (A) (A) (A) (A) (A) (A) (A) (A) (A)
                 (A) (A) (A) (A) (A) (A) (A) (A) (A) (A) (A) (A)
                 (A) (A) (A) (A) (A) (A) (A) (A) (A) (A) (A) (A)
                 (A) (A) (A) (A) (A) (A) (A) (A) (A) (A) (A) (A)
                 (A) (A) (A) (A) (A) (A) (A) (A) (A) (A) (A) (A)
                 (A) (A) (A) (A) (A) (A) (A) (A) (A) (A) (A) (A)
                 (A) (A) (A) (A) (A) (A) (A) (A) (A) (A) (A) (A)
                 (A) (A) (A) (A) (A) (A) (A) (A) (A) (A) (A) (A)
                 (A) (A) (A) (A) (A) (A) (A) (A) (A) (A) (A) (A)
                 (A) (A) (A) (A) (A) (A) (A) (A) (A) (A) (A) (A)
                 (A) (A) (A) (A) (A) (A) (A) (A) (A) (A) (A) (A)
                 (A) (A) (A) (A) (A) (A) (A) (A) (A) (A) (A) (A)
                 (A) (A) (A) (A) (A) (A) (A) (A) (A) (A) (A) (A)
                 (A) (A) (A) (A) (A) (A) (A) (A) (A) (A) (A) (A)
                 (A) (A) (A) (A) (A) (A) (A) (A) (A) (A) (A) (A)
                 (A) (A) (A) (A) (A) (A) (A) (A) (A) (A) (A) (A)
                 (A) (A) (A) (A) (A) (A) (A) (A) (A) (A) (A) (A)
                 (A) (A) (A) (A) (A) (A) (A) (A) (A) (A) (A) (A)
                 (A) (A) (A) (A) (A) (A) (A) (A) (A) (A) (A) (A)
                 (A) (A) (A) (A) (A) (A) (A) (A) (A) (A) (A) (A)
                 (A) (A) (A) (A) (A) (A) (A) (A) (A) (A) (A) (A)
                 (A) (A) (A) (A) (A) (A) (A) (A) (A) (A) (A) (A)
                 (A) (A) (A) (A) (A) (A) (A) (A) (A) (A) (A) (A)
                 (A) (A) (A) (A) (A) (A) (A) (A) (A) (A) (A) (A)
                 (A) (A) (A) (A) (A) (A) (A) (A) (A) (A) (A) (A)
                 (A) (A) (A) (A) (A) (A) (A) (A) (A) (A) (A) (A)
                 (A) (A) (A) (A) (A) (A) (A) (A) (A) (A) (A) (A)
                 (A) (A) (A) (A) (A) (A) (A) (A) (A) (A) (A) (A)
                 (A) (A) (A) (A) (A) (A) (A) (A) (A) (A) (A) (A)
                 (A) (A) (A) (A) (A) (A) (A) (A) (A) (A) (A) (A)
                 (A) (A) (A) (A) (A) (A) (A) (A) (A) (A) (A) (A)
                 (A) (A) (A) (A) (A) (A) (A) (A) (A) (A) (A) (A)
                 (A) (A) (A) (A) (A) (A) (A) (A) (A) (A) (A) (A)
                 (A) (A) (A) (A) (A) (A) (A) (A) (A) (A) (A) (A)
                 (A) (A) (A) (A) (A) (A) (A) (A) (A) (A) (A) (A)
                 (A) (A) (A) (A) (A) (A) (A) (A) (A) (A) (A) (A)
                 (A) (A) (A) (A) (A) (A) (A) (A) (A) (A) (A) (A)
                 (A) (A) (A) (A) (A) (A) (A) (A) (A) (A) (A) (A)
                 (A) (A) (A) (A) (A) (A) (A) (A) (A) (A) (A) (A)
                 (A) (A) (A) (A) (A) (A) (A) (A) (A) (A) (A) (A)
                 (A) (A) (A) (A) (A) (A) (A) (A) (A) (A) (A) (A)
                 (A) (A) (A) (A) (A) (A) (A) (A) (A) (A) (A) (A)
                 (A) (A) (A) (A) (A) (A) (A) (A) (A) (A) (A) (A)
                 (A) (A) (A) (A) (A) (A) (A) (A) (A) (A) (A) (A)
                 (A) (A) (A) (A) (A) (A) (A) (A) (A) (A) (A) (A)
                 (A) (A) (A) (A) (A) (A) (A) (A) (A) (A) (A) (A)
                 (A) (A) (A) (A) (A) (A) (A) (A) (A) (A) (A) (A)
                 (A) (A) (A) (A) (A) (A) (A) (A) (A) (A) (A) (A)
                 (A) (A) (A) (A) (A) (A) (A) (A) (A) (A) (A) (A)
                 (A) (A) (A) (A) (A) (A) (A) (A) (A) (A) (A) (A)
                 (A) (A) (A) (A) (A) (A) (A) (A) (A) (A) (A) (A)
                 (A) (A) (A) (A) (A) (A) (A) (A) (A) (A) (A) (A)
                 (A) (A) (A) (A) (A) (A) (A) (A) (A) (A) (A) (A)
                 (A) (A) (A) (A) (A) (A) (A) (A) (A) (A) (A) (A)
                 (A) (A) (A) (A) (A) (A) (A) (A) (A) (A) (A) (A)
                 (A) (A) (A) (A) (A) (A) (A) (A) (A) (A) (A) (A)
                 (A) (A) (A) (A) (A) (A) (A) (A) (A) (A) (A) (A)
                 (A) (A) (A) (A) (A) (A) (A) (A) (A) (A) (A) (A)
                 (A) (A) (A) (A) (A) (A) (A) (A) (A) (A) (A) (A)
                 (A) (A) (A) (A) (A) (A) (A) (A) (A) (A) (A) (A)
                 (A) (A) (A) (A) (A) (A) (A) (A) (A) (A) (A) (A)
                 (A) (A) (A) (A) (A) (A) (A) (A) (A) (A) (A) (A)
                 (A) (A) (A) (A) (A) (A) (A) (A) (A) (A) (A) (A)
                 (A) (A) (A) (A) (A) (A) (A) (A) (A) (A) (A) (A)
                 (A) (A) (A) (A) (A) (A) (A) (A) (A) (A) (A) (A)
                 (A) (A) (A) (A) (A) (A) (A) (A) (A) (A) (A) (A)
                 (A) (A) (A) (A) (A) (A) (A) (A) (A) (A) (A) (A)
                 (A) (A) (A) (A) (A) (A) (A) (A) (A) (A) (A) (A)
                 (A) (A) (A) (A) (A) (A) (A) (A) (A) (A) (A) (A)
                 (A) (A) (A) (A) (A) (A) (A) (A) (A) (A) (A) (A)
                 (A) (A) (A) (A) (A) (A) (A) (A) (A) (A) (A) (A)
                 (A) (A) (A) (A) (A) (A) (A) (A) (A) (A) (A) (A)
                 (A) (A) (A) (A) (A) (A) (A) (A) (A) (A) (A) (A)
                 (A) (A) (A) (A) (A) (A) (A) (A) (A) (A) (A) (A)
                 (A) (A) (A) (A) (A) (A) (A) (A) (A) (A) (A) (A)
                 (A) (A) (A) (A) (A) (A) (A) (A) (A) (A) (A) (A)
                 (A) (A) (A) (A) (A) (A) (A) (A) (A) (A) (A) (A)
                 (A) (A) (A) (A) (A) (A) (A) (A) (A) (A) (A) (A)
                 (A) (A) (A) (A) (A) (A) (A) (A) (A) (A) (A) (A)
                 (A) (A) (A) (A) (A) (A) (A) (A) (A) (A) (A) (A)
                 (A) (A) (A) (A) (A) (A) (A) (A) (A) (A) (A) (A)
                 (A) (A) (A) (A) (A) (A) (A) (A) (A) (A) (A) (A)
                 (A) (A) (A) (A) (A) (A) (A) (A) (A) (A) (A) (A)
                 (A) (A) (A) (A) (A) (A) (A) (A) (A) (A) (A) (A)
                 (A) (A) (A) (A) (A) (A) (A) (A) (A) (A) (A) (A)
                 (A) (A) (A) (A) (A) (A) (A) (A) (A) (A) (A) (A)
                 (A) (A) (A) (A) (A) (A) (A) (A) (A) (A) (A) (A)
                 (A) (A) (A) (A) (A) (A) (A) (A) (A) (A) (A) (A)
                 (A) (A) (A) (A) (A) (A) (A) (A) (A) (A) (A) (A)
                 (A) (A) (A) (A) (A) (A) (A) (A) (A) (A) (A) (A)
                 (A) (A) (A) (A) (A) (A) (A) (A) (A) (A) (A) (A)
                 (A) (A) (A) (A) (A) (A) (A) (A) (A) (A) (A) (A)
                 (A) (A) (A) (A) (A) (A) (A) (A) (A) (A) (A) (A)
                 (A) (A) (A) (A) (A) (A) (A) (A) (A) (A) (A) (A)
                 (A) (A) (A) (A) (A) (A) (A) (A) (A) (A) (A) (A)
                 (A) (A) (A) (A) (A) (A) (A) (A) (A) (A) (A) (A)
                 (A) (A) (A) (A) (A) (A) (A) (A) (A) (A) (A) (A)
                 (A) (A) (A) (A) (A) (A) (A) (A) (A) (A) (A) (A)
                 (A) (A) (A) (A) (A) (A) (A) (A) (A) (A) (A) (A)
                 (A) (A) (A) (A) (A) (A) (A) (A) (A) (A) (A) (A)
                 (A) (A) (A) (A) (A) (A) (A) (A) (A) (A) (A) (A)
                 (A) (A) (A) (A) (A) (A) (A) (A) (A) (A) (A) (A)
                 (A) (A) (A) (A) (A) (A) (A) (A) (A) (A) (A) (A)
                 (A) (A) (A) (A) (A) (A) (A) (A) (A) (A) (A) (A)
                 (A) (A) (A) (A) (A) (A) (A) (A) (A) (A) (A) (A)
                 (A) (A) (A) (A) (A) (A) (A) (A) (A) (A) (A) (A)
                 (A) (A) (A) (A) (A) (A) (A) (A) (A) (A) (A) (A)
                 (A) (A) (A) (A) (A) (A) (A) (A) (A) (A) (A) (A)
                 (A) (A) (A) (A) (A) (A) (A) (A) (A) (A) (A) (A)
                 (A) (A) (A) (A) (A) (A) (A) (A) (A) (A) (A) (A)
                 (A) (A) (A) (A) (A) (A) (A) (A) (A) (A) (A) (A)
                 (A) (A) (A) (A) (A) (A) (A) (A) (A) (A) (A) (A)
                 (A) (A) (A) (A) (A) (A) (A) (A) (A) (A) (A) (A)
                 (A) (A) (A) (A) (A) (A) (A) (A) (A) (A) (A) (A)
                 (A) (A) (A) (A) (A) (A) (A) (A) (A) (A) (A) (A)
                 (A) (A) (A) (A) (A) (A) (A) (A) (A) (A) (A) (A)
                 (A) (A) (A) (A) (A) (A) (A) (A) (A) (A) (A) (A)
                 (A) (A) (A) (A) (A) (A) (A) (A) (A) (A) (A) (A)
                 (A) (A) (A) (A) (A) (A) (A) (A) (A) (A) (A) (A)
                 (A) (A) (A) (A) (A) (A) (A) (A) (A) (A) (A) (A)
                 (A) (A) (A) (A) (A) (A) (A) (A) (A) (A) (A) (A)
                 (A) (A) (A) (A) (A) (A) (A) (A) (A) (A) (A) (A)
                 (A) (A) (A) (A) (A) (A) (A) (A) (A) (A) (A) (A)
                 (A) (A) (A) (A) (A) (A) (A) (A) (A) (A) (A) (A)
                 (A) (A) (A) (A) (A) (A) (A) (A) (A) (A) (A) (A)
                 (A) (A) (A) (A) (A) (A) (A) (A) (A) (A) (A) (A)
                 (A) (A) (A) (A) (A) (A) (A) (A) (A) (A) (A) (A)
 The electronic state is 1-A.
 Alpha  occ. eigenvalues --  -14.37808 -14.37807 -14.37796 -14.37749 -14.37692
 Alpha  occ. eigenvalues --  -14.37606 -14.37560 -14.37544 -14.37504 -14.35376
 Alpha  occ. eigenvalues --  -10.26714 -10.26688 -10.26669 -10.26645 -10.26577
 Alpha  occ. eigenvalues --  -10.26455 -10.26453 -10.26420 -10.26402 -10.25202
 Alpha  occ. eigenvalues --  -10.25199 -10.25141 -10.25137 -10.24977 -10.24963
 Alpha  occ. eigenvalues --  -10.24939 -10.24884 -10.24844 -10.24628 -10.24361
 Alpha  occ. eigenvalues --  -10.24340 -10.24332 -10.24324 -10.24309 -10.24307
 Alpha  occ. eigenvalues --  -10.24283 -10.24241 -10.24238 -10.23883 -10.23860
 Alpha  occ. eigenvalues --  -10.23849 -10.23843 -10.23843 -10.23841 -10.23819
 Alpha  occ. eigenvalues --  -10.23790 -10.23785 -10.21705 -10.21667 -10.21647
 Alpha  occ. eigenvalues --  -10.21617 -10.21588 -10.21549 -10.21518 -10.21484
 Alpha  occ. eigenvalues --  -10.21457 -10.21441 -10.21401 -10.21397 -10.21377
 Alpha  occ. eigenvalues --  -10.21361 -10.21336 -10.21325 -10.21306 -10.21289
 Alpha  occ. eigenvalues --  -10.21284 -10.21145  -0.97942  -0.97825  -0.97804
 Alpha  occ. eigenvalues --   -0.97755  -0.96570  -0.95265  -0.95161  -0.94881
 Alpha  occ. eigenvalues --   -0.94798  -0.91314  -0.90480  -0.89769  -0.89727
 Alpha  occ. eigenvalues --   -0.85911  -0.85742  -0.85695  -0.85104  -0.84276
 Alpha  occ. eigenvalues --   -0.80986  -0.80975  -0.80954  -0.80863  -0.80758
 Alpha  occ. eigenvalues --   -0.80746  -0.76899  -0.76807  -0.76641  -0.76312
 Alpha  occ. eigenvalues --   -0.76246  -0.75926  -0.75500  -0.75434  -0.75287
 Alpha  occ. eigenvalues --   -0.74164  -0.68641  -0.68593  -0.68481  -0.68126
 Alpha  occ. eigenvalues --   -0.67951  -0.67254  -0.66818  -0.66689  -0.65741
 Alpha  occ. eigenvalues --   -0.63327  -0.62976  -0.62843  -0.62709  -0.62357
 Alpha  occ. eigenvalues --   -0.62317  -0.61753  -0.61361  -0.60657  -0.60504
 Alpha  occ. eigenvalues --   -0.58921  -0.58338  -0.58297  -0.58185  -0.58118
 Alpha  occ. eigenvalues --   -0.56323  -0.56289  -0.56140  -0.56026  -0.55816
 Alpha  occ. eigenvalues --   -0.55278  -0.54055  -0.53571  -0.53273  -0.52706
 Alpha  occ. eigenvalues --   -0.52604  -0.52532  -0.51321  -0.51169  -0.50928
 Alpha  occ. eigenvalues --   -0.50430  -0.49770  -0.49712  -0.49607  -0.49199
 Alpha  occ. eigenvalues --   -0.49093  -0.48964  -0.48293  -0.47693  -0.47526
 Alpha  occ. eigenvalues --   -0.47485  -0.47323  -0.47234  -0.47173  -0.46732
 Alpha  occ. eigenvalues --   -0.46265  -0.46077  -0.45814  -0.45546  -0.45105
 Alpha  occ. eigenvalues --   -0.45011  -0.44762  -0.44619  -0.44345  -0.44201
 Alpha  occ. eigenvalues --   -0.44081  -0.43713  -0.43621  -0.43589  -0.43400
 Alpha  occ. eigenvalues --   -0.43198  -0.42397  -0.42290  -0.42173  -0.42087
 Alpha  occ. eigenvalues --   -0.42068  -0.41576  -0.41418  -0.41356  -0.40871
 Alpha  occ. eigenvalues --   -0.40136  -0.40094  -0.39984  -0.39918  -0.39579
 Alpha  occ. eigenvalues --   -0.38637  -0.38462  -0.38373  -0.38075  -0.37919
 Alpha  occ. eigenvalues --   -0.37562  -0.37251  -0.36944  -0.36600  -0.36414
 Alpha  occ. eigenvalues --   -0.36206  -0.36126  -0.36094  -0.36023  -0.35950
 Alpha  occ. eigenvalues --   -0.35757  -0.35658  -0.35635  -0.35570  -0.35499
 Alpha  occ. eigenvalues --   -0.35462  -0.35205  -0.34395  -0.34025  -0.33998
 Alpha  occ. eigenvalues --   -0.33882  -0.33725  -0.33650  -0.33557  -0.33332
 Alpha  occ. eigenvalues --   -0.32945  -0.32382  -0.32346  -0.32153  -0.32030
 Alpha  occ. eigenvalues --   -0.31906  -0.31673  -0.29995  -0.29950  -0.29182
 Alpha  occ. eigenvalues --   -0.27760  -0.27588  -0.27486  -0.27451  -0.27128
 Alpha  occ. eigenvalues --   -0.27018  -0.26908  -0.26846  -0.26215  -0.26061
 Alpha  occ. eigenvalues --   -0.25879  -0.25711  -0.25615  -0.25469  -0.25300
 Alpha  occ. eigenvalues --   -0.24506
 Alpha virt. eigenvalues --   -0.06422  -0.06332  -0.06097  -0.05607  -0.05498
 Alpha virt. eigenvalues --   -0.05203  -0.02416  -0.02056  -0.01108   0.03293
 Alpha virt. eigenvalues --    0.03820   0.04206   0.04473   0.04692   0.04935
 Alpha virt. eigenvalues --    0.05086   0.05115   0.05134   0.05147   0.05253
 Alpha virt. eigenvalues --    0.05523   0.05631   0.05718   0.06239   0.06341
 Alpha virt. eigenvalues --    0.06614   0.06925   0.07001   0.07551   0.07631
 Alpha virt. eigenvalues --    0.07797   0.08027   0.08091   0.08591   0.08803
 Alpha virt. eigenvalues --    0.08813   0.08973   0.09108   0.09615   0.09744
 Alpha virt. eigenvalues --    0.09843   0.10142   0.10303   0.10565   0.10861
 Alpha virt. eigenvalues --    0.10886   0.11085   0.11157   0.11271   0.11301
 Alpha virt. eigenvalues --    0.11459   0.11505   0.11582   0.11757   0.11821
 Alpha virt. eigenvalues --    0.12159   0.12242   0.12332   0.12486   0.12679
 Alpha virt. eigenvalues --    0.12804   0.13128   0.13188   0.13257   0.13321
 Alpha virt. eigenvalues --    0.13395   0.13468   0.13545   0.13768   0.13866
 Alpha virt. eigenvalues --    0.13980   0.14028   0.14094   0.14226   0.14285
 Alpha virt. eigenvalues --    0.14505   0.14650   0.14968   0.15096   0.15369
 Alpha virt. eigenvalues --    0.15504   0.15850   0.16053   0.16308   0.16418
 Alpha virt. eigenvalues --    0.16634   0.16678   0.16874   0.17298   0.17608
 Alpha virt. eigenvalues --    0.17965   0.18362   0.18443   0.18647   0.18784
 Alpha virt. eigenvalues --    0.18878   0.19015   0.19110   0.19182   0.19329
 Alpha virt. eigenvalues --    0.19536   0.19743   0.19852   0.20046   0.20143
 Alpha virt. eigenvalues --    0.20251   0.20294   0.20389   0.20537   0.20657
 Alpha virt. eigenvalues --    0.20918   0.21048   0.21104   0.21424   0.21553
 Alpha virt. eigenvalues --    0.21625   0.21767   0.21867   0.22166   0.22284
 Alpha virt. eigenvalues --    0.22416   0.22573   0.22714   0.22838   0.22926
 Alpha virt. eigenvalues --    0.22970   0.23064   0.23365   0.23397   0.23506
 Alpha virt. eigenvalues --    0.23560   0.23835   0.23976   0.24089   0.24169
 Alpha virt. eigenvalues --    0.24223   0.24237   0.24331   0.24540   0.24624
 Alpha virt. eigenvalues --    0.24801   0.24948   0.24990   0.25364   0.25444
 Alpha virt. eigenvalues --    0.25596   0.25668   0.25818   0.25994   0.26200
 Alpha virt. eigenvalues --    0.26262   0.26510   0.26603   0.26868   0.27106
 Alpha virt. eigenvalues --    0.27352   0.27454   0.27573   0.27626   0.27891
 Alpha virt. eigenvalues --    0.27977   0.28123   0.28171   0.28273   0.28532
 Alpha virt. eigenvalues --    0.28808   0.28857   0.29099   0.29144   0.29234
 Alpha virt. eigenvalues --    0.29526   0.29636   0.30053   0.30307   0.30417
 Alpha virt. eigenvalues --    0.30498   0.30567   0.30761   0.30909   0.31106
 Alpha virt. eigenvalues --    0.31226   0.31366   0.31666   0.31799   0.31942
 Alpha virt. eigenvalues --    0.32241   0.32298   0.32615   0.32923   0.33049
 Alpha virt. eigenvalues --    0.33187   0.33362   0.33407   0.33599   0.33811
 Alpha virt. eigenvalues --    0.33999   0.34159   0.34307   0.34594   0.34631
 Alpha virt. eigenvalues --    0.34851   0.35139   0.35448   0.35595   0.35833
 Alpha virt. eigenvalues --    0.36016   0.36190   0.36324   0.36373   0.36511
 Alpha virt. eigenvalues --    0.36603   0.36935   0.37086   0.37125   0.37325
 Alpha virt. eigenvalues --    0.37398   0.37513   0.37674   0.38008   0.38129
 Alpha virt. eigenvalues --    0.38214   0.38431   0.38516   0.38670   0.38988
 Alpha virt. eigenvalues --    0.39023   0.39210   0.39415   0.39642   0.39669
 Alpha virt. eigenvalues --    0.39807   0.40126   0.40168   0.40413   0.40601
 Alpha virt. eigenvalues --    0.40783   0.40832   0.41106   0.41168   0.41323
 Alpha virt. eigenvalues --    0.41372   0.41481   0.41698   0.41893   0.41991
 Alpha virt. eigenvalues --    0.42087   0.42298   0.42425   0.42473   0.42642
 Alpha virt. eigenvalues --    0.42725   0.43044   0.43061   0.43110   0.43265
 Alpha virt. eigenvalues --    0.43388   0.43509   0.43592   0.43652   0.43667
 Alpha virt. eigenvalues --    0.43773   0.43908   0.43966   0.44103   0.44277
 Alpha virt. eigenvalues --    0.44382   0.44490   0.44582   0.44668   0.44759
 Alpha virt. eigenvalues --    0.44911   0.44966   0.45026   0.45151   0.45323
 Alpha virt. eigenvalues --    0.45419   0.45519   0.45612   0.45728   0.45763
 Alpha virt. eigenvalues --    0.45777   0.45852   0.46024   0.46058   0.46146
 Alpha virt. eigenvalues --    0.46227   0.46381   0.46545   0.46730   0.46774
 Alpha virt. eigenvalues --    0.46859   0.46949   0.47057   0.47299   0.47433
 Alpha virt. eigenvalues --    0.47564   0.47673   0.47696   0.47767   0.47945
 Alpha virt. eigenvalues --    0.48105   0.48175   0.48356   0.48378   0.48546
 Alpha virt. eigenvalues --    0.48684   0.48782   0.48869   0.49039   0.49256
 Alpha virt. eigenvalues --    0.49398   0.49421   0.49567   0.49860   0.49954
 Alpha virt. eigenvalues --    0.50038   0.50217   0.50293   0.50471   0.50520
 Alpha virt. eigenvalues --    0.50657   0.50745   0.50895   0.50997   0.51071
 Alpha virt. eigenvalues --    0.51392   0.51539   0.51664   0.51759   0.52008
 Alpha virt. eigenvalues --    0.52159   0.52298   0.52410   0.52524   0.52759
 Alpha virt. eigenvalues --    0.52808   0.52883   0.53046   0.53260   0.53536
 Alpha virt. eigenvalues --    0.53792   0.54009   0.54142   0.54342   0.54593
[...]
 Alpha virt. eigenvalues --    3.69186   3.69378   3.69796   3.70237   3.70493
 Alpha virt. eigenvalues --    3.70966   3.71376   3.71482   3.71915   3.72101
 Alpha virt. eigenvalues --    3.72512   3.73092   3.73541   3.73729   3.73997
 Alpha virt. eigenvalues --    3.74286   3.74549   3.74648   3.75154   3.75501
 Alpha virt. eigenvalues --    3.75759   3.76242   3.76553   3.76867   3.77125
 Alpha virt. eigenvalues --    3.77355   3.77620   3.77894   3.78608   3.78752
 Alpha virt. eigenvalues --    3.79243   3.79579   3.79979   3.80116   3.80459
 Alpha virt. eigenvalues --    3.80779   3.81250   3.81609   3.81963   3.82054
 Alpha virt. eigenvalues --    3.82211   3.82441   3.83123   3.83304   3.83642
 Alpha virt. eigenvalues --    3.84323   3.84505   3.84779   3.84997   3.85398
 Alpha virt. eigenvalues --    3.85753   3.85957   3.86338   3.86430   3.86627
 Alpha virt. eigenvalues --    3.87225   3.87603   3.88105   3.88174   3.88737
 Alpha virt. eigenvalues --    3.89021   3.89561   3.89749   3.90010   3.90660
 Alpha virt. eigenvalues --    3.91340   3.91470   3.92663   3.93109   3.93249
 Alpha virt. eigenvalues --    3.93442   3.93783   3.93900   3.94363   3.94545
 Alpha virt. eigenvalues --    3.95355   3.95430   3.96424   3.96532   3.96960
 Alpha virt. eigenvalues --    3.97158   3.97614   3.97995   3.98157   3.98435
 Alpha virt. eigenvalues --    3.98713   3.98768   3.99165   3.99203   3.99687
 Alpha virt. eigenvalues --    3.99692   3.99904   4.00510   4.00745   4.01077
 Alpha virt. eigenvalues --    4.01412   4.01695   4.01913   4.02240   4.02543
 Alpha virt. eigenvalues --    4.02846   4.03023   4.03297   4.03572   4.03673
 Alpha virt. eigenvalues --    4.03978   4.04053   4.04467   4.04595   4.04771
 Alpha virt. eigenvalues --    4.05133   4.05314   4.05633   4.05931   4.07052
 Alpha virt. eigenvalues --    4.07296   4.07513   4.07831   4.08119   4.08334
 Alpha virt. eigenvalues --    4.08803   4.08877   4.09077   4.09214   4.09683
 Alpha virt. eigenvalues --    4.09729   4.10447   4.10671   4.10804   4.11612
 Alpha virt. eigenvalues --    4.12416   4.12536   4.12792   4.13239   4.13435
 Alpha virt. eigenvalues --    4.13928   4.14128   4.14345   4.14615   4.15193
 Alpha virt. eigenvalues --    4.15403   4.15830   4.15884   4.16536   4.16628
 Alpha virt. eigenvalues --    4.17217   4.17550   4.17736   4.17908   4.18059
 Alpha virt. eigenvalues --    4.18597   4.18947   4.19078   4.19336   4.19439
 Alpha virt. eigenvalues --    4.19679   4.19811   4.20049   4.20194   4.20341
 Alpha virt. eigenvalues --    4.20367   4.20747   4.21331   4.21611   4.21903
 Alpha virt. eigenvalues --    4.22647   4.23093   4.23263   4.23502   4.23734
 Alpha virt. eigenvalues --    4.23914   4.24404   4.24560   4.24671   4.24895
 Alpha virt. eigenvalues --    4.25002   4.25045   4.25400   4.25501   4.25792
 Alpha virt. eigenvalues --    4.26174   4.26468   4.26930   4.27004   4.27386
 Alpha virt. eigenvalues --    4.27698   4.27960   4.28112   4.28385   4.28588
 Alpha virt. eigenvalues --    4.28860   4.29158   4.29196   4.29499   4.29942
 Alpha virt. eigenvalues --    4.30577   4.30746   4.31212   4.31285   4.31675
 Alpha virt. eigenvalues --    4.32142   4.32429   4.32786   4.32941   4.33206
 Alpha virt. eigenvalues --    4.33322   4.34117   4.34452   4.34704   4.35297
 Alpha virt. eigenvalues --    4.35734   4.35948   4.36420   4.37043   4.37451
 Alpha virt. eigenvalues --    4.37897   4.38276   4.38496   4.38919   4.39239
 Alpha virt. eigenvalues --    4.39307   4.39931   4.40003   4.40266   4.40521
 Alpha virt. eigenvalues --    4.40561   4.40991   4.41157   4.41437   4.41772
 Alpha virt. eigenvalues --    4.41888   4.43100   4.43777   4.44281   4.44481
 Alpha virt. eigenvalues --    4.44761   4.45276   4.46003   4.46546   4.47878
 Alpha virt. eigenvalues --    4.50083   4.50844   4.52519   4.52750   4.53521
 Alpha virt. eigenvalues --    4.53797   4.54511   4.54980   4.55238   4.55753
 Alpha virt. eigenvalues --    4.56082   4.56618   4.57412   4.58083   4.58770
 Alpha virt. eigenvalues --    4.59622   4.59773   4.60184   4.60256   4.61118
 Alpha virt. eigenvalues --    4.61344   4.61697   4.62161   4.62449   4.62820
 Alpha virt. eigenvalues --    4.63189   4.63428   4.64184   4.64605   4.64842
 Alpha virt. eigenvalues --    4.65412   4.65715   4.65920   4.67174   4.67461
 Alpha virt. eigenvalues --    4.67535   4.67757   4.68278   4.68744   4.69147
 Alpha virt. eigenvalues --    4.69521   4.69665   4.69812   4.70240   4.70605
 Alpha virt. eigenvalues --    4.70936   4.71329   4.71565   4.72398   4.72538
 Alpha virt. eigenvalues --    4.72900   4.73492   4.74071   4.74229   4.75058
 Alpha virt. eigenvalues --    4.75300   4.76431   4.76792   4.76994   4.77862
 Alpha virt. eigenvalues --    4.78440   4.80236   4.80362   4.80764   4.81075
 Alpha virt. eigenvalues --    4.81670   4.82254   4.82562   4.83029   4.83202
 Alpha virt. eigenvalues --    4.83513   4.83744   4.84221   4.84650   4.84772
 Alpha virt. eigenvalues --    4.84888   4.86017   4.86388   4.86559   4.87233
 Alpha virt. eigenvalues --    4.87427   4.87675   4.88742   4.88887   4.89259
 Alpha virt. eigenvalues --    4.89921   4.90921   4.91265   4.91477   4.91827
 Alpha virt. eigenvalues --    4.92194   4.92461   4.92877   4.93168   4.93483
 Alpha virt. eigenvalues --    4.93917   4.94229   4.94323   4.94943   4.95707
 Alpha virt. eigenvalues --    4.96535   4.96666   4.96934   4.98011   4.99247
 Alpha virt. eigenvalues --    5.00021   5.00998   5.01259   5.01609   5.02159
 Alpha virt. eigenvalues --    5.02457   5.02734   5.03913   5.04509   5.05013
 Alpha virt. eigenvalues --    5.05448   5.05451   5.06076   5.06250   5.06537
 Alpha virt. eigenvalues --    5.07509   5.07794   5.08003   5.08600   5.08853
 Alpha virt. eigenvalues --    5.09342   5.09581   5.09810   5.10140   5.10543
 Alpha virt. eigenvalues --    5.11028   5.11427   5.11683   5.11834   5.12456
 Alpha virt. eigenvalues --    5.12751   5.13993   5.14170   5.14664   5.15683
 Alpha virt. eigenvalues --    5.16877   5.17332   5.19047   5.19294   5.19815
 Alpha virt. eigenvalues --    5.20572   5.20965   5.22515   5.23703   5.24158
 Alpha virt. eigenvalues --    5.24659   5.25084   5.25855   5.26182   5.26432
 Alpha virt. eigenvalues --    5.26626   5.27359   5.27746   5.29671   5.31461
 Alpha virt. eigenvalues --    5.32524   5.33486   5.34297   5.34338   5.34887
 Alpha virt. eigenvalues --    5.35769   5.36530   5.37554   5.38390   5.38694
 Alpha virt. eigenvalues --    5.39317   5.39929   5.40920   5.40991   5.41509
 Alpha virt. eigenvalues --    5.42481   5.43378   5.43679   5.44159   5.45406
 Alpha virt. eigenvalues --    5.45644   5.46086   5.46289   5.46805   5.47004
 Alpha virt. eigenvalues --    5.47436   5.47876   5.48429   5.48688   5.49238
 Alpha virt. eigenvalues --    5.49762   5.50496   5.50960   5.51775   5.52573
 Alpha virt. eigenvalues --    5.53047   5.53944   5.54597   5.55028   5.55519
 Alpha virt. eigenvalues --    5.57512   5.59715   5.60432   5.61510   5.65550
 Alpha virt. eigenvalues --    5.66695   5.67359   5.68016   5.70059   5.70335
 Alpha virt. eigenvalues --    5.71179   5.72050   5.73023   5.73873   5.74707
 Alpha virt. eigenvalues --    5.78046   5.78424   5.78921   5.79242   5.80430
 Alpha virt. eigenvalues --    5.81191   5.81750   5.83394   5.84267   5.84626
 Alpha virt. eigenvalues --    5.91916   5.95251   5.97104   5.98200   5.99411
 Alpha virt. eigenvalues --    5.99671   6.00695   6.01254   6.02000   6.02533
 Alpha virt. eigenvalues --    6.02759   6.06205   6.06769   6.07667   6.08410
 Alpha virt. eigenvalues --    6.09238   6.10568   6.13268   6.15673  22.43687
 Alpha virt. eigenvalues --   22.49572  22.50595  22.56293  22.56344  22.56660
 Alpha virt. eigenvalues --   22.58971  22.59113  22.59234  22.59439  22.60628
 Alpha virt. eigenvalues --   22.61263  22.63676  22.63923  22.63958  22.64126
 Alpha virt. eigenvalues --   22.66690  22.67360  22.68308  22.68379  22.68534
 Alpha virt. eigenvalues --   22.72320  22.73180  22.82056  22.84099  22.84273
 Alpha virt. eigenvalues --   22.84537  22.87082  22.88797  22.89217  22.89681
 Alpha virt. eigenvalues --   22.90227  22.91214  22.92314  22.93511  22.94560
 Alpha virt. eigenvalues --   22.94743  22.94950  22.99019  23.03530  23.05985
 Alpha virt. eigenvalues --   23.07780  23.14067  23.14786  23.14964  23.16009
 Alpha virt. eigenvalues --   23.16128  23.16706  23.17465  23.17933  23.18370
 Alpha virt. eigenvalues --   23.18938  23.20249  23.22144  23.52024  23.53144
 Alpha virt. eigenvalues --   23.54620  32.20720  32.76278  32.77278  32.79818
 Alpha virt. eigenvalues --   32.81885  32.86122  32.88562  32.89494  32.89975
 Alpha virt. eigenvalues --   32.92323
          Condensed to atoms (all electrons):
 Mulliken charges:
               1
     1  C    0.355556
     2  C   -0.190863
     3  C   -0.360833
     4  C    0.371338
     5  H    0.126911
     6  C   -0.375257
     7  C    0.324377
     8  H    0.123159
     9  C   -0.284091
    10  C   -0.165199
    11  H    0.130026
    12  C   -0.166215
    13  H    0.085225
    14  H    0.098926
    15  H    0.091990
    16  C    0.364433
    17  C   -0.154076
    18  C   -0.364333
    19  C    0.372177
    20  H    0.136116
    21  C   -0.361857
    22  C    0.362641
    23  H    0.120138
    24  C   -0.362643
    25  C   -0.172493
    26  H    0.122014
    27  C   -0.184213
    28  H    0.087749
    29  H    0.109687
    30  H    0.090078
    31  C    0.306466
    32  C   -0.156468
    33  C   -0.295016
    34  C    0.372307
    35  H    0.129415
    36  C   -0.386424
    37  C    0.364534
    38  H    0.122071
    39  C   -0.330789
    40  C   -0.170372
    41  H    0.125116
    42  C   -0.177837
    43  H    0.087465
    44  H    0.097618
    45  C    0.015481
    46  C    0.084748
    47  N   -0.205478
    48  N   -0.220794
    49  C    0.010562
    50  C   -0.022740
    51  N   -0.521904
    52  N   -0.201234
    53  C    0.031823
    54  C    0.029734
    55  N   -0.196090
    56  N   -0.195151
    57  C    0.018721
    58  C    0.048308
    59  N   -0.195702
    60  N   -0.200972
    61  C    0.068511
    62  C    0.014343
    63  N   -0.193811
    64  N   -0.198433
    65  H    0.230461
    66  H    0.217534
    67  H    0.091677
    68  C   -0.254179
    69  C   -0.181835
    70  C   -0.196323
    71  C   -0.196358
    72  C   -0.192523
    73  H    0.053528
    74  C   -0.179557
    75  H    0.112216
    76  H    0.104110
    77  C   -0.188484
    78  H    0.112997
    79  H    0.092838
    80  C   -0.168845
    81  H    0.093011
    82  H    0.112529
    83  H    0.100108
    84  H    0.109089
    85  H    0.059600
    86  H    0.050169
    87  C   -0.188252
    88  H    0.105374
    89  H    0.111294
    90  C   -0.192845
    91  H    0.111227
    92  H    0.096685
    93  C   -0.157166
    94  H    0.097544
    95  H    0.113219
    96  H    0.104656
    97  H    0.078654
    98  H    0.063225
    99  H    0.056932
   100  C   -0.174131
   101  H    0.054859
   102  C   -0.191878
   103  H    0.100672
   104  H    0.109492
   105  C   -0.179490
   106  H    0.112917
   107  H    0.094059
   108  H    0.093474
   109  H    0.113142
   110  H    0.105871
   111  H    0.112501
   112  H    0.055182
   113  C   -0.172129
   114  H    0.059063
   115  C   -0.193024
   116  H    0.100305
   117  H    0.108838
   118  C   -0.178520
   119  H    0.112529
   120  H    0.093869
   121  H    0.113013
   122  H    0.093303
   123  H    0.105054
   124  H    0.112426
   125  H    0.046988
   126  C   -0.183118
   127  H    0.088156
   128  C   -0.189146
   129  H    0.094693
   130  H    0.111472
   131  C   -0.169676
   132  H    0.111640
   133  H    0.096557
   134  H    0.098746
   135  H    0.111130
   136  H    0.117102
   137  H    0.133275
 Sum of Mulliken charges =   0.00000
 Mulliken charges with hydrogens summed into heavy atoms:
               1
     1  C    0.355556
     2  C   -0.091937
     3  C   -0.233922
     4  C    0.371338
     6  C   -0.252098
     7  C    0.324377
     9  C   -0.154065
    10  C   -0.079974
    12  C   -0.074225
    16  C    0.364433
    17  C   -0.044389
    18  C   -0.228218
    19  C    0.372177
    21  C   -0.241718
    22  C    0.362641
    24  C   -0.240628
    25  C   -0.084744
    27  C   -0.094135
    31  C    0.306466
    32  C   -0.064791
    33  C   -0.165600
    34  C    0.372307
    36  C   -0.264353
    37  C    0.364534
    39  C   -0.205673
    40  C   -0.082908
    42  C   -0.080220
    45  C    0.065650
    46  C    0.147973
    47  N   -0.205478
    48  N   -0.220794
    49  C    0.098717
    50  C    0.024248
    51  N   -0.073909
    52  N   -0.201234
    53  C    0.091423
    54  C    0.083262
    55  N   -0.196090
    56  N   -0.195151
    57  C    0.073903
    58  C    0.107372
    59  N   -0.195702
    60  N   -0.200972
    61  C    0.123370
    62  C    0.071275
    63  N   -0.193811
    64  N   -0.198433
    68  C   -0.003803
    69  C    0.034833
    70  C    0.022049
    71  C    0.021122
    72  C    0.023804
    74  C    0.026278
    77  C    0.017056
    80  C    0.040352
    87  C    0.019661
    90  C    0.017918
    93  C    0.026144
   100  C    0.036032
   102  C    0.015098
   105  C    0.027126
   113  C    0.037014
   115  C    0.013374
   118  C    0.027796
   126  C    0.023047
   128  C    0.019051
   131  C    0.040200
 Electronic spatial extent (au):  <R**2>=          60128.0969
 Charge=              0.0000 electrons
 Dipole moment (field-independent basis, Debye):
    X=              1.2626    Y=             -1.1483    Z=              0.8381  Tot=              1.9013
 Quadrupole moment (field-independent basis, Debye-Ang):
   XX=           -384.3718   YY=           -388.9086   ZZ=           -384.4762
   XY=             18.7476   XZ=              6.9602   YZ=              5.6884
 Traceless Quadrupole moment (field-independent basis, Debye-Ang):
   XX=              1.5470   YY=             -2.9897   ZZ=              1.4427
   XY=             18.7476   XZ=              6.9602   YZ=              5.6884
 Octapole moment (field-independent basis, Debye-Ang**2):
  XXX=            215.6077  YYY=            162.6224  ZZZ=             88.7505  XYY=             19.2742
  XXY=           -143.0881  XXZ=            -32.3757  XZZ=             -5.6432  YZZ=            -86.3855
  YYZ=             -6.0420  XYZ=             20.1453
 Hexadecapole moment (field-independent basis, Debye-Ang**3):
 XXXX=         -35809.5734 YYYY=         -23012.6320 ZZZZ=         -21718.3015 XXXY=            595.5784
 XXXZ=           -265.6590 YYYX=            341.7672 YYYZ=             26.0289 ZZZX=            268.3714
 ZZZY=            -58.9337 XXYY=         -10115.9688 XXZZ=          -9586.2259 YYZZ=          -7715.1161
 XXYZ=            268.6886 YYXZ=              8.7872 ZZXY=             39.4435
 N-N= 1.043966796924D+04 E-N=-2.729244565384D+04  KE= 2.746587511093D+03
 Leave Link  601 at Mon Oct 18 22:50:19 2021, MaxMem=  7864320000 cpu:              41.3 elap:               1.7
 (Enter /apps/gaussian/g16-c01-avx/g16/l9999.exe)
 Unable to Open any file for archive entry.
 1\1\GINC-CX3-6-2\SP\RPBE1PBE\def2TZVP\C57H70N10\ATARZIA\18-Oct-2021\0\
 \#P PBE1PBE/Def2TZVP SP SCF=(YQC,MaxCycle=900) int=(Grid=Superfinegrid
 ) EmpiricalDispersion=GD3 SCRF=(PCM,Solvent=Chloroform)\\_3_alde1_5_am
 i3_2_opt_cfm\\0,1\C,0,-3.3192,-1.4255,-0.146\C,0,-3.3564,-1.1076,1.272
 \C,0,-2.5731,-2.4936,-0.6411\C,0,-2.492,-2.7238,-2.0107\H,0,-2.0589,-3
 .1312,0.0618\C,0,-3.1191,-1.844,-2.8936\C,0,-3.8664,-0.775,-2.414\H,0,
 -3.0129,-2.0216,-3.9529\C,0,-3.9863,-0.5927,-1.0375\C,0,-4.4386,0.2077
 ,-3.3247\H,0,-4.5811,0.2349,-0.6845\C,0,-1.7324,-3.8594,-2.5106\H,0,-4
 .0123,0.2154,-4.3404\H,0,-4.0515,-0.2998,1.5473\H,0,-1.2664,-4.4917,-1
 .7401\C,0,2.0145,-2.0023,0.2643\C,0,1.7556,-2.6109,1.5636\C,0,2.6454,-
 0.7629,0.1638\C,0,2.9003,-0.1917,-1.0779\H,0,2.9384,-0.259,1.073\C,0,2
 .4923,-0.8577,-2.2332\C,0,1.8652,-2.095,-2.1495\H,0,2.6861,-0.3928,-3.
 1876\C,0,1.6381,-2.6653,-0.8978\C,0,1.4148,-2.7776,-3.3546\H,0,1.1551,
 -3.6293,-0.8551\C,0,3.5561,1.1043,-1.1539\H,0,1.3266,-2.1496,-4.2549\H
 ,0,1.28,-3.5971,1.5208\H,0,3.7243,1.604,-0.1869\C,0,-0.9369,1.9432,0.5
 275\C,0,-0.712,1.0674,1.6704\C,0,-2.2373,2.2615,0.1409\C,0,-2.4828,2.9
 321,-1.0524\H,0,-3.0502,1.9333,0.7693\C,0,-1.4077,3.327,-1.8469\C,0,-0
 .1027,3.0806,-1.4372\H,0,-1.6145,3.829,-2.7797\C,0,0.1264,2.3752,-0.25
 67\C,0,1.0246,3.4638,-2.2789\H,0,1.145,2.1536,0.0214\C,0,-3.8562,3.106
 7,-1.4967\H,0,0.8128,3.5242,-3.3586\H,0,-4.6252,2.8251,-0.7613\C,0,-1.
 402,-0.14,3.5426\C,0,-2.6042,-1.1128,3.4536\N,0,-1.6002,0.8605,2.541\N
 ,0,-2.611,-1.6582,2.1297\C,0,3.2845,-2.5802,4.6294\C,0,1.889,-2.5637,3
 .9423\N,0,3.9818,-1.3125,4.561\N,0,2.0669,-2.0177,2.6328\C,0,-0.785,-5
 .1979,-4.1537\C,0,0.5989,-4.6175,-4.5325\N,0,-1.6161,-4.1085,-3.7423\N
 ,0,1.1324,-4.0059,-3.3578\C,0,-5.7202,2.0887,-3.8318\C,0,-5.5331,3.416
 7,-3.0559\N,0,-5.319,1.0319,-2.9577\N,0,-4.1592,3.4857,-2.6621\C,0,4.4
 169,2.9692,-2.2162\C,0,3.2781,3.9079,-2.676\N,0,3.9028,1.635,-2.2449\N
 ,0,2.1703,3.6772,-1.802\H,0,4.0685,-1.0315,3.5901\H,0,3.4425,-0.5952,5
 .0367\H,0,0.2617,0.5532,1.6881\C,0,1.2338,-3.9421,4.057\C,0,-1.3696,0.
 487,4.9376\C,0,3.767,5.3547,-2.5978\C,0,-7.1895,1.952,-4.233\C,0,1.511
 5,-5.7516,-5.0019\H,0,0.46,-3.8867,-5.3501\C,0,0.8994,-6.472,-6.1981\H
 ,0,2.486,-5.3351,-5.266\H,0,1.6567,-6.4475,-4.1739\C,0,-0.4794,-7.023,
 -5.847\H,0,1.5575,-7.2849,-6.5117\H,0,0.8081,-5.7732,-7.033\C,0,-1.395
 5,-5.9054,-5.3606\H,0,-0.3788,-7.7757,-5.0615\H,0,-0.9206,-7.5071,-6.7
 204\H,0,-1.5508,-5.1708,-6.1524\H,0,-2.371,-6.3074,-5.0801\H,0,-0.621,
 -5.9161,-3.3311\H,0,-0.4735,-0.7102,3.3638\C,0,-1.2595,-0.5912,6.0108\
 H,0,-2.2816,1.0696,5.0795\H,0,-0.5209,1.1721,4.9987\C,0,-2.4087,-1.589
 5,5.9026\H,0,-1.2622,-0.1258,6.9988\H,0,-0.3104,-1.1204,5.895\C,0,-2.4
 614,-2.205,4.5081\H,0,-3.3517,-1.0769,6.1064\H,0,-2.2886,-2.3772,6.649
 5\H,0,-3.3061,-2.8922,4.4283\H,0,-1.5497,-2.7687,4.3084\H,0,-3.5148,-0
 .518,3.6471\H,0,3.0215,3.6686,-3.7237\C,0,5.6148,3.1338,-3.1465\H,0,4.
 6935,3.2695,-1.1894\C,0,6.1037,4.5787,-3.114\H,0,5.3172,2.8542,-4.1584
 \H,0,6.4107,2.4564,-2.8308\C,0,4.9838,5.5425,-3.4989\H,0,6.9461,4.6984
 ,-3.798\H,0,6.4539,4.8168,-2.1068\H,0,4.6936,5.3624,-4.5368\H,0,5.3391
 ,6.5723,-3.4246\H,0,4.0199,5.5875,-1.562\H,0,2.959,6.0222,-2.9058\H,0,
 -5.0935,2.1222,-4.7414\C,0,-5.9198,4.5876,-3.9535\H,0,-6.2014,3.3755,-
 2.1773\C,0,-7.3747,4.4542,-4.3925\H,0,-5.2593,4.5982,-4.822\H,0,-5.772
 ,5.5212,-3.4073\C,0,-7.6057,3.1276,-5.1115\H,0,-7.6388,5.2836,-5.0514\
 H,0,-8.0219,4.5058,-3.5136\H,0,-8.6595,3.029,-5.3797\H,0,-7.022,3.1109
 ,-6.0349\H,0,-7.8002,1.9169,-3.3293\H,0,-7.3262,1.01,-4.7688\H,0,1.277
 5,-1.8258,4.4835\C,0,3.1265,-3.,6.0903\H,0,3.9077,-3.3148,4.1041\C,0,2
 .448,-4.36,6.2083\H,0,2.5316,-2.2463,6.6133\H,0,4.1144,-3.0231,6.5518\
 C,0,1.0857,-4.3379,5.5223\H,0,2.3308,-4.6239,7.2612\H,0,3.0771,-5.1205
 ,5.7403\H,0,0.4331,-3.6234,6.0306\H,0,0.6169,-5.3221,5.591\H,0,1.8562,
 -4.6804,3.5443\H,0,0.2532,-3.9263,3.5731\\Version=ES64L-G16RevC.01\Sta
 te=1-A\HF=-2759.5393075\RMSD=2.403e-09\Dipole=-0.502407,-0.2721698,-0.
 4827756\Quadrupole=-12.1727642,1.0429146,11.1298495,-0.0881468,-7.2911
 918,-7.2739932\PG=C01 [X(C57H70N10)]\\@
 The archive entry for this job was punched.


 WE HAVE LEARNED THAT NOTHING IS SIMPLE AND
 RATIONAL EXCEPT WHAT WE OURSELVES HAVE INVENTED;
 THAT GOD THINKS IN TERMS NEITHER OF EUCLID OR RIEMANN; THAT SCIENCE HAS "EXPLAINED" NOTHING;
 THAT THE MORE WE KNOW THE MORE FANTASTIC THE WORLD BECOMES
 AND THE PROFOUNDER THE SURROUNDING DARKNESS.
   --  ALDOUS HUXLEY
 Job cpu time:       2 days 12 hours 55 minutes 42.2 seconds.
 Elapsed time:       0 days  1 hours 55 minutes 39.4 seconds.
 File lengths (MBytes):  RWF=   4664 Int=      0 D2E=      0 Chk=    376 Scr=     16
 Normal termination of Gaussian 16 at Mon Oct 18 22:50:19 2021.
