 Entering Gaussian System, Link 0=g16
 Initial command:
 /apps/gaussian/g16-c01-avx/g16/l1.exe "/rds/general/ephemeral/user/atarzia/ephemeral/Gau-2762156.inp" -scrdir="/rds/general/ephemeral/user/atarzia/ephemeral/"
 Entering Link 1 = /apps/gaussian/g16-c01-avx/g16/l1.exe PID=   2762157.
  
 Copyright (c) 1988-2019, Gaussian, Inc.  All Rights Reserved.
  
 This is part of the Gaussian(R) 16 program.  It is based on
 the Gaussian(R) 09 system (copyright 2009, Gaussian, Inc.),
 the Gaussian(R) 03 system (copyright 2003, Gaussian, Inc.),
 the Gaussian(R) 98 system (copyright 1998, Gaussian, Inc.),
 the Gaussian(R) 94 system (copyright 1995, Gaussian, Inc.),
 the Gaussian 92(TM) system (copyright 1992, Gaussian, Inc.),
 the Gaussian 90(TM) system (copyright 1990, Gaussian, Inc.),
 the Gaussian 88(TM) system (copyright 1988, Gaussian, Inc.),
 the Gaussian 86(TM) system (copyright 1986, Carnegie Mellon
 University), and the Gaussian 82(TM) system (copyright 1983,
 Carnegie Mellon University). Gaussian is a federally registered
 trademark of Gaussian, Inc.
  
 This software contains proprietary and confidential information,
 including trade secrets, belonging to Gaussian, Inc.
  
 This software is provided under written license and may be
 used, copied, transmitted, or stored only in accord with that
 written license.
  
 The following legend is applicable only to US Government
 contracts under FAR:
  
                    RESTRICTED RIGHTS LEGEND
  
 Use, reproduction and disclosure by the US Government is
 subject to restrictions as set forth in subparagraphs (a)
 and (c) of the Commercial Computer Software - Restricted
 Rights clause in FAR 52.227-19.
  
 Gaussian, Inc.
 340 Quinnipiac St., Bldg. 40, Wallingford CT 06492
  
  
 ---------------------------------------------------------------
 Warning -- This program may not be used in any manner that
 competes with the business of Gaussian, Inc. or will provide
 assistance to any competitor of Gaussian, Inc.  The licensee
 of this program is prohibited from giving any competitor of
 Gaussian, Inc. access to this program.  By using this program,
 the user acknowledges that Gaussian, Inc. is engaged in the
 business of creating and licensing software in the field of
 computational chemistry and represents and warrants to the
 licensee that it is not a competitor of Gaussian, Inc. and that
 it will not use this program in any manner prohibited above.
 ---------------------------------------------------------------
  

 Cite this work as:
 Gaussian 16, Revision C.01,
 M. J. Frisch, G. W. Trucks, H. B. Schlegel, G. E. Scuseria, 
 M. A. Robb, J. R. Cheeseman, G. Scalmani, V. Barone, 
 G. A. Petersson, H. Nakatsuji, X. Li, M. Caricato, A. V. Marenich, 
 J. Bloino, B. G. Janesko, R. Gomperts, B. Mennucci, H. P. Hratchian, 
 J. V. Ortiz, A. F. Izmaylov, J. L. Sonnenberg, D. Williams-Young, 
 F. Ding, F. Lipparini, F. Egidi, J. Goings, B. Peng, A. Petrone, 
 T. Henderson, D. Ranasinghe, V. G. Zakrzewski, J. Gao, N. Rega, 
 G. Zheng, W. Liang, M. Hada, M. Ehara, K. Toyota, R. Fukuda, 
 J. Hasegawa, M. Ishida, T. Nakajima, Y. Honda, O. Kitao, H. Nakai, 
 T. Vreven, K. Throssell, J. A. Montgomery, Jr., J. E. Peralta, 
 F. Ogliaro, M. J. Bearpark, J. J. Heyd, E. N. Brothers, K. N. Kudin, 
 V. N. Staroverov, T. A. Keith, R. Kobayashi, J. Normand, 
 K. Raghavachari, A. P. Rendell, J. C. Burant, S. S. Iyengar, 
 J. Tomasi, M. Cossi, J. M. Millam, M. Klene, C. Adamo, R. Cammi, 
 J. W. Ochterski, R. L. Martin, K. Morokuma, O. Farkas, 
 J. B. Foresman, and D. J. Fox, Gaussian, Inc., Wallingford CT, 2019.
 
 ******************************************
 Gaussian 16:  ES64L-G16RevC.01  3-Jul-2019
                18-Oct-2021 
 ******************************************
 %chk=_3_alde1_6_ami4_2_opt_dcm.chk
 %mem=60000mb
 %nprocshared=32
 Will use up to   32 processors via shared memory.
 ----------------------------------------------------------------------
 #P PBE1PBE/Def2TZVP SP SCF=(YQC,MaxCycle=900) int=(Grid=Superfinegrid)
  EmpiricalDispersion=GD3 SCRF=(PCM,Solvent=Dichloromethane)
 ----------------------------------------------------------------------
 1/38=1,172=1/1;
 2/12=2,17=6,18=5,40=1/2;
 3/5=44,7=101,11=2,25=1,30=1,70=2201,72=9,74=-13,75=-7,124=31/1,2,3;
 4//1;
 5/5=2,7=900,8=4,13=1,38=1,53=9/8,2,8;
 6/7=2,8=2,9=2,10=2,28=1/1;
 99/5=1,9=1/99;
 Leave Link    1 at Mon Oct 18 09:21:21 2021, MaxMem=  7864320000 cpu:               8.9 elap:               0.3
 (Enter /apps/gaussian/g16-c01-avx/g16/l101.exe)
 -------------------------
 _3_alde1_6_ami4_2_opt_dcm
 -------------------------
 Symbolic Z-matrix:
 Charge =  0 Multiplicity = 1
 C                    -2.919    -0.7776    0.4039 
 C                    -3.1744   -0.4237    1.792 
 C                    -2.1704   -1.9053    0.0604 
 C                    -1.9778   -2.2482   -1.2734 
 H                    -1.7644   -2.5217    0.8479 
 C                    -2.5063   -1.4302   -2.2713 
 C                    -3.253    -0.3041   -1.9473 
 H                    -2.3384   -1.7092   -3.3001 
 C                    -3.466     0.0086   -0.6061 
 C                    -3.7858    0.5375   -3.0094 
 H                    -4.0631    0.8757   -0.369 
 C                    -1.2615   -3.4647   -1.6376 
 H                    -3.3349    0.3828   -4.0021 
 H                    -3.8556    0.4265    1.9424 
 H                    -0.7588   -3.9972   -0.8169 
 C                     3.3106   -1.5316   -0.1768 
 C                     3.209    -1.878     1.2352 
 C                     3.9596   -0.3669   -0.5797 
 C                     3.9737    0.0095   -1.921 
 H                     4.4479    0.256     0.1581 
 C                     3.3184   -0.7824   -2.8633 
 C                     2.6748   -1.952    -2.4744 
 H                     3.3263   -0.4624   -3.894 
 C                     2.6834   -2.3229   -1.1329 
 C                     1.9295   -2.7644   -3.4278 
 H                     2.179    -3.2247   -0.8278 
 C                     4.6276    1.2473   -2.3166 
 H                     1.7007   -2.2964   -4.3977 
 H                     3.7414   -1.2262    1.9424 
 H                     5.0231    1.8596   -1.4907 
 C                     0.3249    2.984    -0.1774 
 C                     0.7129    2.6711    1.1945 
 C                    -1.0219    3.0853   -0.5211 
 C                    -1.4036    3.3723   -1.8264 
 H                    -1.7579    2.9352    0.2538 
 C                    -0.4239    3.5245   -2.8076 
 C                     0.9232    3.4338   -2.4774 
 H                    -0.7375    3.73     -3.8198 
 C                     1.2915    3.1774   -1.1566 
 C                     1.9466    3.5615   -3.5069 
 H                     2.3434    3.114    -0.9225 
 C                    -2.8176    3.4909   -2.1418 
 H                     1.6031    3.4106   -4.5423 
 H                     1.7894    2.7482    1.3942 
 H                    -3.4957    3.386    -1.282 
 C                    -3.6322   -1.91      4.819 
 C                    -3.0151   -0.6841    4.1072 
 N                    -2.7584   -3.0569    4.9106 
 N                    -2.668    -1.045     2.7685 
 C                     0.7527   -2.9798    3.2474 
 C                     2.2644   -3.0888    2.9972 
 N                     0.3018   -1.6319    2.9336 
 N                     2.4917   -2.846     1.6099 
 C                     1.5793    1.8363    3.8583 
 C                     0.1169    2.0036    3.4057 
 N                     2.2613    0.6828    3.2995 
 N                    -0.1577    2.3409    2.0441 
 C                    -0.5398   -5.0741   -3.1644 
 C                     0.7079   -4.6851   -3.98 
 N                    -1.26     -3.8889   -2.8257 
 N                     1.5531   -3.9265   -3.1212 
 C                    -5.0946    2.2469   -3.879 
 C                    -4.6661    3.6853   -3.5113 
 N                    -4.7018    1.3822   -2.8143 
 N                    -3.2497    3.7002   -3.3102 
 C                     5.2864    2.8894   -3.8143 
 C                     4.1416    3.8255   -4.2488 
 N                     4.731     1.6061   -3.5215 
 N                     3.1478    3.8146   -3.2236 
 H                     2.3029    0.7648    2.2876 
 H                     1.7117   -0.1555    3.4915 
 H                    -1.909    -2.8126    5.4097 
 H                    -2.4912   -3.3564    3.9791 
 H                    -0.7118   -1.5626    3.0164 
 H                     0.5206   -1.4328    1.9601 
 H                     3.7435    3.5058   -5.2248 
 H                     4.5401    4.8407   -4.3367 
 H                     5.7946    3.3324   -2.943 
 H                     5.9925    2.7839   -4.6415 
 H                     2.5838   -4.1101    3.2236 
 H                     2.8038   -2.3817    3.6468 
 H                     0.5491   -3.1741    4.3043 
 H                     0.2501   -3.7547    2.6476 
 H                     0.4089   -4.138    -4.8883 
 H                     1.234    -5.6018   -4.2621 
 H                    -0.2135   -5.6392   -2.2778 
 H                    -1.1898   -5.6958   -3.7857 
 H                    -4.5319   -2.2163    4.2783 
 H                    -3.9205   -1.6142    5.8312 
 H                    -2.094    -0.4075    4.6328 
 H                    -3.7172    0.1641    4.1492 
 H                     1.5828    1.7237    4.9463 
 H                     2.154     2.736     3.6172 
 H                    -0.3703    2.7752    4.0133 
 H                    -0.4199    1.0638    3.5848 
 H                    -5.2179    3.9876   -2.609 
 H                    -4.9088    4.3526   -4.3405 
 H                    -4.6376    1.9671   -4.8416 
 H                    -6.1837    2.2214   -3.9646 
 
 ITRead=  0  0  0  0  0  0  0  0  0  0  0  0  0  0  0  0  0  0  0  0
 ITRead=  0  0  0  0  0  0  0  0  0  0  0  0  0  0  0  0  0  0  0  0
 ITRead=  0  0  0  0  0  0  0  0  0  0  0  0  0  0  0  0  0  0  0  0
 ITRead=  0  0  0  0  0  0  0  0  0  0  0  0  0  0  0  0  0  0  0  0
 ITRead=  0  0  0  0  0  0  0  0  0  0  0  0  0  0  0  0  0  0  0
 MicOpt= -1 -1 -1 -1 -1 -1 -1 -1 -1 -1 -1 -1 -1 -1 -1 -1 -1 -1 -1 -1
 MicOpt= -1 -1 -1 -1 -1 -1 -1 -1 -1 -1 -1 -1 -1 -1 -1 -1 -1 -1 -1 -1
 MicOpt= -1 -1 -1 -1 -1 -1 -1 -1 -1 -1 -1 -1 -1 -1 -1 -1 -1 -1 -1 -1
 MicOpt= -1 -1 -1 -1 -1 -1 -1 -1 -1 -1 -1 -1 -1 -1 -1 -1 -1 -1 -1 -1
 MicOpt= -1 -1 -1 -1 -1 -1 -1 -1 -1 -1 -1 -1 -1 -1 -1 -1 -1 -1 -1
 NAtoms=     99 NQM=       99 NQMF=       0 NMMI=      0 NMMIF=      0
                NMic=       0 NMicF=      0.
                    Isotopes and Nuclear Properties:
 (Nuclear quadrupole moments (NQMom) in fm**2, nuclear magnetic moments (NMagM)
  in nuclear magnetons)

  Atom         1           2           3           4           5           6           7           8           9          10
 IAtWgt=          12          12          12          12           1          12          12           1          12          12
 AtmWgt=  12.0000000  12.0000000  12.0000000  12.0000000   1.0078250  12.0000000  12.0000000   1.0078250  12.0000000  12.0000000
 NucSpn=           0           0           0           0           1           0           0           1           0           0
 AtZEff=  -0.0000000  -0.0000000  -0.0000000  -0.0000000  -0.0000000  -0.0000000  -0.0000000  -0.0000000  -0.0000000  -0.0000000
 NQMom=    0.0000000   0.0000000   0.0000000   0.0000000   0.0000000   0.0000000   0.0000000   0.0000000   0.0000000   0.0000000
 NMagM=    0.0000000   0.0000000   0.0000000   0.0000000   2.7928460   0.0000000   0.0000000   2.7928460   0.0000000   0.0000000
 AtZNuc=   6.0000000   6.0000000   6.0000000   6.0000000   1.0000000   6.0000000   6.0000000   1.0000000   6.0000000   6.0000000

  Atom        11          12          13          14          15          16          17          18          19          20
 IAtWgt=           1          12           1           1           1          12          12          12          12           1
 AtmWgt=   1.0078250  12.0000000   1.0078250   1.0078250   1.0078250  12.0000000  12.0000000  12.0000000  12.0000000   1.0078250
 NucSpn=           1           0           1           1           1           0           0           0           0           1
 AtZEff=  -0.0000000  -0.0000000  -0.0000000  -0.0000000  -0.0000000  -0.0000000  -0.0000000  -0.0000000  -0.0000000  -0.0000000
 NQMom=    0.0000000   0.0000000   0.0000000   0.0000000   0.0000000   0.0000000   0.0000000   0.0000000   0.0000000   0.0000000
 NMagM=    2.7928460   0.0000000   2.7928460   2.7928460   2.7928460   0.0000000   0.0000000   0.0000000   0.0000000   2.7928460
 AtZNuc=   1.0000000   6.0000000   1.0000000   1.0000000   1.0000000   6.0000000   6.0000000   6.0000000   6.0000000   1.0000000

  Atom        21          22          23          24          25          26          27          28          29          30
 IAtWgt=          12          12           1          12          12           1          12           1           1           1
 AtmWgt=  12.0000000  12.0000000   1.0078250  12.0000000  12.0000000   1.0078250  12.0000000   1.0078250   1.0078250   1.0078250
 NucSpn=           0           0           1           0           0           1           0           1           1           1
 AtZEff=  -0.0000000  -0.0000000  -0.0000000  -0.0000000  -0.0000000  -0.0000000  -0.0000000  -0.0000000  -0.0000000  -0.0000000
 NQMom=    0.0000000   0.0000000   0.0000000   0.0000000   0.0000000   0.0000000   0.0000000   0.0000000   0.0000000   0.0000000
 NMagM=    0.0000000   0.0000000   2.7928460   0.0000000   0.0000000   2.7928460   0.0000000   2.7928460   2.7928460   2.7928460
 AtZNuc=   6.0000000   6.0000000   1.0000000   6.0000000   6.0000000   1.0000000   6.0000000   1.0000000   1.0000000   1.0000000

  Atom        31          32          33          34          35          36          37          38          39          40
 IAtWgt=          12          12          12          12           1          12          12           1          12          12
 AtmWgt=  12.0000000  12.0000000  12.0000000  12.0000000   1.0078250  12.0000000  12.0000000   1.0078250  12.0000000  12.0000000
 NucSpn=           0           0           0           0           1           0           0           1           0           0
 AtZEff=  -0.0000000  -0.0000000  -0.0000000  -0.0000000  -0.0000000  -0.0000000  -0.0000000  -0.0000000  -0.0000000  -0.0000000
 NQMom=    0.0000000   0.0000000   0.0000000   0.0000000   0.0000000   0.0000000   0.0000000   0.0000000   0.0000000   0.0000000
 NMagM=    0.0000000   0.0000000   0.0000000   0.0000000   2.7928460   0.0000000   0.0000000   2.7928460   0.0000000   0.0000000
 AtZNuc=   6.0000000   6.0000000   6.0000000   6.0000000   1.0000000   6.0000000   6.0000000   1.0000000   6.0000000   6.0000000

  Atom        41          42          43          44          45          46          47          48          49          50
 IAtWgt=           1          12           1           1           1          12          12          14          14          12
 AtmWgt=   1.0078250  12.0000000   1.0078250   1.0078250   1.0078250  12.0000000  12.0000000  14.0030740  14.0030740  12.0000000
 NucSpn=           1           0           1           1           1           0           0           2           2           0
 AtZEff=  -0.0000000  -0.0000000  -0.0000000  -0.0000000  -0.0000000  -0.0000000  -0.0000000  -0.0000000  -0.0000000  -0.0000000
 NQMom=    0.0000000   0.0000000   0.0000000   0.0000000   0.0000000   0.0000000   0.0000000   2.0440000   2.0440000   0.0000000
 NMagM=    2.7928460   0.0000000   2.7928460   2.7928460   2.7928460   0.0000000   0.0000000   0.4037610   0.4037610   0.0000000
 AtZNuc=   1.0000000   6.0000000   1.0000000   1.0000000   1.0000000   6.0000000   6.0000000   7.0000000   7.0000000   6.0000000

  Atom        51          52          53          54          55          56          57          58          59          60
 IAtWgt=          12          14          14          12          12          14          14          12          12          14
 AtmWgt=  12.0000000  14.0030740  14.0030740  12.0000000  12.0000000  14.0030740  14.0030740  12.0000000  12.0000000  14.0030740
 NucSpn=           0           2           2           0           0           2           2           0           0           2
 AtZEff=  -0.0000000  -0.0000000  -0.0000000  -0.0000000  -0.0000000  -0.0000000  -0.0000000  -0.0000000  -0.0000000  -0.0000000
 NQMom=    0.0000000   2.0440000   2.0440000   0.0000000   0.0000000   2.0440000   2.0440000   0.0000000   0.0000000   2.0440000
 NMagM=    0.0000000   0.4037610   0.4037610   0.0000000   0.0000000   0.4037610   0.4037610   0.0000000   0.0000000   0.4037610
 AtZNuc=   6.0000000   7.0000000   7.0000000   6.0000000   6.0000000   7.0000000   7.0000000   6.0000000   6.0000000   7.0000000

  Atom        61          62          63          64          65          66          67          68          69          70
 IAtWgt=          14          12          12          14          14          12          12          14          14           1
 AtmWgt=  14.0030740  12.0000000  12.0000000  14.0030740  14.0030740  12.0000000  12.0000000  14.0030740  14.0030740   1.0078250
 NucSpn=           2           0           0           2           2           0           0           2           2           1
 AtZEff=  -0.0000000  -0.0000000  -0.0000000  -0.0000000  -0.0000000  -0.0000000  -0.0000000  -0.0000000  -0.0000000  -0.0000000
 NQMom=    2.0440000   0.0000000   0.0000000   2.0440000   2.0440000   0.0000000   0.0000000   2.0440000   2.0440000   0.0000000
 NMagM=    0.4037610   0.0000000   0.0000000   0.4037610   0.4037610   0.0000000   0.0000000   0.4037610   0.4037610   2.7928460
 AtZNuc=   7.0000000   6.0000000   6.0000000   7.0000000   7.0000000   6.0000000   6.0000000   7.0000000   7.0000000   1.0000000

  Atom        71          72          73          74          75          76          77          78          79          80
 IAtWgt=           1           1           1           1           1           1           1           1           1           1
 AtmWgt=   1.0078250   1.0078250   1.0078250   1.0078250   1.0078250   1.0078250   1.0078250   1.0078250   1.0078250   1.0078250
 NucSpn=           1           1           1           1           1           1           1           1           1           1
 AtZEff=  -0.0000000  -0.0000000  -0.0000000  -0.0000000  -0.0000000  -0.0000000  -0.0000000  -0.0000000  -0.0000000  -0.0000000
 NQMom=    0.0000000   0.0000000   0.0000000   0.0000000   0.0000000   0.0000000   0.0000000   0.0000000   0.0000000   0.0000000
 NMagM=    2.7928460   2.7928460   2.7928460   2.7928460   2.7928460   2.7928460   2.7928460   2.7928460   2.7928460   2.7928460
 AtZNuc=   1.0000000   1.0000000   1.0000000   1.0000000   1.0000000   1.0000000   1.0000000   1.0000000   1.0000000   1.0000000

  Atom        81          82          83          84          85          86          87          88          89          90
 IAtWgt=           1           1           1           1           1           1           1           1           1           1
 AtmWgt=   1.0078250   1.0078250   1.0078250   1.0078250   1.0078250   1.0078250   1.0078250   1.0078250   1.0078250   1.0078250
 NucSpn=           1           1           1           1           1           1           1           1           1           1
 AtZEff=  -0.0000000  -0.0000000  -0.0000000  -0.0000000  -0.0000000  -0.0000000  -0.0000000  -0.0000000  -0.0000000  -0.0000000
 NQMom=    0.0000000   0.0000000   0.0000000   0.0000000   0.0000000   0.0000000   0.0000000   0.0000000   0.0000000   0.0000000
 NMagM=    2.7928460   2.7928460   2.7928460   2.7928460   2.7928460   2.7928460   2.7928460   2.7928460   2.7928460   2.7928460
 AtZNuc=   1.0000000   1.0000000   1.0000000   1.0000000   1.0000000   1.0000000   1.0000000   1.0000000   1.0000000   1.0000000

  Atom        91          92          93          94          95          96          97          98          99
 IAtWgt=           1           1           1           1           1           1           1           1           1
 AtmWgt=   1.0078250   1.0078250   1.0078250   1.0078250   1.0078250   1.0078250   1.0078250   1.0078250   1.0078250
 NucSpn=           1           1           1           1           1           1           1           1           1
 AtZEff=  -0.0000000  -0.0000000  -0.0000000  -0.0000000  -0.0000000  -0.0000000  -0.0000000  -0.0000000  -0.0000000
 NQMom=    0.0000000   0.0000000   0.0000000   0.0000000   0.0000000   0.0000000   0.0000000   0.0000000   0.0000000
 NMagM=    2.7928460   2.7928460   2.7928460   2.7928460   2.7928460   2.7928460   2.7928460   2.7928460   2.7928460
 AtZNuc=   1.0000000   1.0000000   1.0000000   1.0000000   1.0000000   1.0000000   1.0000000   1.0000000   1.0000000
 Leave Link  101 at Mon Oct 18 09:21:21 2021, MaxMem=  7864320000 cpu:               3.7 elap:               0.1
 (Enter /apps/gaussian/g16-c01-avx/g16/l202.exe)
 Stoichiometry    C39H48N12
 Framework group  C1[X(C39H48N12)]
 Deg. of freedom   291
 Full point group                 C1      NOp   1
 Largest Abelian subgroup         C1      NOp   1
 Largest concise Abelian subgroup C1      NOp   1
                         Standard orientation:                         
 ---------------------------------------------------------------------
 Center     Atomic      Atomic             Coordinates (Angstroms)
 Number     Number       Type             X           Y           Z
 ---------------------------------------------------------------------
      1          6           0        2.564023    1.871743    0.587156
      2          6           0        3.514128    1.918011   -0.513960
      3          6           0        2.516682    0.790789    1.469992
      4          6           0        1.630516    0.789866    2.541628
      5          1           0        3.197263   -0.033763    1.322123
      6          6           0        0.756492    1.863924    2.705097
      7          6           0        0.789621    2.947242    1.835635
      8          1           0        0.070889    1.839983    3.538065
      9          6           0        1.705940    2.949558    0.785720
     10          6           0       -0.140470    4.051570    2.024347
     11          1           0        1.733131    3.805526    0.129072
     12          6           0        1.627852   -0.300220    3.509774
     13          1           0       -0.997644    3.836654    2.681431
     14          1           0        3.527433    2.858534   -1.083815
     15          1           0        2.244302   -1.175681    3.258041
     16          6           0       -0.472386   -3.633459    0.155161
     17          6           0        0.769157   -4.051663   -0.483381
     18          6           0       -1.654050   -3.541675   -0.576482
     19          6           0       -2.817382   -3.052216    0.013475
     20          1           0       -1.664785   -3.843639   -1.615469
     21          6           0       -2.790285   -2.637950    1.344678
     22          6           0       -1.618899   -2.733223    2.087783
     23          1           0       -3.698107   -2.244931    1.776189
     24          6           0       -0.469055   -3.239441    1.488729
     25          6           0       -1.546421   -2.249401    3.460773
     26          1           0        0.441833   -3.307235    2.060073
     27          6           0       -4.032449   -2.932126   -0.777363
     28          1           0       -2.370184   -1.600695    3.796443
     29          1           0        0.700765   -4.370141   -1.533294
     30          1           0       -3.929676   -3.181566   -1.845380
     31          6           0       -1.283164    1.018425   -2.492037
     32          6           0       -0.322354    0.209657   -3.235877
     33          6           0       -0.935220    2.293459   -2.049900
     34          6           0       -1.838046    3.068598   -1.331612
     35          1           0        0.052898    2.660636   -2.281200
     36          6           0       -3.093345    2.545360   -1.021491
     37          6           0       -3.456459    1.278309   -1.462701
     38          1           0       -3.776514    3.153418   -0.448193
     39          6           0       -2.551202    0.525129   -2.210450
     40          6           0       -4.755479    0.718175   -1.112955
     41          1           0       -2.855594   -0.455031   -2.545035
     42          6           0       -1.445975    4.401970   -0.905771
     43          1           0       -5.263945    1.190330   -0.257766
     44          1           0       -0.733244   -0.717258   -3.656203
     45          1           0       -0.446755    4.720544   -1.237660
     46          6           0        6.660532    0.877049   -1.287221
     47          6           0        5.240497    1.099480   -1.856716
     48          7           0        6.877110   -0.424742   -0.699231
     49          7           0        4.285544    0.960047   -0.802453
     50          6           0        3.950627   -2.968568   -0.444968
     51          6           0        3.098048   -4.243346   -0.533111
     52          7           0        3.270482   -1.878075   -1.128228
     53          7           0        1.865483   -3.986451    0.137715
     54          6           0        1.601897   -1.563183   -4.538823
     55          6           0        1.893838   -0.132622   -4.049216
     56          7           0        1.443737   -2.547446   -3.483287
     57          7           0        0.873893    0.588731   -3.354597
     58          6           0        0.977506   -1.297098    5.516119
     59          6           0       -0.404464   -1.977265    5.487642
     60          7           0        0.979165   -0.212178    4.588191
     61          7           0       -0.566555   -2.548231    4.193386
     62          6           0       -0.990050    6.175003    1.623777
     63          6           0       -1.644849    6.395526    0.241598
     64          7           0        0.020626    5.178172    1.480790
     65          7           0       -2.187033    5.150352   -0.208324
     66          6           0       -6.247399   -2.359677   -1.151413
     67          6           0       -6.476940   -0.843252   -1.304406
     68          7           0       -5.131324   -2.559846   -0.282293
     69          7           0       -5.253286   -0.252518   -1.743149
     70          1           0        0.651596   -2.299092   -2.897429
     71          1           0        2.263023   -2.519679   -2.875282
     72          1           0        6.708589   -1.152971   -1.385923
     73          1           0        6.224341   -0.566239    0.064091
     74          1           0        3.782610   -1.004511   -1.011383
     75          1           0        2.362816   -1.734735   -0.691409
     76          1           0       -6.832367   -0.418170   -0.352437
     77          1           0       -7.236337   -0.685019   -2.076053
     78          1           0       -6.081793   -2.795171   -2.149711
     79          1           0       -7.131942   -2.808490   -0.693026
     80          1           0        3.615859   -5.047953   -0.003201
     81          1           0        2.957179   -4.527907   -1.587674
     82          1           0        4.908892   -3.142791   -0.942580
     83          1           0        4.143515   -2.759101    0.618871
     84          1           0       -1.189302   -1.246798    5.740974
     85          1           0       -0.405440   -2.785233    6.225129
     86          1           0        1.742495   -2.053930    5.284026
     87          1           0        1.149499   -0.885428    6.514103
     88          1           0        6.853949    1.629059   -0.517345
     89          1           0        7.383603    1.015178   -2.095461
     90          1           0        5.040649    0.319038   -2.599790
     91          1           0        5.186479    2.083100   -2.350402
     92          1           0        2.442594   -1.882635   -5.161410
     93          1           0        0.704555   -1.571614   -5.165381
     94          1           0        2.183517    0.495431   -4.899830
     95          1           0        2.748094   -0.160144   -3.361507
     96          1           0       -0.877916    6.787216   -0.442805
     97          1           0       -2.459280    7.115283    0.343655
     98          1           0       -1.766228    5.889013    2.351440
     99          1           0       -0.516279    7.109133    1.935318
 ---------------------------------------------------------------------
 Rotational constants (GHZ):           0.0551919           0.0490087           0.0423018
 Leave Link  202 at Mon Oct 18 09:21:21 2021, MaxMem=  7864320000 cpu:               0.2 elap:               0.0
 (Enter /apps/gaussian/g16-c01-avx/g16/l301.exe)
 Standard basis: def2TZVP (5D, 7F)
 Ernie: Thresh=  0.10000D-02 Tol=  0.10000D-05 Strict=F.
 There are  2124 symmetry adapted cartesian basis functions of A   symmetry.
 There are  1869 symmetry adapted basis functions of A   symmetry.
  1869 basis functions,  2985 primitive gaussians,  2124 cartesian basis functions
   183 alpha electrons      183 beta electrons
       nuclear repulsion energy      6827.2892673266 Hartrees.
 IExCor= 1009 DFT=T Ex+Corr=PBE1PBE ExCW=0 ScaHFX=  0.250000
 ScaDFX=  0.750000  0.750000  1.000000  1.000000 ScalE2=  1.000000  1.000000
 IRadAn=      7 IRanWt=     -1 IRanGd=            0 ICorTp=0 IEmpDi=131
 NAtoms=   99 NActive=   99 NUniq=   99 SFac= 1.00D+00 NAtFMM=   60 NAOKFM=T Big=T
 Integral buffers will be    131072 words long.
 Raffenetti 2 integral format.
 Two-electron integral symmetry is turned on.
 R6Disp:  Grimme-D3 Dispersion energy=       -0.0813521515 Hartrees.
 Nuclear repulsion after empirical dispersion term =     6827.2079151751 Hartrees.
 ------------------------------------------------------------------------------
 Polarizable Continuum Model (PCM)
 =================================
 Model                : PCM.
 Atomic radii         : UFF (Universal Force Field).
 Polarization charges : Total charges.
 Charge compensation  : None.
 Solution method      : On-the-fly selection.
 Cavity type          : Scaled VdW (van der Waals Surface) (Alpha=1.100).
 Cavity algorithm     : GePol (No added spheres)
                        Default sphere list used, NSphG=   99.
                        Lebedev-Laikov grids with approx.  5.0 points / Ang**2.
                        Smoothing algorithm: York/Karplus (Gamma=1.0000).
                        Polarization charges: spherical gaussians, with
                                              point-specific exponents (IZeta= 3).
                        Self-potential: point-specific (ISelfS= 7).
                        Self-field    : sphere-specific E.n sum rule (ISelfD= 2).
 Solvent              : Dichloromethane, Eps=   8.930000 Eps(inf)=   2.028346
 ------------------------------------------------------------------------------
 GePol: Number of generator spheres                  =      99
 GePol: Total number of spheres                      =      99
 GePol: Number of exposed spheres                    =      99 (100.00%)
 GePol: Number of points                             =    6325
 GePol: Average weight of points                     =       0.13
 GePol: Minimum weight of points                     =   0.75D-10
 GePol: Maximum weight of points                     =    0.20577
 GePol: Number of points with low weight             =     499
 GePol: Fraction of low-weight points (<1% of avg)   =       7.89%
 GePol: Cavity surface area                          =    796.023 Ang**2
 GePol: Cavity volume                                =    974.520 Ang**3
 Leave Link  301 at Mon Oct 18 09:21:21 2021, MaxMem=  7864320000 cpu:               2.1 elap:               0.1
 (Enter /apps/gaussian/g16-c01-avx/g16/l302.exe)
 NPDir=0 NMtPBC=     1 NCelOv=     1 NCel=       1 NClECP=     1 NCelD=      1
         NCelK=      1 NCelE2=     1 NClLst=     1 CellRange=     0.0.
 One-electron integrals computed using PRISM.
 One-electron integral symmetry used in STVInt
   1 Symmetry operations used in ECPInt.
 ECPInt:  NShTT=  283881 NPrTT=  857352 LenC2=  205715 LenP2D=  400277.
 LDataN:  DoStor=T MaxTD1= 6 Len=  172
 NBasis=  1869 RedAO= T EigKep=  4.84D-06  NBF=  1869
 NBsUse=  1869 1.00D-06 EigRej= -1.00D+00 NBFU=  1869
 Precomputing XC quadrature grid using
 IXCGrd= 4 IRadAn=           7 IRanWt=          -1 IRanGd=           0 AccXCQ= 0.00D+00.
 Generated NRdTot=       0 NPtTot=           0 NUsed=           0 NTot=          32
 NSgBfM=  1894  1874  1890  1892  1894 MxSgAt=    99 MxSgA2=    99.
 Leave Link  302 at Mon Oct 18 09:21:34 2021, MaxMem=  7864320000 cpu:             408.4 elap:              12.9
 (Enter /apps/gaussian/g16-c01-avx/g16/l303.exe)
 DipDrv:  MaxL=1.
 Leave Link  303 at Mon Oct 18 09:21:35 2021, MaxMem=  7864320000 cpu:              20.5 elap:               0.8
 (Enter /apps/gaussian/g16-c01-avx/g16/l401.exe)
 ExpMin= 9.52D-02 ExpMax= 1.97D+04 ExpMxC= 6.73D+02 IAcc=3 IRadAn=         7 AccDes= 0.00D+00
 Harris functional with IExCor= 1009 and IRadAn=       7 diagonalized for initial guess.
 HarFok:  IExCor= 1009 AccDes= 0.00D+00 IRadAn=         7 IDoV= 1 UseB2=F ITyADJ=14
 ICtDFT=  3500011 ScaDFX=  1.000000  1.000000  1.000000  1.000000
 FoFCou: FMM=F IPFlag=           0 FMFlag=      100000 FMFlg1=        2001
         NFxFlg=           0 DoJE=T BraDBF=F KetDBF=T FulRan=T
         wScrn=  0.000000 ICntrl=       500 IOpCl=  0 I1Cent=   200000004 NGrid=           0
         NMat0=    1 NMatS0=      1 NMatT0=    0 NMatD0=    1 NMtDS0=    0 NMtDT0=    0
 Petite list used in FoFCou.
 Harris En= -2170.76593945231    
 JPrj=0 DoOrth=F DoCkMO=F.
 Leave Link  401 at Mon Oct 18 09:22:11 2021, MaxMem=  7864320000 cpu:            1153.9 elap:              36.5
 (Enter /apps/gaussian/g16-c01-avx/g16/l508.exe)
 Integral symmetry usage will be decided dynamically.
 Tight linear equation convergence will be used.
 RPBE1PBE wavefunction.
 Linear searches until partial convergence.
 Full line searches.
 Fock matrices will be formed incrementally for  20 cycles.
 Inv3:  Mode=1 IEnd=   120016875.
 Iteration    1 A*A^-1 deviation from unit magnitude is 6.33D-15 for   6296.
 Iteration    1 A*A^-1 deviation from orthogonality  is 4.95D-15 for   6323   6265.
 Iteration    1 A^-1*A deviation from unit magnitude is 6.33D-15 for   6296.
 Iteration    1 A^-1*A deviation from orthogonality  is 1.81D-09 for   5256   5240.
 Iteration    2 A*A^-1 deviation from unit magnitude is 1.55D-15 for    190.
 Iteration    2 A*A^-1 deviation from orthogonality  is 3.14D-15 for   3418    312.
 Iteration    2 A^-1*A deviation from unit magnitude is 9.99D-16 for      5.
 Iteration    2 A^-1*A deviation from orthogonality  is 6.66D-16 for   6317   4831.
 FoFJK:  IHMeth= 1 ICntrl=       0 DoSepK=F KAlg= 0 I1Cent=           0 FoldK=F
 IRaf= 700000000 NMat=       1 IRICut=       1 DoRegI=T DoRafI=F ISym2E= 1 IDoP0=0 IntGTp=1.
 Iteration   1 EE= -2169.30791295995                                    Grad=1.485D+00 Max rot=    1.8553 deg.
 Gradient too large for Newton-Raphson -- use scaled steepest descent instead.
 Alpha Gap=     0.144 HL deriv= 5.63D-03
     ILin= 1 X=0.000D+00 Y=-2.169307912960D+03 DE= 0.00D+00 F= -3.82D+00
 RMSU=  6.37D-04    CP:  1.01D+00
     ILin= 2 X=3.000D-01 Y=-2.170089771577D+03 DE=-7.82D-01 F= -1.39D+00 OKLS=F
 RMSU=  1.21D-04    CP:  1.02D+00  1.78D+00
     ILin= 3 X=5.000D-01 Y=-2.170202231732D+03 DE=-8.94D-01 F=  2.63D-01
     Accept linear search using points  2 and  3.
     An  expanding polynomial of degree  3 produced  0.3833
 RMSU=  4.99D-08    CP:  1.01D+00  1.31D+00  3.20D-01
 Iteration   2 EE= -2170.17667178285     Delta-E=       -0.868758822899 Grad=5.269D-01 Max rot=    1.7293 deg.
 Gradient too large for Newton-Raphson -- use scaled steepest descent instead.
 Alpha Gap=     0.183 HL deriv= 1.80D-03
     ILin= 1 X=0.000D+00 Y=-2.170176671783D+03 DE= 0.00D+00 F= -2.64D-01
 RMSU=  8.69D-05    CP:  1.01D+00  1.62D+00  7.49D-01 -3.00D+00
     ILin= 2 X=3.000D-01 Y=-2.170236747604D+03 DE=-6.01D-02 F= -1.37D-01 OKLS=F
 RMSU=  1.49D-05    CP:  1.02D+00  2.07D+00  1.58D+00 -3.00D+00  2.38D+00
     ILin= 3 X=7.000D-01 Y=-2.170257436777D+03 DE=-8.08D-02 F=  3.32D-02
     Accept linear search using points  2 and  3.
     An  expanding polynomial of degree  3 produced  0.5144
 RMSU=  3.60D-08    CP:  1.02D+00  1.86D+00  1.16D+00 -3.00D+00  1.73D+00
                    CP:  3.94D-01
 Iteration   3 EE= -2170.25628284522     Delta-E=       -0.079611062372 Grad=2.148D-01 Max rot=    0.7910 deg.
 Gradient too large for Newton-Raphson -- use scaled steepest descent instead.
 Alpha Gap=     0.171 HL deriv= 7.49D-04
     ILin= 1 X=0.000D+00 Y=-2.170256282845D+03 DE= 0.00D+00 F= -3.00D-02
 RMSU=  4.74D-05    CP:  1.02D+00  2.08D+00  1.66D+00 -3.00D+00  2.39D+00
                    CP:  9.83D-01 -3.00D+00
     ILin= 2 X=4.000D-01 Y=-2.170264355681D+03 DE=-8.07D-03 F= -1.03D-02 OKLS=F
 RMSU=  1.96D-05    CP:  1.02D+00  2.36D+00  2.39D+00 -3.00D+00  3.00D+00
                    CP:  2.08D+00 -3.00D+00  2.27D+00
     ILin= 3 X=9.000D-01 Y=-2.170263370774D+03 DE=-7.09D-03 F=  1.43D-02
     An  expanding polynomial of degree  3 produced  0.6100
 RMSU=  1.00D-06    CP:  1.02D+00  2.20D+00  1.95D+00 -3.00D+00  2.74D+00
                    CP:  1.39D+00 -3.00D+00  1.53D+00  9.46D-03
 Iteration   4 EE= -2170.26544054206     Delta-E=       -0.009157696841 Grad=9.055D-02 Max rot=    0.2894 deg.
 Gradient too large for Newton-Raphson -- use scaled steepest descent instead.
 Alpha Gap=     0.176 HL deriv= 7.82D-04
     ILin= 1 X=0.000D+00 Y=-2.170265440542D+03 DE= 0.00D+00 F= -9.42D-03
 RMSU=  3.71D-05    CP:  1.02D+00  2.25D+00  2.08D+00 -3.00D+00  3.00D+00
                    CP:  1.71D+00 -3.00D+00  1.59D+00  9.85D-01 -1.93D+00
     ILin= 2 X=6.000D-01 Y=-2.170266570049D+03 DE=-1.13D-03 F=  5.64D-03 OKLS=T
     Accept linear search using points  1 and  2.
     An  expanding polynomial of degree  2 produced  0.3306
 RMSU=  1.65D-07    CP:  1.02D+00  2.22D+00  2.02D+00 -3.00D+00  3.00D+00
                    CP:  1.56D+00 -3.00D+00  1.56D+00  2.89D-02  1.24D+00
                    CP:  5.49D-01
 Iteration   5 EE= -2170.26718021437     Delta-E=       -0.001739672309 Grad=4.988D-02 Max rot=    0.1850 deg.
 Gradient too large for Newton-Raphson -- use scaled steepest descent instead.
 Alpha Gap=     0.174 HL deriv= 2.29D-05
     ILin= 1 X=0.000D+00 Y=-2.170267180214D+03 DE= 0.00D+00 F= -1.12D-03
 RMSU=  5.66D-06    CP:  1.02D+00  2.29D+00  2.19D+00 -3.00D+00  3.00D+00
                    CP:  1.84D+00 -3.00D+00  1.85D+00  8.97D-01 -4.79D-01
                    CP:  7.73D-01  3.00D+00
     ILin= 2 X=4.000D-01 Y=-2.170267528596D+03 DE=-3.48D-04 F= -6.24D-04 OKLS=F
 RMSU=  3.15D-07    CP:  1.02D+00  2.36D+00  2.40D+00 -3.00D+00  3.00D+00
                    CP:  2.22D+00 -3.00D+00  2.21D+00  1.99D+00 -2.35D+00
                    CP:  1.06D+00  3.00D+00  2.26D+00
     ILin= 3 X=9.000D-01 Y=-2.170267686711D+03 DE=-5.06D-04 F= -8.03D-06
     Reject lnstep IMin12=  2  3 Big=T Turn=F Min= 1.002D+00 FVal=-2.170267687883D+03 Lims=  4.00D-01  9.00D-01
 RMSU=  2.14D-05    CP:  1.03D+00  2.51D+00  2.82D+00 -3.00D+00  3.00D+00
                    CP:  2.99D+00 -3.00D+00  2.86D+00  3.00D+00 -3.00D+00
                    CP:  1.57D+00  3.00D+00  3.00D+00  2.89D+00
     ILin= 4 X=1.800D+00 Y=-2.170267194583D+03 DE=-1.44D-05 F=  1.10D-03
     An  expanding polynomial of degree  4 produced  0.9065
     Minimum is close to point  3 DX=  6.51D-03 DF= -2.61D-08 DXR=  7.18D-03 DFR=  5.16D-05 which will be used.
 Iteration   6 EE= -2170.26768671078     Delta-E=       -0.000506496415 Grad=9.261D-03 Max rot=    0.0347 deg.
 SCF Done:  E(RPBE1PBE) =  -2170.26768671     a.u. after    6 cycles
            Convg  =    0.9261D-02                    15 Fock formations.
              S**2 =  0.0000                  -V/T =  2.0046
 Leave Link  508 at Mon Oct 18 10:13:13 2021, MaxMem=  7864320000 cpu:           96586.5 elap:            3061.1
 (Enter /apps/gaussian/g16-c01-avx/g16/l502.exe)
 Integral symmetry usage will be decided dynamically.
 Closed shell SCF:
 Using DIIS extrapolation, IDIIS=  1040.
 NGot=  7864320000 LenX=  7855208402 LenY=  7850694902
 Requested convergence on RMS density matrix=1.00D-08 within 128 cycles.
 Requested convergence on MAX density matrix=1.00D-06.
 Requested convergence on             energy=1.00D-06.
 No special actions if energy rises.
 Fock matrices will be formed incrementally for  20 cycles.

 Cycle   1  Pass 1  IDiag  1:
 FoFJK:  IHMeth= 1 ICntrl=       0 DoSepK=F KAlg= 0 I1Cent=           0 FoldK=F
 IRaf= 700000000 NMat=       1 IRICut=       1 DoRegI=T DoRafI=F ISym2E= 0 IDoP0=0 IntGTp=1.
 FoFCou: FMM=T IPFlag=           0 FMFlag=      100000 FMFlg1=        2001
         NFxFlg=           0 DoJE=F BraDBF=F KetDBF=F FulRan=T
         wScrn=  0.000000 ICntrl=         0 IOpCl=  0 I1Cent=           0 NGrid=           0
         NMat0=    1 NMatS0=      1 NMatT0=    0 NMatD0=    1 NMtDS0=    0 NMtDT0=    0
 Symmetry not used in FoFCou.
 FMM levels:  10  Number of levels for PrismC:   9
 E= -2170.26768671079    
 DIIS: error= 5.89D-05 at cycle   1 NSaved=   1.
 NSaved= 1 IEnMin= 1 EnMin= -2170.26768671079     IErMin= 1 ErrMin= 5.89D-05
 ErrMax= 5.89D-05  0.00D+00 EMaxC= 1.00D-01 BMatC= 4.29D-05 BMatP= 4.29D-05
 IDIUse=1 WtCom= 1.00D+00 WtEn= 0.00D+00
 Coeff-Com:  0.100D+01
 Coeff:      0.100D+01
 Gap=     0.175 Goal=   None    Shift=    0.000
 RMSDP=2.07D-05 MaxDP=4.59D-03              OVMax= 2.25D-03

 Cycle   2  Pass 1  IDiag  1:
 RMSU=  2.04D-05    CP:  1.00D+00
 E= -2170.26762043449     Delta-E=        0.000066276298 Rises=F Damp=F
 DIIS: error= 1.29D-04 at cycle   2 NSaved=   2.
 NSaved= 2 IEnMin= 1 EnMin= -2170.26768671079     IErMin= 1 ErrMin= 5.89D-05
 ErrMax= 1.29D-04  0.00D+00 EMaxC= 1.00D-01 BMatC= 1.16D-04 BMatP= 4.29D-05
 IDIUse=3 WtCom= 4.68D-01 WtEn= 5.32D-01
 Coeff-Com:  0.634D+00 0.366D+00
 Coeff-En:   0.717D+00 0.283D+00
 Coeff:      0.678D+00 0.322D+00
 Gap=     0.164 Goal=   None    Shift=    0.000
 RMSDP=1.55D-05 MaxDP=4.22D-03 DE= 6.63D-05 OVMax= 1.54D-03

 Cycle   3  Pass 1  IDiag  1:
 RMSU=  1.37D-05    CP:  1.00D+00  1.09D+00
 E= -2170.26772375817     Delta-E=       -0.000103323679 Rises=F Damp=F
 DIIS: error= 3.81D-06 at cycle   3 NSaved=   3.
 NSaved= 3 IEnMin= 3 EnMin= -2170.26772375817     IErMin= 3 ErrMin= 3.81D-06
 ErrMax= 3.81D-06  0.00D+00 EMaxC= 1.00D-01 BMatC= 1.82D-07 BMatP= 4.29D-05
 IDIUse=1 WtCom= 1.00D+00 WtEn= 0.00D+00
 Coeff-Com:  0.732D-02-0.110D-01 0.100D+01
 Coeff:      0.732D-02-0.110D-01 0.100D+01
 Gap=     0.165 Goal=   None    Shift=    0.000
 RMSDP=2.10D-06 MaxDP=5.69D-04 DE=-1.03D-04 OVMax= 8.38D-05

 Cycle   4  Pass 1  IDiag  1:
 RMSU=  6.82D-07    CP:  1.00D+00  1.16D+00  1.09D+00
 E= -2170.26772381030     Delta-E=       -0.000000052133 Rises=F Damp=F
 DIIS: error= 4.11D-06 at cycle   4 NSaved=   4.
 NSaved= 4 IEnMin= 4 EnMin= -2170.26772381030     IErMin= 3 ErrMin= 3.81D-06
 ErrMax= 4.11D-06  0.00D+00 EMaxC= 1.00D-01 BMatC= 1.59D-07 BMatP= 1.82D-07
 IDIUse=1 WtCom= 1.00D+00 WtEn= 0.00D+00
 Coeff-Com: -0.120D-01-0.168D-01 0.514D+00 0.515D+00
 Coeff:     -0.120D-01-0.168D-01 0.514D+00 0.515D+00
 Gap=     0.164 Goal=   None    Shift=    0.000
 RMSDP=3.77D-07 MaxDP=6.26D-05 DE=-5.21D-08 OVMax= 5.26D-05

 Cycle   5  Pass 1  IDiag  1:
 RMSU=  3.18D-07    CP:  1.00D+00  1.17D+00  1.09D+00  7.56D-01
 E= -2170.26772395191     Delta-E=       -0.000000141606 Rises=F Damp=F
 DIIS: error= 9.86D-07 at cycle   5 NSaved=   5.
 NSaved= 5 IEnMin= 5 EnMin= -2170.26772395191     IErMin= 5 ErrMin= 9.86D-07
 ErrMax= 9.86D-07  0.00D+00 EMaxC= 1.00D-01 BMatC= 7.07D-09 BMatP= 1.59D-07
 IDIUse=1 WtCom= 1.00D+00 WtEn= 0.00D+00
 Coeff-Com: -0.524D-02-0.640D-02 0.103D+00 0.207D+00 0.702D+00
 Coeff:     -0.524D-02-0.640D-02 0.103D+00 0.207D+00 0.702D+00
 Gap=     0.164 Goal=   None    Shift=    0.000
 RMSDP=1.09D-07 MaxDP=2.31D-05 DE=-1.42D-07 OVMax= 1.62D-05

 Cycle   6  Pass 1  IDiag  1:
 RMSU=  8.60D-08    CP:  1.00D+00  1.17D+00  1.09D+00  8.38D-01  9.29D-01
 E= -2170.26772395717     Delta-E=       -0.000000005260 Rises=F Damp=F
 DIIS: error= 6.19D-07 at cycle   6 NSaved=   6.
 NSaved= 6 IEnMin= 6 EnMin= -2170.26772395717     IErMin= 6 ErrMin= 6.19D-07
 ErrMax= 6.19D-07  0.00D+00 EMaxC= 1.00D-01 BMatC= 1.71D-09 BMatP= 7.07D-09
 IDIUse=1 WtCom= 1.00D+00 WtEn= 0.00D+00
 Coeff-Com: -0.192D-02-0.229D-02 0.175D-01 0.808D-01 0.414D+00 0.492D+00
 Coeff:     -0.192D-02-0.229D-02 0.175D-01 0.808D-01 0.414D+00 0.492D+00
 Gap=     0.164 Goal=   None    Shift=    0.000
 RMSDP=5.18D-08 MaxDP=1.51D-05 DE=-5.26D-09 OVMax= 7.02D-06

 Cycle   7  Pass 1  IDiag  1:
 RMSU=  2.68D-08    CP:  1.00D+00  1.17D+00  1.09D+00  8.32D-01  1.01D+00
                    CP:  6.62D-01
 E= -2170.26772395856     Delta-E=       -0.000000001391 Rises=F Damp=F
 DIIS: error= 1.59D-07 at cycle   7 NSaved=   7.
 NSaved= 7 IEnMin= 7 EnMin= -2170.26772395856     IErMin= 7 ErrMin= 1.59D-07
 ErrMax= 1.59D-07  0.00D+00 EMaxC= 1.00D-01 BMatC= 1.26D-10 BMatP= 1.71D-09
 IDIUse=1 WtCom= 1.00D+00 WtEn= 0.00D+00
 Coeff-Com: -0.259D-03-0.267D-03-0.530D-02 0.139D-01 0.118D+00 0.252D+00
 Coeff-Com:  0.622D+00
 Coeff:     -0.259D-03-0.267D-03-0.530D-02 0.139D-01 0.118D+00 0.252D+00
 Coeff:      0.622D+00
 Gap=     0.164 Goal=   None    Shift=    0.000
 RMSDP=1.75D-08 MaxDP=4.97D-06 DE=-1.39D-09 OVMax= 2.47D-06

 Cycle   8  Pass 1  IDiag  1:
 RMSU=  1.08D-08    CP:  1.00D+00  1.17D+00  1.09D+00  8.41D-01  9.96D-01
                    CP:  7.21D-01  7.16D-01
 E= -2170.26772395870     Delta-E=       -0.000000000144 Rises=F Damp=F
 DIIS: error= 6.07D-08 at cycle   8 NSaved=   8.
 NSaved= 8 IEnMin= 8 EnMin= -2170.26772395870     IErMin= 8 ErrMin= 6.07D-08
 ErrMax= 6.07D-08  0.00D+00 EMaxC= 1.00D-01 BMatC= 1.78D-11 BMatP= 1.26D-10
 IDIUse=1 WtCom= 1.00D+00 WtEn= 0.00D+00
 Coeff-Com:  0.959D-04 0.163D-03-0.490D-02-0.378D-02 0.287D-02 0.623D-01
 Coeff-Com:  0.328D+00 0.615D+00
 Coeff:      0.959D-04 0.163D-03-0.490D-02-0.378D-02 0.287D-02 0.623D-01
 Coeff:      0.328D+00 0.615D+00
 Gap=     0.164 Goal=   None    Shift=    0.000
 RMSDP=6.20D-09 MaxDP=1.59D-06 DE=-1.44D-10 OVMax= 1.03D-06

 Cycle   9  Pass 1  IDiag  1:
 RMSU=  3.57D-09    CP:  1.00D+00  1.17D+00  1.09D+00  8.42D-01  1.01D+00
                    CP:  7.25D-01  8.11D-01  8.18D-01
 E= -2170.26772395857     Delta-E=        0.000000000138 Rises=F Damp=F
 DIIS: error= 2.11D-08 at cycle   9 NSaved=   9.
 NSaved= 9 IEnMin= 8 EnMin= -2170.26772395870     IErMin= 9 ErrMin= 2.11D-08
 ErrMax= 2.11D-08  0.00D+00 EMaxC= 1.00D-01 BMatC= 1.45D-12 BMatP= 1.78D-11
 IDIUse=1 WtCom= 1.00D+00 WtEn= 0.00D+00
 Coeff-Com:  0.643D-04 0.953D-04-0.184D-02-0.278D-02-0.817D-02 0.943D-02
 Coeff-Com:  0.104D+00 0.290D+00 0.610D+00
 Coeff:      0.643D-04 0.953D-04-0.184D-02-0.278D-02-0.817D-02 0.943D-02
 Coeff:      0.104D+00 0.290D+00 0.610D+00
 Gap=     0.164 Goal=   None    Shift=    0.000
 RMSDP=1.71D-09 MaxDP=4.75D-07 DE= 1.38D-10 OVMax= 4.05D-07

 Error on total polarization charges =  0.02451
 SCF Done:  E(RPBE1PBE) =  -2170.26772396     A.U. after    9 cycles
            NFock=  9  Conv=0.17D-08     -V/T= 2.0045
 KE= 2.160446226859D+03 PE=-1.870310666178D+04 EE= 7.545184795784D+03
 Leave Link  502 at Mon Oct 18 10:44:34 2021, MaxMem=  7864320000 cpu:           59393.7 elap:            1881.3
 (Enter /apps/gaussian/g16-c01-avx/g16/l508.exe)
 QCSCF skips out because SCF is already converged.
 Leave Link  508 at Mon Oct 18 10:44:34 2021, MaxMem=  7864320000 cpu:               0.1 elap:               0.0
 (Enter /apps/gaussian/g16-c01-avx/g16/l601.exe)
 Copying SCF densities to generalized density rwf, IOpCl= 0 IROHF=0.

 **********************************************************************

            Population analysis using the SCF Density.

 **********************************************************************

 Orbital symmetries:
       Occupied  (A) (A) (A) (A) (A) (A) (A) (A) (A) (A) (A) (A)
                 (A) (A) (A) (A) (A) (A) (A) (A) (A) (A) (A) (A)
                 (A) (A) (A) (A) (A) (A) (A) (A) (A) (A) (A) (A)
                 (A) (A) (A) (A) (A) (A) (A) (A) (A) (A) (A) (A)
                 (A) (A) (A) (A) (A) (A) (A) (A) (A) (A) (A) (A)
                 (A) (A) (A) (A) (A) (A) (A) (A) (A) (A) (A) (A)
                 (A) (A) (A) (A) (A) (A) (A) (A) (A) (A) (A) (A)
                 (A) (A) (A) (A) (A) (A) (A) (A) (A) (A) (A) (A)
                 (A) (A) (A) (A) (A) (A) (A) (A) (A) (A) (A) (A)
                 (A) (A) (A) (A) (A) (A) (A) (A) (A) (A) (A) (A)
                 (A) (A) (A) (A) (A) (A) (A) (A) (A) (A) (A) (A)
                 (A) (A) (A) (A) (A) (A) (A) (A) (A) (A) (A) (A)
                 (A) (A) (A) (A) (A) (A) (A) (A) (A) (A) (A) (A)
                 (A) (A) (A) (A) (A) (A) (A) (A) (A) (A) (A) (A)
                 (A) (A) (A) (A) (A) (A) (A) (A) (A) (A) (A) (A)
                 (A) (A) (A)
       Virtual   (A) (A) (A) (A) (A) (A) (A) (A) (A) (A) (A) (A)
                 (A) (A) (A) (A) (A) (A) (A) (A) (A) (A) (A) (A)
                 (A) (A) (A) (A) (A) (A) (A) (A) (A) (A) (A) (A)
                 (A) (A) (A) (A) (A) (A) (A) (A) (A) (A) (A) (A)
                 (A) (A) (A) (A) (A) (A) (A) (A) (A) (A) (A) (A)
                 (A) (A) (A) (A) (A) (A) (A) (A) (A) (A) (A) (A)
                 (A) (A) (A) (A) (A) (A) (A) (A) (A) (A) (A) (A)
                 (A) (A) (A) (A) (A) (A) (A) (A) (A) (A) (A) (A)
                 (A) (A) (A) (A) (A) (A) (A) (A) (A) (A) (A) (A)
                 (A) (A) (A) (A) (A) (A) (A) (A) (A) (A) (A) (A)
                 (A) (A) (A) (A) (A) (A) (A) (A) (A) (A) (A) (A)
                 (A) (A) (A) (A) (A) (A) (A) (A) (A) (A) (A) (A)
                 (A) (A) (A) (A) (A) (A) (A) (A) (A) (A) (A) (A)
                 (A) (A) (A) (A) (A) (A) (A) (A) (A) (A) (A) (A)
                 (A) (A) (A) (A) (A) (A) (A) (A) (A) (A) (A) (A)
                 (A) (A) (A) (A) (A) (A) (A) (A) (A) (A) (A) (A)
                 (A) (A) (A) (A) (A) (A) (A) (A) (A) (A) (A) (A)
                 (A) (A) (A) (A) (A) (A) (A) (A) (A) (A) (A) (A)
                 (A) (A) (A) (A) (A) (A) (A) (A) (A) (A) (A) (A)
                 (A) (A) (A) (A) (A) (A) (A) (A) (A) (A) (A) (A)
                 (A) (A) (A) (A) (A) (A) (A) (A) (A) (A) (A) (A)
                 (A) (A) (A) (A) (A) (A) (A) (A) (A) (A) (A) (A)
                 (A) (A) (A) (A) (A) (A) (A) (A) (A) (A) (A) (A)
                 (A) (A) (A) (A) (A) (A) (A) (A) (A) (A) (A) (A)
                 (A) (A) (A) (A) (A) (A) (A) (A) (A) (A) (A) (A)
                 (A) (A) (A) (A) (A) (A) (A) (A) (A) (A) (A) (A)
                 (A) (A) (A) (A) (A) (A) (A) (A) (A) (A) (A) (A)
                 (A) (A) (A) (A) (A) (A) (A) (A) (A) (A) (A) (A)
                 (A) (A) (A) (A) (A) (A) (A) (A) (A) (A) (A) (A)
                 (A) (A) (A) (A) (A) (A) (A) (A) (A) (A) (A) (A)
                 (A) (A) (A) (A) (A) (A) (A) (A) (A) (A) (A) (A)
                 (A) (A) (A) (A) (A) (A) (A) (A) (A) (A) (A) (A)
                 (A) (A) (A) (A) (A) (A) (A) (A) (A) (A) (A) (A)
                 (A) (A) (A) (A) (A) (A) (A) (A) (A) (A) (A) (A)
                 (A) (A) (A) (A) (A) (A) (A) (A) (A) (A) (A) (A)
                 (A) (A) (A) (A) (A) (A) (A) (A) (A) (A) (A) (A)
                 (A) (A) (A) (A) (A) (A) (A) (A) (A) (A) (A) (A)
                 (A) (A) (A) (A) (A) (A) (A) (A) (A) (A) (A) (A)
                 (A) (A) (A) (A) (A) (A) (A) (A) (A) (A) (A) (A)
                 (A) (A) (A) (A) (A) (A) (A) (A) (A) (A) (A) (A)
                 (A) (A) (A) (A) (A) (A) (A) (A) (A) (A) (A) (A)
                 (A) (A) (A) (A) (A) (A) (A) (A) (A) (A) (A) (A)
                 (A) (A) (A) (A) (A) (A) (A) (A) (A) (A) (A) (A)
                 (A) (A) (A) (A) (A) (A) (A) (A) (A) (A) (A) (A)
                 (A) (A) (A) (A) (A) (A) (A) (A) (A) (A) (A) (A)
                 (A) (A) (A) (A) (A) (A) (A) (A) (A) (A) (A) (A)
                 (A) (A) (A) (A) (A) (A) (A) (A) (A) (A) (A) (A)
                 (A) (A) (A) (A) (A) (A) (A) (A) (A) (A) (A) (A)
                 (A) (A) (A) (A) (A) (A) (A) (A) (A) (A) (A) (A)
                 (A) (A) (A) (A) (A) (A) (A) (A) (A) (A) (A) (A)
                 (A) (A) (A) (A) (A) (A) (A) (A) (A) (A) (A) (A)
                 (A) (A) (A) (A) (A) (A) (A) (A) (A) (A) (A) (A)
                 (A) (A) (A) (A) (A) (A) (A) (A) (A) (A) (A) (A)
                 (A) (A) (A) (A) (A) (A) (A) (A) (A) (A) (A) (A)
                 (A) (A) (A) (A) (A) (A) (A) (A) (A) (A) (A) (A)
                 (A) (A) (A) (A) (A) (A) (A) (A) (A) (A) (A) (A)
                 (A) (A) (A) (A) (A) (A) (A) (A) (A) (A) (A) (A)
                 (A) (A) (A) (A) (A) (A) (A) (A) (A) (A) (A) (A)
                 (A) (A) (A) (A) (A) (A) (A) (A) (A) (A) (A) (A)
                 (A) (A) (A) (A) (A) (A) (A) (A) (A) (A) (A) (A)
                 (A) (A) (A) (A) (A) (A) (A) (A) (A) (A) (A) (A)
                 (A) (A) (A) (A) (A) (A) (A) (A) (A) (A) (A) (A)
                 (A) (A) (A) (A) (A) (A) (A) (A) (A) (A) (A) (A)
                 (A) (A) (A) (A) (A) (A) (A) (A) (A) (A) (A) (A)
                 (A) (A) (A) (A) (A) (A) (A) (A) (A) (A) (A) (A)
                 (A) (A) (A) (A) (A) (A) (A) (A) (A) (A) (A) (A)
                 (A) (A) (A) (A) (A) (A) (A) (A) (A) (A) (A) (A)
                 (A) (A) (A) (A) (A) (A) (A) (A) (A) (A) (A) (A)
                 (A) (A) (A) (A) (A) (A) (A) (A) (A) (A) (A) (A)
                 (A) (A) (A) (A) (A) (A) (A) (A) (A) (A) (A) (A)
                 (A) (A) (A) (A) (A) (A) (A) (A) (A) (A) (A) (A)
                 (A) (A) (A) (A) (A) (A) (A) (A) (A) (A) (A) (A)
                 (A) (A) (A) (A) (A) (A) (A) (A) (A) (A) (A) (A)
                 (A) (A) (A) (A) (A) (A) (A) (A) (A) (A) (A) (A)
                 (A) (A) (A) (A) (A) (A) (A) (A) (A) (A) (A) (A)
                 (A) (A) (A) (A) (A) (A) (A) (A) (A) (A) (A) (A)
                 (A) (A) (A) (A) (A) (A) (A) (A) (A) (A) (A) (A)
                 (A) (A) (A) (A) (A) (A) (A) (A) (A) (A) (A) (A)
                 (A) (A) (A) (A) (A) (A) (A) (A) (A) (A) (A) (A)
                 (A) (A) (A) (A) (A) (A) (A) (A) (A) (A) (A) (A)
                 (A) (A) (A) (A) (A) (A) (A) (A) (A) (A) (A) (A)
                 (A) (A) (A) (A) (A) (A) (A) (A) (A) (A) (A) (A)
                 (A) (A) (A) (A) (A) (A) (A) (A) (A) (A) (A) (A)
                 (A) (A) (A) (A) (A) (A) (A) (A) (A) (A) (A) (A)
                 (A) (A) (A) (A) (A) (A) (A) (A) (A) (A) (A) (A)
                 (A) (A) (A) (A) (A) (A) (A) (A) (A) (A) (A) (A)
                 (A) (A) (A) (A) (A) (A) (A) (A) (A) (A) (A) (A)
                 (A) (A) (A) (A) (A) (A) (A) (A) (A) (A) (A) (A)
                 (A) (A) (A) (A) (A) (A) (A) (A) (A) (A) (A) (A)
                 (A) (A) (A) (A) (A) (A) (A) (A) (A) (A) (A) (A)
                 (A) (A) (A) (A) (A) (A) (A) (A) (A) (A) (A) (A)
                 (A) (A) (A) (A) (A) (A) (A) (A) (A) (A) (A) (A)
                 (A) (A) (A) (A) (A) (A) (A) (A) (A) (A) (A) (A)
                 (A) (A) (A) (A) (A) (A) (A) (A) (A) (A) (A) (A)
                 (A) (A) (A) (A) (A) (A) (A) (A) (A) (A) (A) (A)
                 (A) (A) (A) (A) (A) (A) (A) (A) (A) (A) (A) (A)
                 (A) (A) (A) (A) (A) (A) (A) (A) (A) (A) (A) (A)
                 (A) (A) (A) (A) (A) (A) (A) (A) (A) (A) (A) (A)
                 (A) (A) (A) (A) (A) (A) (A) (A) (A) (A) (A) (A)
                 (A) (A) (A) (A) (A) (A) (A) (A) (A) (A) (A) (A)
                 (A) (A) (A) (A) (A) (A) (A) (A) (A) (A) (A) (A)
                 (A) (A) (A) (A) (A) (A) (A) (A) (A) (A) (A) (A)
                 (A) (A) (A) (A) (A) (A) (A) (A) (A) (A) (A) (A)
                 (A) (A) (A) (A) (A) (A) (A) (A) (A) (A) (A) (A)
                 (A) (A) (A) (A) (A) (A) (A) (A) (A) (A) (A) (A)
                 (A) (A) (A) (A) (A) (A) (A) (A) (A) (A) (A) (A)
                 (A) (A) (A) (A) (A) (A) (A) (A) (A) (A) (A) (A)
                 (A) (A) (A) (A) (A) (A) (A) (A) (A) (A) (A) (A)
                 (A) (A) (A) (A) (A) (A) (A) (A) (A) (A) (A) (A)
                 (A) (A) (A) (A) (A) (A) (A) (A) (A) (A) (A) (A)
                 (A) (A) (A) (A) (A) (A) (A) (A) (A) (A) (A) (A)
                 (A) (A) (A) (A) (A) (A) (A) (A) (A) (A) (A) (A)
                 (A) (A) (A) (A) (A) (A) (A) (A) (A) (A) (A) (A)
                 (A) (A) (A) (A) (A) (A) (A) (A) (A) (A) (A) (A)
                 (A) (A) (A) (A) (A) (A) (A) (A) (A) (A) (A) (A)
                 (A) (A) (A) (A) (A) (A) (A) (A) (A) (A) (A) (A)
                 (A) (A) (A) (A) (A) (A) (A) (A) (A) (A) (A) (A)
                 (A) (A) (A) (A) (A) (A) (A) (A) (A) (A) (A) (A)
                 (A) (A) (A) (A) (A) (A) (A) (A) (A) (A) (A) (A)
                 (A) (A) (A) (A) (A) (A) (A) (A) (A) (A) (A) (A)
                 (A) (A) (A) (A) (A) (A) (A) (A) (A) (A) (A) (A)
                 (A) (A) (A) (A) (A) (A) (A) (A) (A) (A) (A) (A)
                 (A) (A) (A) (A) (A) (A) (A) (A) (A) (A) (A) (A)
                 (A) (A) (A) (A) (A) (A) (A) (A) (A) (A) (A) (A)
                 (A) (A) (A) (A) (A) (A) (A) (A) (A) (A) (A) (A)
                 (A) (A) (A) (A) (A) (A) (A) (A) (A) (A) (A) (A)
                 (A) (A) (A) (A) (A) (A) (A) (A) (A) (A) (A) (A)
                 (A) (A) (A) (A) (A) (A) (A) (A) (A) (A) (A) (A)
                 (A) (A) (A) (A) (A) (A) (A) (A) (A) (A) (A) (A)
                 (A) (A) (A) (A) (A) (A) (A) (A) (A) (A) (A) (A)
                 (A) (A) (A) (A) (A) (A) (A) (A) (A) (A) (A) (A)
                 (A) (A) (A) (A) (A) (A) (A) (A) (A) (A) (A) (A)
                 (A) (A) (A) (A) (A) (A) (A) (A) (A) (A) (A) (A)
                 (A) (A) (A) (A) (A) (A) (A) (A) (A) (A) (A) (A)
                 (A) (A) (A) (A) (A) (A) (A) (A) (A) (A) (A) (A)
                 (A) (A) (A) (A) (A) (A) (A) (A) (A) (A) (A) (A)
                 (A) (A) (A) (A) (A) (A) (A) (A) (A) (A) (A) (A)
                 (A) (A) (A) (A) (A) (A) (A) (A) (A) (A) (A) (A)
                 (A) (A) (A) (A) (A) (A) (A) (A) (A) (A) (A) (A)
                 (A) (A) (A) (A) (A) (A) (A) (A) (A) (A) (A) (A)
                 (A) (A) (A) (A) (A) (A)
 The electronic state is 1-A.
 Alpha  occ. eigenvalues --  -14.38743 -14.38262 -14.38154 -14.38118 -14.38095
 Alpha  occ. eigenvalues --  -14.38037 -14.38036 -14.37957 -14.37840 -14.36187
 Alpha  occ. eigenvalues --  -14.35567 -14.34862 -10.27451 -10.27060 -10.26900
 Alpha  occ. eigenvalues --  -10.26868 -10.26853 -10.26820 -10.26765 -10.26755
 Alpha  occ. eigenvalues --  -10.26670 -10.25161 -10.25061 -10.25045 -10.24935
 Alpha  occ. eigenvalues --  -10.24917 -10.24870 -10.24856 -10.24742 -10.24738
 Alpha  occ. eigenvalues --  -10.24735 -10.24578 -10.24529 -10.24524 -10.24499
 Alpha  occ. eigenvalues --  -10.24458 -10.24452 -10.24441 -10.24434 -10.24432
 Alpha  occ. eigenvalues --  -10.24394 -10.24391 -10.24329 -10.24185 -10.24105
 Alpha  occ. eigenvalues --  -10.24044 -10.24006 -10.23997 -10.23842 -10.23767
 Alpha  occ. eigenvalues --  -10.23483  -0.97946  -0.97695  -0.97625  -0.97130
 Alpha  occ. eigenvalues --   -0.96822  -0.96245  -0.95434  -0.95294  -0.95055
 Alpha  occ. eigenvalues --   -0.91295  -0.90848  -0.90326  -0.90161  -0.89793
 Alpha  occ. eigenvalues --   -0.89338  -0.82517  -0.82397  -0.81889  -0.81251
 Alpha  occ. eigenvalues --   -0.81008  -0.80627  -0.77645  -0.76489  -0.76405
 Alpha  occ. eigenvalues --   -0.75063  -0.75029  -0.74649  -0.70129  -0.69921
 Alpha  occ. eigenvalues --   -0.69794  -0.67826  -0.67713  -0.67467  -0.66418
 Alpha  occ. eigenvalues --   -0.65978  -0.64980  -0.63283  -0.63063  -0.62782
 Alpha  occ. eigenvalues --   -0.61708  -0.60946  -0.59801  -0.57969  -0.56814
 Alpha  occ. eigenvalues --   -0.56573  -0.56290  -0.55968  -0.55417  -0.54328
 Alpha  occ. eigenvalues --   -0.54252  -0.53616  -0.53017  -0.52627  -0.52255
 Alpha  occ. eigenvalues --   -0.51857  -0.51640  -0.51197  -0.50758  -0.50612
 Alpha  occ. eigenvalues --   -0.50345  -0.50082  -0.49655  -0.49189  -0.49148
 Alpha  occ. eigenvalues --   -0.48787  -0.48137  -0.47922  -0.47425  -0.47158
 Alpha  occ. eigenvalues --   -0.46776  -0.46679  -0.46496  -0.46327  -0.46139
 Alpha  occ. eigenvalues --   -0.45855  -0.45623  -0.45283  -0.44988  -0.44355
 Alpha  occ. eigenvalues --   -0.44075  -0.44046  -0.42852  -0.42564  -0.42169
 Alpha  occ. eigenvalues --   -0.42013  -0.41602  -0.41304  -0.40870  -0.40658
 Alpha  occ. eigenvalues --   -0.40566  -0.40192  -0.40097  -0.39742  -0.39631
 Alpha  occ. eigenvalues --   -0.39435  -0.39195  -0.38347  -0.37738  -0.37309
 Alpha  occ. eigenvalues --   -0.37030  -0.36938  -0.36773  -0.36570  -0.36190
 Alpha  occ. eigenvalues --   -0.36026  -0.35705  -0.35503  -0.35389  -0.35278
 Alpha  occ. eigenvalues --   -0.35107  -0.34946  -0.31511  -0.31052  -0.30631
 Alpha  occ. eigenvalues --   -0.28685  -0.28358  -0.27868  -0.27627  -0.27610
 Alpha  occ. eigenvalues --   -0.27461  -0.27375  -0.27326  -0.27200  -0.26764
 Alpha  occ. eigenvalues --   -0.26520  -0.26300  -0.26073  -0.25887  -0.25802
 Alpha  occ. eigenvalues --   -0.25342  -0.25210  -0.23375
 Alpha virt. eigenvalues --   -0.06928  -0.06585  -0.06505  -0.05970  -0.05775
 Alpha virt. eigenvalues --   -0.05485  -0.02625  -0.02298  -0.01755   0.03356
 Alpha virt. eigenvalues --    0.03730   0.04507   0.04635   0.04960   0.05109
 Alpha virt. eigenvalues --    0.05420   0.05525   0.05715   0.05885   0.06343
 Alpha virt. eigenvalues --    0.06583   0.06929   0.07043   0.07214   0.07379
 Alpha virt. eigenvalues --    0.07712   0.08006   0.08136   0.08568   0.08759
 Alpha virt. eigenvalues --    0.08953   0.09342   0.09726   0.09839   0.10296
 Alpha virt. eigenvalues --    0.10434   0.10641   0.10753   0.11007   0.11252
 Alpha virt. eigenvalues --    0.11321   0.11540   0.11555   0.11885   0.12088
 Alpha virt. eigenvalues --    0.12322   0.12425   0.12526   0.12754   0.12942
 Alpha virt. eigenvalues --    0.13053   0.13345   0.13714   0.13900   0.14221
 Alpha virt. eigenvalues --    0.14385   0.14480   0.14671   0.14806   0.14936
 Alpha virt. eigenvalues --    0.15489   0.15531   0.15684   0.15937   0.16096
 Alpha virt. eigenvalues --    0.16282   0.16340   0.16577   0.17084   0.17142
 Alpha virt. eigenvalues --    0.17444   0.17586   0.17906   0.18001   0.18280
 Alpha virt. eigenvalues --    0.18474   0.18670   0.18816   0.19080   0.19299
 Alpha virt. eigenvalues --    0.19451   0.19670   0.19781   0.20177   0.20325
 Alpha virt. eigenvalues --    0.20358   0.20823   0.21074   0.21169   0.21416
 Alpha virt. eigenvalues --    0.21572   0.21674   0.21984   0.22548   0.22577
 Alpha virt. eigenvalues --    0.22813   0.23139   0.23479   0.23537   0.23899
 Alpha virt. eigenvalues --    0.24054   0.24116   0.24323   0.24526   0.24796
 Alpha virt. eigenvalues --    0.25244   0.25311   0.25657   0.25784   0.25821
 Alpha virt. eigenvalues --    0.26034   0.26345   0.26636   0.26724   0.27118
 Alpha virt. eigenvalues --    0.27147   0.27303   0.27381   0.27929   0.28109
 Alpha virt. eigenvalues --    0.28182   0.28263   0.28463   0.28818   0.29001
 Alpha virt. eigenvalues --    0.29051   0.29353   0.29529   0.29690   0.29731
 Alpha virt. eigenvalues --    0.30050   0.30256   0.30630   0.30850   0.31310
 Alpha virt. eigenvalues --    0.31330   0.31702   0.31851   0.32104   0.32470
 Alpha virt. eigenvalues --    0.32519   0.32695   0.32956   0.33207   0.33446
 Alpha virt. eigenvalues --    0.33883   0.34057   0.34258   0.34507   0.34590
 Alpha virt. eigenvalues --    0.35157   0.35284   0.35329   0.35461   0.35888
 Alpha virt. eigenvalues --    0.36153   0.36248   0.36552   0.36593   0.36782
 Alpha virt. eigenvalues --    0.36904   0.37087   0.37303   0.37429   0.37502
 Alpha virt. eigenvalues --    0.37823   0.38097   0.38193   0.38487   0.38630
 Alpha virt. eigenvalues --    0.38849   0.39071   0.39151   0.39320   0.39424
 Alpha virt. eigenvalues --    0.39751   0.39887   0.40120   0.40265   0.40491
 Alpha virt. eigenvalues --    0.40776   0.40959   0.41028   0.41451   0.41505
 Alpha virt. eigenvalues --    0.41754   0.41843   0.42062   0.42278   0.42302
 Alpha virt. eigenvalues --    0.42497   0.42695   0.42787   0.42843   0.42916
 Alpha virt. eigenvalues --    0.43148   0.43187   0.43471   0.43690   0.43806
 Alpha virt. eigenvalues --    0.43870   0.44072   0.44329   0.44494   0.44656
 Alpha virt. eigenvalues --    0.44908   0.44944   0.45122   0.45241   0.45421
 Alpha virt. eigenvalues --    0.45669   0.45826   0.45872   0.45979   0.46093
 Alpha virt. eigenvalues --    0.46529   0.46821   0.46890   0.46979   0.47353
 Alpha virt. eigenvalues --    0.47438   0.47636   0.47767   0.48080   0.48333
 Alpha virt. eigenvalues --    0.48455   0.48722   0.49058   0.49179   0.49494
 Alpha virt. eigenvalues --    0.49578   0.49878   0.49925   0.50095   0.50234
 Alpha virt. eigenvalues --    0.50670   0.50776   0.50848   0.50991   0.51363
 Alpha virt. eigenvalues --    0.51455   0.51799   0.51856   0.52025   0.52188
 Alpha virt. eigenvalues --    0.52366   0.52601   0.53007   0.53254   0.53306
 Alpha virt. eigenvalues --    0.53493   0.53829   0.54097   0.54207   0.54297
 Alpha virt. eigenvalues --    0.54433   0.55088   0.55307   0.55422   0.55648
 Alpha virt. eigenvalues --    0.55740   0.56134   0.56254   0.56441   0.56550
 Alpha virt. eigenvalues --    0.56710   0.56992   0.57255   0.57377   0.57887
 Alpha virt. eigenvalues --    0.58130   0.58225   0.58629   0.58743   0.58977
 Alpha virt. eigenvalues --    0.59284   0.59382   0.59945   0.60309   0.60456
 Alpha virt. eigenvalues --    0.60786   0.60903   0.61202   0.61420   0.61640
 Alpha virt. eigenvalues --    0.61903   0.62266   0.62421   0.62682   0.62879
 Alpha virt. eigenvalues --    0.63146   0.63279   0.63650   0.63723   0.64006
 Alpha virt. eigenvalues --    0.64115   0.64652   0.64712   0.64941   0.65299
 Alpha virt. eigenvalues --    0.65514   0.65659   0.65985   0.66089   0.66419
 Alpha virt. eigenvalues --    0.66560   0.66800   0.66901   0.67129   0.67431
 Alpha virt. eigenvalues --    0.67657   0.67739   0.67875   0.68283   0.68566
 Alpha virt. eigenvalues --    0.69046   0.69226   0.69419   0.69505   0.69675
 Alpha virt. eigenvalues --    0.69868   0.69978   0.70629   0.70763   0.71081
 Alpha virt. eigenvalues --    0.71262   0.71395   0.71742   0.72145   0.72178
 Alpha virt. eigenvalues --    0.72302   0.72596   0.72763   0.73240   0.73387
 Alpha virt. eigenvalues --    0.73579   0.73830   0.73948   0.74425   0.74686
 Alpha virt. eigenvalues --    0.74776   0.74918   0.75278   0.75662   0.75809
 Alpha virt. eigenvalues --    0.76364   0.76579   0.76740   0.76839   0.77273
 Alpha virt. eigenvalues --    0.77472   0.77611   0.77878   0.78078   0.78197
 Alpha virt. eigenvalues --    0.78294   0.78571   0.78818   0.79302   0.79789
 Alpha virt. eigenvalues --    0.80038   0.80185   0.80708   0.80946   0.81209
 Alpha virt. eigenvalues --    0.81632   0.81774   0.82215   0.82466   0.82578
 Alpha virt. eigenvalues --    0.82858   0.83176   0.83269   0.83495   0.83896
 Alpha virt. eigenvalues --    0.84097   0.84285   0.84659   0.84981   0.85102
 Alpha virt. eigenvalues --    0.85281   0.85910   0.86049   0.86427   0.86460
 Alpha virt. eigenvalues --    0.86684   0.87002   0.87098   0.87523   0.87716
 Alpha virt. eigenvalues --    0.87858   0.88251   0.88338   0.88596   0.88812
 Alpha virt. eigenvalues --    0.89096   0.89313   0.89863   0.90156   0.90311
 Alpha virt. eigenvalues --    0.90466   0.91068   0.91159   0.91442   0.91778
 Alpha virt. eigenvalues --    0.92129   0.92298   0.92491   0.92655   0.93044
 Alpha virt. eigenvalues --    0.93788   0.94058   0.94105   0.94426   0.94595
 Alpha virt. eigenvalues --    0.95040   0.95530   0.95961   0.96127   0.96328
 Alpha virt. eigenvalues --    0.96821   0.97025   0.97408   0.97903   0.98185
 Alpha virt. eigenvalues --    0.98473   0.98618   0.99010   0.99504   0.99736
 Alpha virt. eigenvalues --    0.99892   1.00504   1.00566   1.01190   1.01420
 Alpha virt. eigenvalues --    1.01896   1.02317   1.02487   1.02654   1.03121
 Alpha virt. eigenvalues --    1.03400   1.03683   1.03943   1.04694   1.04968
 Alpha virt. eigenvalues --    1.05040   1.06100   1.06325   1.06448   1.06981
 Alpha virt. eigenvalues --    1.07397   1.07821   1.08239   1.08415   1.08770
 Alpha virt. eigenvalues --    1.09247   1.09777   1.10158   1.10545   1.10733
 Alpha virt. eigenvalues --    1.11480   1.12069   1.12261   1.12448   1.12624
 Alpha virt. eigenvalues --    1.12966   1.13302   1.13455   1.14086   1.14492
 Alpha virt. eigenvalues --    1.14810   1.15312   1.15613   1.16023   1.16460
 Alpha virt. eigenvalues --    1.16796   1.17232   1.18081   1.18422   1.18628
 Alpha virt. eigenvalues --    1.18845   1.19001   1.19056   1.19710   1.19897
 Alpha virt. eigenvalues --    1.20281   1.20484   1.20747   1.21107   1.21833
 Alpha virt. eigenvalues --    1.22004   1.22417   1.22489   1.22845   1.23065
 Alpha virt. eigenvalues --    1.23321   1.23543   1.23753   1.23988   1.24417
 Alpha virt. eigenvalues --    1.24742   1.24952   1.25355   1.25576   1.25694
 Alpha virt. eigenvalues --    1.26293   1.26789   1.27102   1.27328   1.27757
 Alpha virt. eigenvalues --    1.28047   1.28184   1.28268   1.28705   1.28870
 Alpha virt. eigenvalues --    1.29481   1.29808   1.30002   1.30074   1.30465
 Alpha virt. eigenvalues --    1.30752   1.31328   1.31553   1.31832   1.31979
 Alpha virt. eigenvalues --    1.32497   1.32755   1.33114   1.33540   1.33743
 Alpha virt. eigenvalues --    1.34919   1.35221   1.35306   1.35728   1.35834
 Alpha virt. eigenvalues --    1.36457   1.36983   1.37286   1.37491   1.37812
 Alpha virt. eigenvalues --    1.38109   1.38319   1.38843   1.39267   1.39690
 Alpha virt. eigenvalues --    1.39830   1.40056   1.40248   1.40418   1.40751
 Alpha virt. eigenvalues --    1.41158   1.41622   1.42022   1.42283   1.42688
 Alpha virt. eigenvalues --    1.42931   1.43336   1.43827   1.44133   1.44357
 Alpha virt. eigenvalues --    1.44760   1.45411   1.45723   1.45996   1.46041
 Alpha virt. eigenvalues --    1.46296   1.46801   1.47215   1.47386   1.47607
 Alpha virt. eigenvalues --    1.48139   1.48231   1.48617   1.49204   1.49329
 Alpha virt. eigenvalues --    1.49573   1.50031   1.50448   1.50685   1.50852
 Alpha virt. eigenvalues --    1.51242   1.51566   1.51833   1.51890   1.52227
 Alpha virt. eigenvalues --    1.52692   1.53081   1.53218   1.53382   1.53801
 Alpha virt. eigenvalues --    1.54253   1.54551   1.54633   1.55023   1.55344
 Alpha virt. eigenvalues --    1.55565   1.55589   1.56117   1.56341   1.56697
 Alpha virt. eigenvalues --    1.57157   1.57243   1.57764   1.57988   1.58170
 Alpha virt. eigenvalues --    1.58528   1.58718   1.58927   1.59188   1.59532
 Alpha virt. eigenvalues --    1.59612   1.59827   1.60254   1.60345   1.60520
 Alpha virt. eigenvalues --    1.60910   1.61345   1.61758   1.61851   1.61922
 Alpha virt. eigenvalues --    1.62238   1.62736   1.62782   1.63333   1.63404
 Alpha virt. eigenvalues --    1.63846   1.64214   1.64542   1.64716   1.64916
 Alpha virt. eigenvalues --    1.65309   1.65803   1.66062   1.66312   1.66616
 Alpha virt. eigenvalues --    1.67225   1.67396   1.67631   1.68178   1.68281
 Alpha virt. eigenvalues --    1.68705   1.68957   1.69141   1.69705   1.69774
 Alpha virt. eigenvalues --    1.69919   1.70177   1.70571   1.70759   1.71032
 Alpha virt. eigenvalues --    1.71256   1.71537   1.71745   1.71942   1.72184
 Alpha virt. eigenvalues --    1.72461   1.72657   1.72759   1.73160   1.73459
 Alpha virt. eigenvalues --    1.73791   1.73996   1.74103   1.74452   1.74841
 Alpha virt. eigenvalues --    1.75097   1.75303   1.75391   1.76099   1.76303
 Alpha virt. eigenvalues --    1.76586   1.76848   1.77041   1.77418   1.77654
 Alpha virt. eigenvalues --    1.78008   1.78381   1.78469   1.78805   1.79276
 Alpha virt. eigenvalues --    1.79428   1.79785   1.79924   1.80282   1.81143
 Alpha virt. eigenvalues --    1.81253   1.81498   1.81853   1.82271   1.82354
 Alpha virt. eigenvalues --    1.83192   1.83451   1.83783   1.84519   1.84841
 Alpha virt. eigenvalues --    1.85115   1.85380   1.85622   1.86046   1.86409
 Alpha virt. eigenvalues --    1.86720   1.86804   1.87851   1.87964   1.88287
 Alpha virt. eigenvalues --    1.88416   1.89029   1.89394   1.89735   1.89944
 Alpha virt. eigenvalues --    1.90412   1.90757   1.90898   1.91130   1.91481
 Alpha virt. eigenvalues --    1.92379   1.92617   1.92780   1.93129   1.93421
 Alpha virt. eigenvalues --    1.93875   1.94216   1.94564   1.94697   1.95410
 Alpha virt. eigenvalues --    1.96257   1.96678   1.96981   1.97179   1.97536
 Alpha virt. eigenvalues --    1.98311   1.98617   1.98823   1.98874   1.99297
 Alpha virt. eigenvalues --    1.99425   1.99656   1.99911   2.00070   2.00368
 Alpha virt. eigenvalues --    2.00846   2.01024   2.01263   2.01412   2.01770
 Alpha virt. eigenvalues --    2.02258   2.02467   2.03008   2.03274   2.03746
 Alpha virt. eigenvalues --    2.03987   2.04373   2.04729   2.04966   2.06076
 Alpha virt. eigenvalues --    2.06333   2.06488   2.07116   2.07493   2.08259
 Alpha virt. eigenvalues --    2.08624   2.09004   2.09178   2.09596   2.10107
 Alpha virt. eigenvalues --    2.10512   2.10962   2.11161   2.11635   2.12054
 Alpha virt. eigenvalues --    2.12629   2.12990   2.13846   2.13895   2.14252
 Alpha virt. eigenvalues --    2.14985   2.15112   2.15844   2.16307   2.16472
 Alpha virt. eigenvalues --    2.16788   2.16926   2.17649   2.17762   2.18277
 Alpha virt. eigenvalues --    2.18413   2.18669   2.18776   2.19470   2.19670
 Alpha virt. eigenvalues --    2.19877   2.20062   2.20710   2.21121   2.21383
 Alpha virt. eigenvalues --    2.21594   2.22226   2.22387   2.23241   2.23547
 Alpha virt. eigenvalues --    2.24202   2.24942   2.25352   2.26233   2.26473
 Alpha virt. eigenvalues --    2.26881   2.27172   2.27808   2.28043   2.29136
 Alpha virt. eigenvalues --    2.29315   2.29660   2.30162   2.30391   2.30920
 Alpha virt. eigenvalues --    2.31077   2.31381   2.31540   2.31792   2.31942
 Alpha virt. eigenvalues --    2.32449   2.32832   2.32915   2.33203   2.34239
 Alpha virt. eigenvalues --    2.34436   2.35423   2.35746   2.35842   2.36345
 Alpha virt. eigenvalues --    2.36876   2.37548   2.38242   2.38340   2.38505
 Alpha virt. eigenvalues --    2.38655   2.39100   2.39433   2.40035   2.40235
 Alpha virt. eigenvalues --    2.40560   2.40696   2.41154   2.41591   2.42108
 Alpha virt. eigenvalues --    2.42378   2.42756   2.43123   2.43355   2.43717
 Alpha virt. eigenvalues --    2.43918   2.44584   2.44619   2.45115   2.45532
 Alpha virt. eigenvalues --    2.46132   2.46224   2.46487   2.46713   2.46860
 Alpha virt. eigenvalues --    2.47265   2.47683   2.48079   2.48300   2.48815
 Alpha virt. eigenvalues --    2.49337   2.49761   2.50068   2.50175   2.50810
 Alpha virt. eigenvalues --    2.51048   2.51713   2.52235   2.52587   2.52703
 Alpha virt. eigenvalues --    2.53081   2.53524   2.53795   2.54040   2.54323
 Alpha virt. eigenvalues --    2.54785   2.55159   2.55376   2.55643   2.55748
 Alpha virt. eigenvalues --    2.55955   2.56117   2.56594   2.57068   2.57460
 Alpha virt. eigenvalues --    2.57714   2.58261   2.58571   2.58906   2.59168
 Alpha virt. eigenvalues --    2.59796   2.60155   2.60435   2.60975   2.61065
 Alpha virt. eigenvalues --    2.61372   2.61441   2.61844   2.62093   2.62238
 Alpha virt. eigenvalues --    2.62759   2.62907   2.63021   2.63180   2.63644
 Alpha virt. eigenvalues --    2.63941   2.64193   2.64296   2.64640   2.64750
 Alpha virt. eigenvalues --    2.65145   2.65450   2.65684   2.65926   2.66014
 Alpha virt. eigenvalues --    2.66461   2.66845   2.67050   2.67397   2.67420
 Alpha virt. eigenvalues --    2.67863   2.67987   2.68453   2.68641   2.68729
 Alpha virt. eigenvalues --    2.69168   2.69449   2.69601   2.69734   2.70532
 Alpha virt. eigenvalues --    2.70929   2.71029   2.71079   2.71643   2.71875
 Alpha virt. eigenvalues --    2.72099   2.72144   2.72604   2.72891   2.73041
 Alpha virt. eigenvalues --    2.73147   2.73268   2.73563   2.73749   2.74183
 Alpha virt. eigenvalues --    2.74455   2.74839   2.75168   2.75524   2.76036
 Alpha virt. eigenvalues --    2.76206   2.76396   2.76504   2.76661   2.76892
 Alpha virt. eigenvalues --    2.77177   2.77408   2.77555   2.77734   2.77908
 Alpha virt. eigenvalues --    2.78286   2.78446   2.78985   2.79292   2.79445
 Alpha virt. eigenvalues --    2.79972   2.80182   2.80462   2.80543   2.80763
 Alpha virt. eigenvalues --    2.80920   2.81417   2.81826   2.82397   2.82815
 Alpha virt. eigenvalues --    2.82976   2.83278   2.83947   2.84191   2.84291
 Alpha virt. eigenvalues --    2.84569   2.84860   2.85145   2.85531   2.85673
 Alpha virt. eigenvalues --    2.85865   2.86196   2.86486   2.86751   2.87011
 Alpha virt. eigenvalues --    2.87160   2.87482   2.87868   2.88008   2.88394
 Alpha virt. eigenvalues --    2.88523   2.89227   2.89513   2.89699   2.90124
 Alpha virt. eigenvalues --    2.90557   2.90852   2.91681   2.92370   2.92582
 Alpha virt. eigenvalues --    2.92761   2.93325   2.93669   2.94074   2.94409
 Alpha virt. eigenvalues --    2.94869   2.95290   2.95810   2.96389   2.96609
 Alpha virt. eigenvalues --    2.96721   2.96960   2.97233   2.97591   2.98069
 Alpha virt. eigenvalues --    2.98601   2.98813   2.98931   2.99307   2.99824
 Alpha virt. eigenvalues --    2.99993   3.00329   3.00862   3.01355   3.01614
 Alpha virt. eigenvalues --    3.01719   3.02184   3.02415   3.02717   3.02998
 Alpha virt. eigenvalues --    3.03850   3.04029   3.04627   3.05009   3.05355
 Alpha virt. eigenvalues --    3.05696   3.06190   3.06386   3.06623   3.07020
 Alpha virt. eigenvalues --    3.07271   3.07621   3.07978   3.08581   3.08656
 Alpha virt. eigenvalues --    3.09273   3.09380   3.09722   3.09859   3.10272
 Alpha virt. eigenvalues --    3.10307   3.10802   3.11056   3.11214   3.11517
 Alpha virt. eigenvalues --    3.11864   3.12157   3.12194   3.12500   3.12881
 Alpha virt. eigenvalues --    3.13108   3.13559   3.13731   3.13968   3.14410
 Alpha virt. eigenvalues --    3.14475   3.14713   3.14932   3.15056   3.15336
 Alpha virt. eigenvalues --    3.15613   3.15873   3.16132   3.16422   3.16480
 Alpha virt. eigenvalues --    3.16813   3.17030   3.17461   3.17676   3.17856
 Alpha virt. eigenvalues --    3.18057   3.18426   3.18807   3.19154   3.19286
 Alpha virt. eigenvalues --    3.19485   3.19842   3.20041   3.20275   3.20679
 Alpha virt. eigenvalues --    3.20834   3.21230   3.21470   3.21657   3.21919
 Alpha virt. eigenvalues --    3.22046   3.22399   3.22633   3.23040   3.23217
 Alpha virt. eigenvalues --    3.23502   3.23696   3.24034   3.24253   3.24590
 Alpha virt. eigenvalues --    3.24906   3.25095   3.25331   3.25567   3.25628
 Alpha virt. eigenvalues --    3.25916   3.26085   3.26288   3.26411   3.26678
 Alpha virt. eigenvalues --    3.26802   3.27060   3.27390   3.27977   3.28057
 Alpha virt. eigenvalues --    3.28481   3.28661   3.28788   3.29151   3.29304
 Alpha virt. eigenvalues --    3.29822   3.29950   3.30132   3.30322   3.30461
 Alpha virt. eigenvalues --    3.30685   3.30839   3.31170   3.31332   3.31401
 Alpha virt. eigenvalues --    3.31894   3.31923   3.32313   3.32837   3.32892
 Alpha virt. eigenvalues --    3.33231   3.33337   3.33654   3.34010   3.34588
 Alpha virt. eigenvalues --    3.34695   3.34964   3.35112   3.35486   3.35736
 Alpha virt. eigenvalues --    3.36123   3.36222   3.36391   3.36842   3.37169
 Alpha virt. eigenvalues --    3.37381   3.37572   3.37690   3.38017   3.38213
 Alpha virt. eigenvalues --    3.38583   3.38891   3.39260   3.39315   3.39548
 Alpha virt. eigenvalues --    3.39868   3.40294   3.40611   3.40874   3.41452
 Alpha virt. eigenvalues --    3.41571   3.41984   3.42224   3.42438   3.42750
 Alpha virt. eigenvalues --    3.43001   3.43217   3.43463   3.43658   3.44097
 Alpha virt. eigenvalues --    3.44298   3.44498   3.44621   3.44970   3.45114
 Alpha virt. eigenvalues --    3.45478   3.45715   3.45833   3.46137   3.46355
 Alpha virt. eigenvalues --    3.46639   3.47080   3.47204   3.47378   3.47717
 Alpha virt. eigenvalues --    3.47921   3.48303   3.48703   3.49336   3.49491
 Alpha virt. eigenvalues --    3.49537   3.49940   3.50272   3.51067   3.51664
 Alpha virt. eigenvalues --    3.52291   3.53171   3.53751   3.54009   3.54564
 Alpha virt. eigenvalues --    3.54804   3.54864   3.55387   3.55581   3.56125
 Alpha virt. eigenvalues --    3.56320   3.56563   3.56978   3.57335   3.57700
 Alpha virt. eigenvalues --    3.58476   3.58889   3.59213   3.60302   3.60577
 Alpha virt. eigenvalues --    3.60812   3.61143   3.61757   3.61831   3.62320
 Alpha virt. eigenvalues --    3.62621   3.62794   3.62878   3.63132   3.63773
 Alpha virt. eigenvalues --    3.63960   3.64079   3.64721   3.65150   3.65581
 Alpha virt. eigenvalues --    3.65876   3.67549   3.68069   3.69385   3.70629
 Alpha virt. eigenvalues --    3.70703   3.71238   3.71583   3.71896   3.72425
 Alpha virt. eigenvalues --    3.72818   3.73150   3.73859   3.74014   3.74110
 Alpha virt. eigenvalues --    3.74458   3.74629   3.75089   3.75317   3.75693
 Alpha virt. eigenvalues --    3.76171   3.76474   3.76629   3.77125   3.77372
 Alpha virt. eigenvalues --    3.77577   3.77989   3.78303   3.78393   3.78909
 Alpha virt. eigenvalues --    3.79396   3.79941   3.80183   3.80444   3.80885
 Alpha virt. eigenvalues --    3.81000   3.81203   3.81875   3.82156   3.82706
 Alpha virt. eigenvalues --    3.82943   3.83252   3.83775   3.84181   3.84641
 Alpha virt. eigenvalues --    3.85149   3.85432   3.86147   3.86209   3.86763
 Alpha virt. eigenvalues --    3.87475   3.87652   3.88182   3.88277   3.88811
 Alpha virt. eigenvalues --    3.89272   3.89356   3.89798   3.90712   3.91104
 Alpha virt. eigenvalues --    3.91290   3.91555   3.92008   3.92565   3.93286
 Alpha virt. eigenvalues --    3.93597   3.94586   3.94708   3.95208   3.95643
 Alpha virt. eigenvalues --    3.96697   3.97580   3.97658   3.98089   3.98489
 Alpha virt. eigenvalues --    3.98855   3.99243   4.00189   4.00282   4.00958
 Alpha virt. eigenvalues --    4.01545   4.01747   4.02387   4.02459   4.02632
 Alpha virt. eigenvalues --    4.03677   4.04122   4.04336   4.04882   4.04968
 Alpha virt. eigenvalues --    4.05298   4.05608   4.06331   4.06475   4.07003
 Alpha virt. eigenvalues --    4.07401   4.08116   4.08326   4.09048   4.09849
 Alpha virt. eigenvalues --    4.10446   4.10961   4.11113   4.11360   4.12118
 Alpha virt. eigenvalues --    4.12801   4.13224   4.13452   4.13521   4.14141
 Alpha virt. eigenvalues --    4.15084   4.15327   4.15621   4.16519   4.17148
 Alpha virt. eigenvalues --    4.17559   4.17846   4.18301   4.18566   4.18924
 Alpha virt. eigenvalues --    4.19090   4.19669   4.20209   4.21000   4.21181
 Alpha virt. eigenvalues --    4.21311   4.22064   4.22484   4.22850   4.23517
 Alpha virt. eigenvalues --    4.23936   4.24153   4.24505   4.25164   4.25356
 Alpha virt. eigenvalues --    4.25679   4.25821   4.26586   4.26935   4.27050
 Alpha virt. eigenvalues --    4.27280   4.27649   4.28534   4.28909   4.29373
 Alpha virt. eigenvalues --    4.30212   4.31435   4.31992   4.32212   4.32405
 Alpha virt. eigenvalues --    4.32838   4.33614   4.34461   4.34933   4.35134
 Alpha virt. eigenvalues --    4.35783   4.36219   4.36928   4.37322   4.37596
 Alpha virt. eigenvalues --    4.37809   4.38497   4.38714   4.39002   4.39270
 Alpha virt. eigenvalues --    4.41089   4.41443   4.41814   4.42238   4.42659
 Alpha virt. eigenvalues --    4.43261   4.45127   4.45375   4.46907   4.47569
 Alpha virt. eigenvalues --    4.48416   4.50797   4.51430   4.51908   4.52601
 Alpha virt. eigenvalues --    4.52732   4.53217   4.53987   4.54515   4.55072
 Alpha virt. eigenvalues --    4.55765   4.56177   4.56830   4.57661   4.58234
 Alpha virt. eigenvalues --    4.58955   4.59322   4.59791   4.60424   4.61396
 Alpha virt. eigenvalues --    4.61908   4.62978   4.63713   4.64306   4.64884
 Alpha virt. eigenvalues --    4.65524   4.66239   4.66776   4.66982   4.67035
 Alpha virt. eigenvalues --    4.67736   4.68344   4.68922   4.69501   4.69692
 Alpha virt. eigenvalues --    4.71397   4.72213   4.72439   4.73834   4.74387
 Alpha virt. eigenvalues --    4.75306   4.76358   4.76581   4.77122   4.78072
 Alpha virt. eigenvalues --    4.79547   4.80032   4.81028   4.81414   4.82478
 Alpha virt. eigenvalues --    4.83308   4.83586   4.84682   4.84761   4.85449
 Alpha virt. eigenvalues --    4.85850   4.86407   4.86936   4.87369   4.87981
 Alpha virt. eigenvalues --    4.88685   4.89299   4.90419   4.90822   4.92376
 Alpha virt. eigenvalues --    4.92747   4.93012   4.93272   4.93904   4.94297
 Alpha virt. eigenvalues --    4.94845   4.95385   4.95907   4.96406   4.97018
 Alpha virt. eigenvalues --    4.97545   4.98229   4.98795   5.00095   5.01130
 Alpha virt. eigenvalues --    5.01850   5.02431   5.03576   5.03939   5.04400
 Alpha virt. eigenvalues --    5.04926   5.05271   5.05794   5.06549   5.07152
 Alpha virt. eigenvalues --    5.07794   5.08556   5.09016   5.09047   5.09737
 Alpha virt. eigenvalues --    5.10407   5.10983   5.11557   5.11832   5.12500
 Alpha virt. eigenvalues --    5.14679   5.15263   5.15433   5.15810   5.16171
 Alpha virt. eigenvalues --    5.17007   5.17583   5.17947   5.18868   5.19444
 Alpha virt. eigenvalues --    5.20188   5.20916   5.21555   5.21925   5.22092
 Alpha virt. eigenvalues --    5.22457   5.22929   5.23223   5.23741   5.24210
 Alpha virt. eigenvalues --    5.25404   5.25682   5.26542   5.26815   5.27262
 Alpha virt. eigenvalues --    5.27817   5.28106   5.29685   5.30938   5.31916
 Alpha virt. eigenvalues --    5.32452   5.33050   5.33954   5.34254   5.35409
 Alpha virt. eigenvalues --    5.35578   5.35905   5.36109   5.36928   5.37587
 Alpha virt. eigenvalues --    5.38155   5.38974   5.39187   5.39799   5.40496
 Alpha virt. eigenvalues --    5.41005   5.41295   5.41847   5.42748   5.43030
 Alpha virt. eigenvalues --    5.43619   5.43880   5.44077   5.44792   5.45020
 Alpha virt. eigenvalues --    5.45733   5.46401   5.47580   5.48055   5.49673
 Alpha virt. eigenvalues --    5.50441   5.51963   5.53553   5.55031   5.56186
 Alpha virt. eigenvalues --    5.56525   5.58431   5.61489   5.62704   5.63119
 Alpha virt. eigenvalues --    5.63754   5.64311   5.64835   5.65234   5.66420
 Alpha virt. eigenvalues --    5.68102   5.68363   5.69261   5.69988   5.70303
 Alpha virt. eigenvalues --    5.72139   5.72732   5.73345   5.73424   5.74161
 Alpha virt. eigenvalues --    5.74526   5.77951   5.78847   5.79244   5.85047
 Alpha virt. eigenvalues --    5.87034   5.88537   5.89137   5.89613   5.89994
 Alpha virt. eigenvalues --    5.91502   5.91856   5.92243   5.92803   5.92990
 Alpha virt. eigenvalues --    5.93282   5.95670   5.96551   5.97351   5.99345
 Alpha virt. eigenvalues --    6.01149   6.03749   6.10750   6.11096   6.12947
 Alpha virt. eigenvalues --   22.42473  22.43943  22.47330  22.54284  22.54856
 Alpha virt. eigenvalues --   22.59418  22.61795  22.63298  22.63359  22.66208
 Alpha virt. eigenvalues --   22.66441  22.67153  22.67546  22.67648  22.67691
 Alpha virt. eigenvalues --   22.85375  22.87694  22.88780  22.89075  22.89915
 Alpha virt. eigenvalues --   22.90347  22.99712  23.01146  23.02906  23.11531
 Alpha virt. eigenvalues --   23.13095  23.13807  23.14039  23.14417  23.15029
 Alpha virt. eigenvalues --   23.15095  23.15803  23.16012  23.17125  23.18266
 Alpha virt. eigenvalues --   23.19944  23.51260  23.51909  23.52356  32.07578
 Alpha virt. eigenvalues --   32.19510  32.31097  32.59956  32.61196  32.65850
 Alpha virt. eigenvalues --   32.69777  32.71320  32.74261  32.74564  32.75947
 Alpha virt. eigenvalues --   32.76497
          Condensed to atoms (all electrons):
 Mulliken charges:
               1
     1  C    0.364544
     2  C   -0.146067
     3  C   -0.367231
     4  C    0.360705
     5  H    0.150974
     6  C   -0.348088
     7  C    0.364645
     8  H    0.124736
     9  C   -0.373912
    10  C   -0.158605
    11  H    0.132317
    12  C   -0.165727
    13  H    0.088421
    14  H    0.100838
    15  H    0.096958
    16  C    0.376461
    17  C   -0.199547
    18  C   -0.346022
    19  C    0.351740
    20  H    0.137808
    21  C   -0.387679
    22  C    0.396145
    23  H    0.122444
    24  C   -0.353747
    25  C   -0.156235
    26  H    0.121134
    27  C   -0.159457
    28  H    0.092636
    29  H    0.110473
    30  H    0.085269
    31  C    0.349714
    32  C   -0.172276
    33  C   -0.326408
    34  C    0.370013
    35  H    0.123385
    36  C   -0.375011
    37  C    0.343690
    38  H    0.123746
    39  C   -0.354797
    40  C   -0.156335
    41  H    0.127327
    42  C   -0.170294
    43  H    0.090051
    44  H    0.105539
    45  H    0.093000
    46  C   -0.099740
    47  C   -0.090089
    48  N   -0.535645
    49  N   -0.257389
    50  C   -0.102334
    51  C   -0.073988
    52  N   -0.546777
    53  N   -0.218988
    54  C   -0.130400
    55  C   -0.135062
    56  N   -0.525384
    57  N   -0.190524
    58  C   -0.067253
    59  C   -0.085068
    60  N   -0.200969
    61  N   -0.201095
    62  C   -0.083776
    63  C   -0.079448
    64  N   -0.195733
    65  N   -0.198171
    66  C   -0.069079
    67  C   -0.083086
    68  N   -0.193599
    69  N   -0.203884
    70  H    0.212415
    71  H    0.233733
    72  H    0.227351
    73  H    0.236559
    74  H    0.194648
    75  H    0.245144
    76  H    0.084412
    77  H    0.127337
    78  H    0.083314
    79  H    0.125666
    80  H    0.127284
    81  H    0.091988
    82  H    0.105959
    83  H    0.092377
    84  H    0.082352
    85  H    0.128503
    86  H    0.082473
    87  H    0.127245
    88  H    0.115507
    89  H    0.121096
    90  H    0.125073
    91  H    0.095046
    92  H    0.119869
    93  H    0.118181
    94  H    0.120219
    95  H    0.121867
    96  H    0.094137
    97  H    0.126983
    98  H    0.085487
    99  H    0.127980
 Sum of Mulliken charges =   0.00000
 Mulliken charges with hydrogens summed into heavy atoms:
               1
     1  C    0.364544
     2  C   -0.045229
     3  C   -0.216257
     4  C    0.360705
     6  C   -0.223353
     7  C    0.364645
     9  C   -0.241595
    10  C   -0.070184
    12  C   -0.068770
    16  C    0.376461
    17  C   -0.089074
    18  C   -0.208213
    19  C    0.351740
    21  C   -0.265235
    22  C    0.396145
    24  C   -0.232612
    25  C   -0.063599
    27  C   -0.074188
    31  C    0.349714
    32  C   -0.066737
    33  C   -0.203023
    34  C    0.370013
    36  C   -0.251264
    37  C    0.343690
    39  C   -0.227470
    40  C   -0.066284
    42  C   -0.077294
    46  C    0.136863
    47  C    0.130031
    48  N   -0.071736
    49  N   -0.257389
    50  C    0.096003
    51  C    0.145283
    52  N   -0.106985
    53  N   -0.218988
    54  C    0.107651
    55  C    0.107024
    56  N   -0.079236
    57  N   -0.190524
    58  C    0.142464
    59  C    0.125788
    60  N   -0.200969
    61  N   -0.201095
    62  C    0.129691
    63  C    0.141673
    64  N   -0.195733
    65  N   -0.198171
    66  C    0.139901
    67  C    0.128663
    68  N   -0.193599
    69  N   -0.203884
 Electronic spatial extent (au):  <R**2>=          31371.3390
 Charge=              0.0000 electrons
 Dipole moment (field-independent basis, Debye):
    X=             -1.1610    Y=              1.8982    Z=             -0.4513  Tot=              2.2704
 Quadrupole moment (field-independent basis, Debye-Ang):
   XX=           -296.3966   YY=           -300.3462   ZZ=           -291.6961
   XY=              3.8442   XZ=            -11.4663   YZ=              2.6138
 Traceless Quadrupole moment (field-independent basis, Debye-Ang):
   XX=             -0.2503   YY=             -4.1999   ZZ=              4.4502
   XY=              3.8442   XZ=            -11.4663   YZ=              2.6138
 Octapole moment (field-independent basis, Debye-Ang**2):
  XXX=           -220.4984  YYY=            127.1525  ZZZ=             74.7067  XYY=             17.3186
  XXY=            -14.6036  XXZ=            -66.5324  XZZ=             22.1437  YZZ=             -8.7774
  YYZ=             -4.4745  XYZ=            -65.2610
 Hexadecapole moment (field-independent basis, Debye-Ang**3):
 XXXX=         -18441.9902 YYYY=         -14107.3081 ZZZZ=          -9828.1745 XXXY=            248.9082
 XXXZ=           -244.3287 YYYX=           -226.0795 YYYZ=            225.9448 ZZZX=           -209.7201
 ZZZY=           -263.0430 XXYY=          -5329.6146 XXZZ=          -4513.3252 YYZZ=          -4289.5454
 XXYZ=            101.1357 YYXZ=            -55.1197 ZZXY=             40.7354
 N-N= 6.827207915175D+03 E-N=-1.870310667608D+04  KE= 2.160446226859D+03
 No NMR shielding tensors so no spin-rotation constants.
 Leave Link  601 at Mon Oct 18 10:44:37 2021, MaxMem=  7864320000 cpu:              74.8 elap:               2.8
 (Enter /apps/gaussian/g16-c01-avx/g16/l9999.exe)
 Unable to Open any file for archive entry.
 1\1\GINC-CX3-5-0\SP\RPBE1PBE\def2TZVP\C39H48N12\ROOT\18-Oct-2021\0\\#P
  PBE1PBE/Def2TZVP SP SCF=(YQC,MaxCycle=900) int=(Grid=Superfinegrid) E
 mpiricalDispersion=GD3 SCRF=(PCM,Solvent=Dichloromethane)\\_3_alde1_6_
 ami4_2_opt_dcm\\0,1\C,0,-2.919,-0.7776,0.4039\C,0,-3.1744,-0.4237,1.79
 2\C,0,-2.1704,-1.9053,0.0604\C,0,-1.9778,-2.2482,-1.2734\H,0,-1.7644,-
 2.5217,0.8479\C,0,-2.5063,-1.4302,-2.2713\C,0,-3.253,-0.3041,-1.9473\H
 ,0,-2.3384,-1.7092,-3.3001\C,0,-3.466,0.0086,-0.6061\C,0,-3.7858,0.537
 5,-3.0094\H,0,-4.0631,0.8757,-0.369\C,0,-1.2615,-3.4647,-1.6376\H,0,-3
 .3349,0.3828,-4.0021\H,0,-3.8556,0.4265,1.9424\H,0,-0.7588,-3.9972,-0.
 8169\C,0,3.3106,-1.5316,-0.1768\C,0,3.209,-1.878,1.2352\C,0,3.9596,-0.
 3669,-0.5797\C,0,3.9737,0.0095,-1.921\H,0,4.4479,0.256,0.1581\C,0,3.31
 84,-0.7824,-2.8633\C,0,2.6748,-1.952,-2.4744\H,0,3.3263,-0.4624,-3.894
 \C,0,2.6834,-2.3229,-1.1329\C,0,1.9295,-2.7644,-3.4278\H,0,2.179,-3.22
 47,-0.8278\C,0,4.6276,1.2473,-2.3166\H,0,1.7007,-2.2964,-4.3977\H,0,3.
 7414,-1.2262,1.9424\H,0,5.0231,1.8596,-1.4907\C,0,0.3249,2.984,-0.1774
 \C,0,0.7129,2.6711,1.1945\C,0,-1.0219,3.0853,-0.5211\C,0,-1.4036,3.372
 3,-1.8264\H,0,-1.7579,2.9352,0.2538\C,0,-0.4239,3.5245,-2.8076\C,0,0.9
 232,3.4338,-2.4774\H,0,-0.7375,3.73,-3.8198\C,0,1.2915,3.1774,-1.1566\
 C,0,1.9466,3.5615,-3.5069\H,0,2.3434,3.114,-0.9225\C,0,-2.8176,3.4909,
 -2.1418\H,0,1.6031,3.4106,-4.5423\H,0,1.7894,2.7482,1.3942\H,0,-3.4957
 ,3.386,-1.282\C,0,-3.6322,-1.91,4.819\C,0,-3.0151,-0.6841,4.1072\N,0,-
 2.7584,-3.0569,4.9106\N,0,-2.668,-1.045,2.7685\C,0,0.7527,-2.9798,3.24
 74\C,0,2.2644,-3.0888,2.9972\N,0,0.3018,-1.6319,2.9336\N,0,2.4917,-2.8
 46,1.6099\C,0,1.5793,1.8363,3.8583\C,0,0.1169,2.0036,3.4057\N,0,2.2613
 ,0.6828,3.2995\N,0,-0.1577,2.3409,2.0441\C,0,-0.5398,-5.0741,-3.1644\C
 ,0,0.7079,-4.6851,-3.98\N,0,-1.26,-3.8889,-2.8257\N,0,1.5531,-3.9265,-
 3.1212\C,0,-5.0946,2.2469,-3.879\C,0,-4.6661,3.6853,-3.5113\N,0,-4.701
 8,1.3822,-2.8143\N,0,-3.2497,3.7002,-3.3102\C,0,5.2864,2.8894,-3.8143\
 C,0,4.1416,3.8255,-4.2488\N,0,4.731,1.6061,-3.5215\N,0,3.1478,3.8146,-
 3.2236\H,0,2.3029,0.7648,2.2876\H,0,1.7117,-0.1555,3.4915\H,0,-1.909,-
 2.8126,5.4097\H,0,-2.4912,-3.3564,3.9791\H,0,-0.7118,-1.5626,3.0164\H,
 0,0.5206,-1.4328,1.9601\H,0,3.7435,3.5058,-5.2248\H,0,4.5401,4.8407,-4
 .3367\H,0,5.7946,3.3324,-2.943\H,0,5.9925,2.7839,-4.6415\H,0,2.5838,-4
 .1101,3.2236\H,0,2.8038,-2.3817,3.6468\H,0,0.5491,-3.1741,4.3043\H,0,0
 .2501,-3.7547,2.6476\H,0,0.4089,-4.138,-4.8883\H,0,1.234,-5.6018,-4.26
 21\H,0,-0.2135,-5.6392,-2.2778\H,0,-1.1898,-5.6958,-3.7857\H,0,-4.5319
 ,-2.2163,4.2783\H,0,-3.9205,-1.6142,5.8312\H,0,-2.094,-0.4075,4.6328\H
 ,0,-3.7172,0.1641,4.1492\H,0,1.5828,1.7237,4.9463\H,0,2.154,2.736,3.61
 72\H,0,-0.3703,2.7752,4.0133\H,0,-0.4199,1.0638,3.5848\H,0,-5.2179,3.9
 876,-2.609\H,0,-4.9088,4.3526,-4.3405\H,0,-4.6376,1.9671,-4.8416\H,0,-
 6.1837,2.2214,-3.9646\\Version=ES64L-G16RevC.01\State=1-A\HF=-2170.267
 724\RMSD=1.712e-09\Dipole=-0.3764474,0.706495,-0.3962874\Quadrupole=-0
 .8728533,-7.8152975,8.6881508,-0.6174492,-1.6680832,4.8123495\PG=C01 [
 X(C39H48N12)]\\@
 The archive entry for this job was punched.


 HE THAT WALD REACHE THE SWEITE ROSE
 SULD NOW AND THEN BE SCRATCHED WT THE SCHARPE BREERES.
 -- PROVERBS AND REASONS OF THE YEAR 1585
           AS REPRINTED IN PAISLEY MAGAZINE 1828.
 Job cpu time:       1 days 19 hours 47 minutes 38.7 seconds.
 Elapsed time:       0 days  1 hours 23 minutes 16.1 seconds.
 File lengths (MBytes):  RWF=   2752 Int=      0 D2E=      0 Chk=    216 Scr=     16
 Normal termination of Gaussian 16 at Mon Oct 18 10:44:37 2021.
