 Entering Gaussian System, Link 0=g16
 Initial command:
 /apps/gaussian/g16-c01-avx/g16/l1.exe "/rds/general/ephemeral/user/atarzia/ephemeral/Gau-1763897.inp" -scrdir="/rds/general/ephemeral/user/atarzia/ephemeral/"
 Entering Link 1 = /apps/gaussian/g16-c01-avx/g16/l1.exe PID=   1763898.
  
 Copyright (c) 1988-2019, Gaussian, Inc.  All Rights Reserved.
  
 This is part of the Gaussian(R) 16 program.  It is based on
 the Gaussian(R) 09 system (copyright 2009, Gaussian, Inc.),
 the Gaussian(R) 03 system (copyright 2003, Gaussian, Inc.),
 the Gaussian(R) 98 system (copyright 1998, Gaussian, Inc.),
 the Gaussian(R) 94 system (copyright 1995, Gaussian, Inc.),
 the Gaussian 92(TM) system (copyright 1992, Gaussian, Inc.),
 the Gaussian 90(TM) system (copyright 1990, Gaussian, Inc.),
 the Gaussian 88(TM) system (copyright 1988, Gaussian, Inc.),
 the Gaussian 86(TM) system (copyright 1986, Carnegie Mellon
 University), and the Gaussian 82(TM) system (copyright 1983,
 Carnegie Mellon University). Gaussian is a federally registered
 trademark of Gaussian, Inc.
  
 This software contains proprietary and confidential information,
 including trade secrets, belonging to Gaussian, Inc.
  
 This software is provided under written license and may be
 used, copied, transmitted, or stored only in accord with that
 written license.
  
 The following legend is applicable only to US Government
 contracts under FAR:
  
                    RESTRICTED RIGHTS LEGEND
  
 Use, reproduction and disclosure by the US Government is
 subject to restrictions as set forth in subparagraphs (a)
 and (c) of the Commercial Computer Software - Restricted
 Rights clause in FAR 52.227-19.
  
 Gaussian, Inc.
 340 Quinnipiac St., Bldg. 40, Wallingford CT 06492
  
  
 ---------------------------------------------------------------
 Warning -- This program may not be used in any manner that
 competes with the business of Gaussian, Inc. or will provide
 assistance to any competitor of Gaussian, Inc.  The licensee
 of this program is prohibited from giving any competitor of
 Gaussian, Inc. access to this program.  By using this program,
 the user acknowledges that Gaussian, Inc. is engaged in the
 business of creating and licensing software in the field of
 computational chemistry and represents and warrants to the
 licensee that it is not a competitor of Gaussian, Inc. and that
 it will not use this program in any manner prohibited above.
 ---------------------------------------------------------------
  

 Cite this work as:
 Gaussian 16, Revision C.01,
 M. J. Frisch, G. W. Trucks, H. B. Schlegel, G. E. Scuseria, 
 M. A. Robb, J. R. Cheeseman, G. Scalmani, V. Barone, 
 G. A. Petersson, H. Nakatsuji, X. Li, M. Caricato, A. V. Marenich, 
 J. Bloino, B. G. Janesko, R. Gomperts, B. Mennucci, H. P. Hratchian, 
 J. V. Ortiz, A. F. Izmaylov, J. L. Sonnenberg, D. Williams-Young, 
 F. Ding, F. Lipparini, F. Egidi, J. Goings, B. Peng, A. Petrone, 
 T. Henderson, D. Ranasinghe, V. G. Zakrzewski, J. Gao, N. Rega, 
 G. Zheng, W. Liang, M. Hada, M. Ehara, K. Toyota, R. Fukuda, 
 J. Hasegawa, M. Ishida, T. Nakajima, Y. Honda, O. Kitao, H. Nakai, 
 T. Vreven, K. Throssell, J. A. Montgomery, Jr., J. E. Peralta, 
 F. Ogliaro, M. J. Bearpark, J. J. Heyd, E. N. Brothers, K. N. Kudin, 
 V. N. Staroverov, T. A. Keith, R. Kobayashi, J. Normand, 
 K. Raghavachari, A. P. Rendell, J. C. Burant, S. S. Iyengar, 
 J. Tomasi, M. Cossi, J. M. Millam, M. Klene, C. Adamo, R. Cammi, 
 J. W. Ochterski, R. L. Martin, K. Morokuma, O. Farkas, 
 J. B. Foresman, and D. J. Fox, Gaussian, Inc., Wallingford CT, 2019.
 
 ******************************************
 Gaussian 16:  ES64L-G16RevC.01  3-Jul-2019
                18-Oct-2021 
 ******************************************
 %chk=_3_alde1_5_ami4_2_opt_gas.chk
 %mem=60000mb
 %nprocshared=32
 Will use up to   32 processors via shared memory.
 ----------------------------------------------------------------------
 #P PBE1PBE/Def2TZVP SP SCF=(YQC,MaxCycle=900) int=(Grid=Superfinegrid)
  EmpiricalDispersion=GD3
 ----------------------------------------------------------------------
 1/38=1,172=1/1;
 2/12=2,17=6,18=5,40=1/2;
 3/5=44,7=101,11=2,25=1,30=1,74=-13,75=-7,124=31/1,2,3;
 4//1;
 5/5=2,7=900,8=4,13=1,38=1/8,2,8;
 6/7=2,8=2,9=2,10=2,28=1/1;
 99/5=1,9=1/99;
 Leave Link    1 at Mon Oct 18 00:36:48 2021, MaxMem=  7864320000 cpu:               5.1 elap:               0.2
 (Enter /apps/gaussian/g16-c01-avx/g16/l101.exe)
 -------------------------
 _3_alde1_5_ami4_2_opt_gas
 -------------------------
 Symbolic Z-matrix:
 Charge =  0 Multiplicity = 1
 C                    -4.594    -0.9946   -1.2207 
 C                    -5.3871    0.1015   -0.6852 
 C                    -4.3326   -2.1402   -0.4699 
 C                    -3.4922   -3.1306   -0.9661 
 H                    -4.791    -2.2328    0.5032 
 C                    -2.8709   -2.9498   -2.203 
 C                    -3.1376   -1.8223   -2.9692 
 H                    -2.1913   -3.714    -2.5477 
 C                    -4.0249   -0.8634   -2.4823 
 C                    -2.4459   -1.6022   -4.2329 
 H                    -4.2295   -0.0002   -3.0956 
 C                    -3.2415   -4.3406   -0.1948 
 H                    -1.5431   -2.2117   -4.392 
 H                    -5.6773    0.8722   -1.4142 
 H                    -3.8342   -4.4469    0.7276 
 C                     3.3644   -3.3035   -0.2926 
 C                     4.3739   -3.9566   -1.115 
 C                     3.5359   -1.9873    0.1325 
 C                     2.5686   -1.3627    0.9139 
 H                     4.4287   -1.448    -0.1381 
 C                     1.4167   -2.0648    1.263 
 C                     1.2389   -3.3849    0.8598 
 H                     0.658    -1.5828    1.865 
 C                     2.2178   -3.9985    0.0808 
 C                     0.0476   -4.1124    1.2685 
 H                     2.0607   -5.0226   -0.2214 
 C                     2.756    -0.001     1.3927 
 H                    -0.7137   -3.5162    1.7991 
 H                     4.1605   -4.9994   -1.3983 
 H                     1.9411    0.4021    2.0145 
 C                    -2.009     2.3786   -0.409 
 C                    -2.9928    2.3684    0.6658 
 C                    -2.4283    2.2422   -1.7317 
 C                    -1.5051    2.1044   -2.7613 
 H                    -3.4884    2.2142   -1.9282 
 C                    -0.1432    2.1519   -2.467 
 C                     0.2902    2.3558   -1.1614 
 H                     0.5622    2.0384   -3.276 
 C                    -0.6483    2.447    -0.1327 
 C                     1.7149    2.4697   -0.8798 
 H                    -0.2912    2.578     0.8775 
 C                    -1.9804    1.8486   -4.1123 
 H                     2.3893    2.2017   -1.7071 
 H                    -3.0625    1.9777   -4.2623 
 C                    -5.1805    2.3643    1.4904 
 C                    -6.2883    1.4115    0.9901 
 N                    -4.2239    2.5221    0.443 
 N                    -5.6729    0.2       0.5408 
 C                     6.5086   -3.2219   -3.6326 
 C                     6.3835   -4.0085   -2.3065 
 N                     6.8902   -1.8373   -3.476 
 N                     5.4268   -3.3621   -1.472 
 C                    -2.1257   -6.3633    0.204 
 C                    -1.2988   -5.9962    1.4534 
 N                    -2.4016   -5.1981   -0.5834 
 N                    -0.0949   -5.3466    1.0541 
 C                    -2.0633   -0.4592   -6.2323 
 C                    -1.8184    1.0651   -6.2786 
 N                    -2.8406   -0.7463   -5.0699 
 N                    -1.2188    1.46     -5.041 
 C                     3.9111    2.0045    1.6124 
 C                     3.5439    2.9752    0.4746 
 N                     3.7966    0.6636    1.1349 
 N                     2.1411    2.885     0.2322 
 H                     6.2122   -1.3712   -2.8815 
 H                     7.7908   -1.7738   -3.0116 
 H                    -2.5946    2.1806    1.6754 
 H                     5.5434   -3.2462   -4.1463 
 H                     7.2499   -3.7182   -4.265 
 H                     7.3482   -3.974    -1.7883 
 H                     6.1283   -5.0602   -2.5224 
 H                    -4.7324    1.9701    2.416 
 H                    -5.6349    3.3379    1.6986 
 H                    -6.8405    1.9186    0.1847 
 H                    -6.9625    1.1793    1.817 
 H                     4.9524    2.1713    1.8976 
 H                     3.2483    2.2093    2.4672 
 H                     4.1494    2.7392   -0.4147 
 H                     3.7593    3.9943    0.8081 
 H                    -1.5459   -7.0442   -0.4223 
 H                    -3.0449   -6.8616    0.5414 
 H                    -2.784     1.5641   -6.4497 
 H                    -1.1287    1.2936   -7.0935 
 H                    -2.6413   -0.7415   -7.1171 
 H                    -1.1008   -0.9945   -6.2395 
 H                    -1.0307   -6.9191    1.9747 
 H                    -1.9162   -5.3654    2.1173 
 
 ITRead=  0  0  0  0  0  0  0  0  0  0  0  0  0  0  0  0  0  0  0  0
 ITRead=  0  0  0  0  0  0  0  0  0  0  0  0  0  0  0  0  0  0  0  0
 ITRead=  0  0  0  0  0  0  0  0  0  0  0  0  0  0  0  0  0  0  0  0
 ITRead=  0  0  0  0  0  0  0  0  0  0  0  0  0  0  0  0  0  0  0  0
 ITRead=  0  0  0  0  0  0  0
 MicOpt= -1 -1 -1 -1 -1 -1 -1 -1 -1 -1 -1 -1 -1 -1 -1 -1 -1 -1 -1 -1
 MicOpt= -1 -1 -1 -1 -1 -1 -1 -1 -1 -1 -1 -1 -1 -1 -1 -1 -1 -1 -1 -1
 MicOpt= -1 -1 -1 -1 -1 -1 -1 -1 -1 -1 -1 -1 -1 -1 -1 -1 -1 -1 -1 -1
 MicOpt= -1 -1 -1 -1 -1 -1 -1 -1 -1 -1 -1 -1 -1 -1 -1 -1 -1 -1 -1 -1
 MicOpt= -1 -1 -1 -1 -1 -1 -1
 NAtoms=     87 NQM=       87 NQMF=       0 NMMI=      0 NMMIF=      0
                NMic=       0 NMicF=      0.
                    Isotopes and Nuclear Properties:
 (Nuclear quadrupole moments (NQMom) in fm**2, nuclear magnetic moments (NMagM)
  in nuclear magnetons)

  Atom         1           2           3           4           5           6           7           8           9          10
 IAtWgt=          12          12          12          12           1          12          12           1          12          12
 AtmWgt=  12.0000000  12.0000000  12.0000000  12.0000000   1.0078250  12.0000000  12.0000000   1.0078250  12.0000000  12.0000000
 NucSpn=           0           0           0           0           1           0           0           1           0           0
 AtZEff=  -0.0000000  -0.0000000  -0.0000000  -0.0000000  -0.0000000  -0.0000000  -0.0000000  -0.0000000  -0.0000000  -0.0000000
 NQMom=    0.0000000   0.0000000   0.0000000   0.0000000   0.0000000   0.0000000   0.0000000   0.0000000   0.0000000   0.0000000
 NMagM=    0.0000000   0.0000000   0.0000000   0.0000000   2.7928460   0.0000000   0.0000000   2.7928460   0.0000000   0.0000000
 AtZNuc=   6.0000000   6.0000000   6.0000000   6.0000000   1.0000000   6.0000000   6.0000000   1.0000000   6.0000000   6.0000000

  Atom        11          12          13          14          15          16          17          18          19          20
 IAtWgt=           1          12           1           1           1          12          12          12          12           1
 AtmWgt=   1.0078250  12.0000000   1.0078250   1.0078250   1.0078250  12.0000000  12.0000000  12.0000000  12.0000000   1.0078250
 NucSpn=           1           0           1           1           1           0           0           0           0           1
 AtZEff=  -0.0000000  -0.0000000  -0.0000000  -0.0000000  -0.0000000  -0.0000000  -0.0000000  -0.0000000  -0.0000000  -0.0000000
 NQMom=    0.0000000   0.0000000   0.0000000   0.0000000   0.0000000   0.0000000   0.0000000   0.0000000   0.0000000   0.0000000
 NMagM=    2.7928460   0.0000000   2.7928460   2.7928460   2.7928460   0.0000000   0.0000000   0.0000000   0.0000000   2.7928460
 AtZNuc=   1.0000000   6.0000000   1.0000000   1.0000000   1.0000000   6.0000000   6.0000000   6.0000000   6.0000000   1.0000000

  Atom        21          22          23          24          25          26          27          28          29          30
 IAtWgt=          12          12           1          12          12           1          12           1           1           1
 AtmWgt=  12.0000000  12.0000000   1.0078250  12.0000000  12.0000000   1.0078250  12.0000000   1.0078250   1.0078250   1.0078250
 NucSpn=           0           0           1           0           0           1           0           1           1           1
 AtZEff=  -0.0000000  -0.0000000  -0.0000000  -0.0000000  -0.0000000  -0.0000000  -0.0000000  -0.0000000  -0.0000000  -0.0000000
 NQMom=    0.0000000   0.0000000   0.0000000   0.0000000   0.0000000   0.0000000   0.0000000   0.0000000   0.0000000   0.0000000
 NMagM=    0.0000000   0.0000000   2.7928460   0.0000000   0.0000000   2.7928460   0.0000000   2.7928460   2.7928460   2.7928460
 AtZNuc=   6.0000000   6.0000000   1.0000000   6.0000000   6.0000000   1.0000000   6.0000000   1.0000000   1.0000000   1.0000000

  Atom        31          32          33          34          35          36          37          38          39          40
 IAtWgt=          12          12          12          12           1          12          12           1          12          12
 AtmWgt=  12.0000000  12.0000000  12.0000000  12.0000000   1.0078250  12.0000000  12.0000000   1.0078250  12.0000000  12.0000000
 NucSpn=           0           0           0           0           1           0           0           1           0           0
 AtZEff=  -0.0000000  -0.0000000  -0.0000000  -0.0000000  -0.0000000  -0.0000000  -0.0000000  -0.0000000  -0.0000000  -0.0000000
 NQMom=    0.0000000   0.0000000   0.0000000   0.0000000   0.0000000   0.0000000   0.0000000   0.0000000   0.0000000   0.0000000
 NMagM=    0.0000000   0.0000000   0.0000000   0.0000000   2.7928460   0.0000000   0.0000000   2.7928460   0.0000000   0.0000000
 AtZNuc=   6.0000000   6.0000000   6.0000000   6.0000000   1.0000000   6.0000000   6.0000000   1.0000000   6.0000000   6.0000000

  Atom        41          42          43          44          45          46          47          48          49          50
 IAtWgt=           1          12           1           1          12          12          14          14          12          12
 AtmWgt=   1.0078250  12.0000000   1.0078250   1.0078250  12.0000000  12.0000000  14.0030740  14.0030740  12.0000000  12.0000000
 NucSpn=           1           0           1           1           0           0           2           2           0           0
 AtZEff=  -0.0000000  -0.0000000  -0.0000000  -0.0000000  -0.0000000  -0.0000000  -0.0000000  -0.0000000  -0.0000000  -0.0000000
 NQMom=    0.0000000   0.0000000   0.0000000   0.0000000   0.0000000   0.0000000   2.0440000   2.0440000   0.0000000   0.0000000
 NMagM=    2.7928460   0.0000000   2.7928460   2.7928460   0.0000000   0.0000000   0.4037610   0.4037610   0.0000000   0.0000000
 AtZNuc=   1.0000000   6.0000000   1.0000000   1.0000000   6.0000000   6.0000000   7.0000000   7.0000000   6.0000000   6.0000000

  Atom        51          52          53          54          55          56          57          58          59          60
 IAtWgt=          14          14          12          12          14          14          12          12          14          14
 AtmWgt=  14.0030740  14.0030740  12.0000000  12.0000000  14.0030740  14.0030740  12.0000000  12.0000000  14.0030740  14.0030740
 NucSpn=           2           2           0           0           2           2           0           0           2           2
 AtZEff=  -0.0000000  -0.0000000  -0.0000000  -0.0000000  -0.0000000  -0.0000000  -0.0000000  -0.0000000  -0.0000000  -0.0000000
 NQMom=    2.0440000   2.0440000   0.0000000   0.0000000   2.0440000   2.0440000   0.0000000   0.0000000   2.0440000   2.0440000
 NMagM=    0.4037610   0.4037610   0.0000000   0.0000000   0.4037610   0.4037610   0.0000000   0.0000000   0.4037610   0.4037610
 AtZNuc=   7.0000000   7.0000000   6.0000000   6.0000000   7.0000000   7.0000000   6.0000000   6.0000000   7.0000000   7.0000000

  Atom        61          62          63          64          65          66          67          68          69          70
 IAtWgt=          12          12          14          14           1           1           1           1           1           1
 AtmWgt=  12.0000000  12.0000000  14.0030740  14.0030740   1.0078250   1.0078250   1.0078250   1.0078250   1.0078250   1.0078250
 NucSpn=           0           0           2           2           1           1           1           1           1           1
 AtZEff=  -0.0000000  -0.0000000  -0.0000000  -0.0000000  -0.0000000  -0.0000000  -0.0000000  -0.0000000  -0.0000000  -0.0000000
 NQMom=    0.0000000   0.0000000   2.0440000   2.0440000   0.0000000   0.0000000   0.0000000   0.0000000   0.0000000   0.0000000
 NMagM=    0.0000000   0.0000000   0.4037610   0.4037610   2.7928460   2.7928460   2.7928460   2.7928460   2.7928460   2.7928460
 AtZNuc=   6.0000000   6.0000000   7.0000000   7.0000000   1.0000000   1.0000000   1.0000000   1.0000000   1.0000000   1.0000000

  Atom        71          72          73          74          75          76          77          78          79          80
 IAtWgt=           1           1           1           1           1           1           1           1           1           1
 AtmWgt=   1.0078250   1.0078250   1.0078250   1.0078250   1.0078250   1.0078250   1.0078250   1.0078250   1.0078250   1.0078250
 NucSpn=           1           1           1           1           1           1           1           1           1           1
 AtZEff=  -0.0000000  -0.0000000  -0.0000000  -0.0000000  -0.0000000  -0.0000000  -0.0000000  -0.0000000  -0.0000000  -0.0000000
 NQMom=    0.0000000   0.0000000   0.0000000   0.0000000   0.0000000   0.0000000   0.0000000   0.0000000   0.0000000   0.0000000
 NMagM=    2.7928460   2.7928460   2.7928460   2.7928460   2.7928460   2.7928460   2.7928460   2.7928460   2.7928460   2.7928460
 AtZNuc=   1.0000000   1.0000000   1.0000000   1.0000000   1.0000000   1.0000000   1.0000000   1.0000000   1.0000000   1.0000000

  Atom        81          82          83          84          85          86          87
 IAtWgt=           1           1           1           1           1           1           1
 AtmWgt=   1.0078250   1.0078250   1.0078250   1.0078250   1.0078250   1.0078250   1.0078250
 NucSpn=           1           1           1           1           1           1           1
 AtZEff=  -0.0000000  -0.0000000  -0.0000000  -0.0000000  -0.0000000  -0.0000000  -0.0000000
 NQMom=    0.0000000   0.0000000   0.0000000   0.0000000   0.0000000   0.0000000   0.0000000
 NMagM=    2.7928460   2.7928460   2.7928460   2.7928460   2.7928460   2.7928460   2.7928460
 AtZNuc=   1.0000000   1.0000000   1.0000000   1.0000000   1.0000000   1.0000000   1.0000000
 Leave Link  101 at Mon Oct 18 00:36:49 2021, MaxMem=  7864320000 cpu:               2.2 elap:               0.1
 (Enter /apps/gaussian/g16-c01-avx/g16/l202.exe)
 Stoichiometry    C37H40N10
 Framework group  C1[X(C37H40N10)]
 Deg. of freedom   255
 Full point group                 C1      NOp   1
 Largest Abelian subgroup         C1      NOp   1
 Largest concise Abelian subgroup C1      NOp   1
                         Standard orientation:                         
 ---------------------------------------------------------------------
 Center     Atomic      Atomic             Coordinates (Angstroms)
 Number     Number       Type             X           Y           Z
 ---------------------------------------------------------------------
      1          6           0       -4.025328    1.412035    0.289217
      2          6           0       -5.104719    0.717570   -0.396229
      3          6           0       -3.399625    2.523488   -0.274341
      4          6           0       -2.307079    3.110466    0.354291
      5          1           0       -3.779043    2.908103   -1.209083
      6          6           0       -1.807732    2.550443    1.531429
      7          6           0       -2.433271    1.455142    2.113206
      8          1           0       -0.934064    2.999744    1.978091
      9          6           0       -3.560833    0.910799    1.499890
     10          6           0       -1.880021    0.832106    3.308853
     11          1           0       -4.040882    0.068124    1.971656
     12          6           0       -1.670934    4.288848   -0.218934
     13          1           0       -0.837243    1.096551    3.542377
     14          1           0       -5.640553   -0.030232    0.206523
     15          1           0       -2.175092    4.720045   -1.098314
     16          6           0        4.279166    1.244300   -0.442744
     17          6           0        5.418297    1.410637    0.449828
     18          6           0        4.044564    0.025625   -1.077014
     19          6           0        2.953240   -0.133691   -1.925547
     20          1           0        4.717368   -0.800784   -0.917187
     21          6           0        2.087137    0.938437   -2.130719
     22          6           0        2.317580    2.166219   -1.517290
     23          1           0        1.233312    0.819147   -2.784253
     24          6           0        3.416570    2.311999   -0.673157
     25          6           0        1.423618    3.283912   -1.776289
     26          1           0        3.577430    3.272139   -0.207279
     27          6           0        2.721093   -1.391384   -2.620466
     28          1           0        0.529800    3.047069   -2.377591
     29          1           0        5.532019    2.408841    0.901364
     30          1           0        1.838977   -1.416101   -3.279592
     31          6           0       -2.596201   -2.423703   -1.112307
     32          6           0       -3.497521   -1.936435   -2.148335
     33          6           0       -2.989132   -2.376153    0.224592
     34          6           0       -2.098078   -2.698697    1.241131
     35          1           0       -3.992993   -2.051075    0.447739
     36          6           0       -0.810841   -3.120451    0.911303
     37          6           0       -0.425992   -3.238352   -0.419859
     38          1           0       -0.128074   -3.362764    1.711344
     39          6           0       -1.317110   -2.867531   -1.427690
     40          6           0        0.899893   -3.743892   -0.749253
     41          1           0       -0.990338   -2.940459   -2.453890
     42          6           0       -2.507858   -2.526363    2.626384
     43          1           0        1.600758   -3.834732    0.094311
     44          1           0       -3.580185   -2.334192    2.779000
     45          6           0       -5.551419   -1.119806   -2.910327
     46          6           0       -6.321427    0.038060   -2.238179
     47          7           0       -4.721085   -1.732507   -1.924338
     48          7           0       -5.372535    0.909716   -1.615169
     49          6           0        7.147178   -0.343754    2.766748
     50          6           0        7.310151    0.643458    1.587010
     51          7           0        7.083372   -1.734737    2.381581
     52          7           0        6.223602    0.468882    0.682337
     53          6           0        0.029408    5.899763   -0.314629
     54          6           0        0.735734    5.497463   -1.625654
     55          7           0       -0.617191    4.768631    0.282247
     56          7           0        1.666161    4.450320   -1.363750
     57          6           0       -1.928091   -0.676495    5.089933
     58          6           0       -2.170897   -2.188113    4.885812
     59          7           0       -2.544654    0.019821    4.006978
     60          7           0       -1.689479   -2.547544    3.587287
     61          6           0        3.200718   -3.594875   -3.185390
     62          6           0        2.518077   -4.571213   -2.209455
     63          7           0        3.495685   -2.379165   -2.496787
     64          7           0        1.206722   -4.088447   -1.923051
     65          1           0        6.310946   -1.865461    1.736110
     66          1           0        7.932170   -2.000696    1.892105
     67          1           0       -3.032554   -1.723607   -3.123852
     68          1           0        6.223437   -0.102255    3.300106
     69          1           0        7.988071   -0.210493    3.452978
     70          1           0        8.230370    0.393277    1.047590
     71          1           0        7.388820    1.673762    1.974435
     72          1           0       -4.977196   -0.742552   -3.771065
     73          1           0       -6.280112   -1.857168   -3.261079
     74          1           0       -7.026296   -0.393379   -1.511705
     75          1           0       -6.866518    0.597361   -3.001254
     76          1           0        4.146027   -4.029989   -3.517855
     77          1           0        2.531302   -3.444059   -4.046242
     78          1           0        3.141799   -4.680453   -1.308223
     79          1           0        2.415033   -5.539837   -2.706781
     80          1           0        0.774473    6.257228    0.398913
     81          1           0       -0.679358    6.706632   -0.546324
     82          1           0       -3.248206   -2.382112    4.997297
     83          1           0       -1.609594   -2.746863    5.637276
     84          1           0       -2.414137   -0.373043    6.021772
     85          1           0       -0.847428   -0.475943    5.160283
     86          1           0        1.292101    6.361625   -1.998555
     87          1           0       -0.028413    5.204635   -2.367399
 ---------------------------------------------------------------------
 Rotational constants (GHZ):           0.0684206           0.0452942           0.0395784
 Leave Link  202 at Mon Oct 18 00:36:49 2021, MaxMem=  7864320000 cpu:               0.2 elap:               0.0
 (Enter /apps/gaussian/g16-c01-avx/g16/l301.exe)
 Standard basis: def2TZVP (5D, 7F)
 Ernie: Thresh=  0.10000D-02 Tol=  0.10000D-05 Strict=F.
 There are  1932 symmetry adapted cartesian basis functions of A   symmetry.
 There are  1697 symmetry adapted basis functions of A   symmetry.
  1697 basis functions,  2717 primitive gaussians,  1932 cartesian basis functions
   166 alpha electrons      166 beta electrons
       nuclear repulsion energy      5599.4622094533 Hartrees.
 IExCor= 1009 DFT=T Ex+Corr=PBE1PBE ExCW=0 ScaHFX=  0.250000
 ScaDFX=  0.750000  0.750000  1.000000  1.000000 ScalE2=  1.000000  1.000000
 IRadAn=      7 IRanWt=     -1 IRanGd=            0 ICorTp=0 IEmpDi=131
 NAtoms=   87 NActive=   87 NUniq=   87 SFac= 1.00D+00 NAtFMM=   60 NAOKFM=T Big=T
 Integral buffers will be    131072 words long.
 Raffenetti 2 integral format.
 Two-electron integral symmetry is turned on.
 R6Disp:  Grimme-D3 Dispersion energy=       -0.0629466862 Hartrees.
 Nuclear repulsion after empirical dispersion term =     5599.3992627671 Hartrees.
 Leave Link  301 at Mon Oct 18 00:36:49 2021, MaxMem=  7864320000 cpu:               1.1 elap:               0.0
 (Enter /apps/gaussian/g16-c01-avx/g16/l302.exe)
 NPDir=0 NMtPBC=     1 NCelOv=     1 NCel=       1 NClECP=     1 NCelD=      1
         NCelK=      1 NCelE2=     1 NClLst=     1 CellRange=     0.0.
 One-electron integrals computed using PRISM.
 One-electron integral symmetry used in STVInt
   1 Symmetry operations used in ECPInt.
 ECPInt:  NShTT=  229503 NPrTT=  697944 LenC2=  160537 LenP2D=  315666.
 LDataN:  DoStor=T MaxTD1= 6 Len=  172
 NBasis=  1697 RedAO= T EigKep=  5.18D-06  NBF=  1697
 NBsUse=  1697 1.00D-06 EigRej= -1.00D+00 NBFU=  1697
 Precomputing XC quadrature grid using
 IXCGrd= 4 IRadAn=           7 IRanWt=          -1 IRanGd=           0 AccXCQ= 0.00D+00.
 Generated NRdTot=       0 NPtTot=           0 NUsed=           0 NTot=          32
 NSgBfM=  1788  1756  1760  1773  1788 MxSgAt=    87 MxSgA2=    87.
 Leave Link  302 at Mon Oct 18 00:36:57 2021, MaxMem=  7864320000 cpu:             267.8 elap:               8.4
 (Enter /apps/gaussian/g16-c01-avx/g16/l303.exe)
 DipDrv:  MaxL=1.
 Leave Link  303 at Mon Oct 18 00:36:58 2021, MaxMem=  7864320000 cpu:              15.9 elap:               0.7
 (Enter /apps/gaussian/g16-c01-avx/g16/l401.exe)
 ExpMin= 9.52D-02 ExpMax= 1.97D+04 ExpMxC= 6.73D+02 IAcc=3 IRadAn=         7 AccDes= 0.00D+00
 Harris functional with IExCor= 1009 and IRadAn=       7 diagonalized for initial guess.
 HarFok:  IExCor= 1009 AccDes= 0.00D+00 IRadAn=         7 IDoV= 1 UseB2=F ITyADJ=14
 ICtDFT=  3500011 ScaDFX=  1.000000  1.000000  1.000000  1.000000
 FoFCou: FMM=F IPFlag=           0 FMFlag=      100000 FMFlg1=        2001
         NFxFlg=           0 DoJE=T BraDBF=F KetDBF=T FulRan=T
         wScrn=  0.000000 ICntrl=       500 IOpCl=  0 I1Cent=   200000004 NGrid=           0
         NMat0=    1 NMatS0=      1 NMatT0=    0 NMatD0=    1 NMtDS0=    0 NMtDT0=    0
 Petite list used in FoFCou.
 Harris En= -1980.30538856966    
 JPrj=0 DoOrth=F DoCkMO=F.
 Leave Link  401 at Mon Oct 18 00:37:24 2021, MaxMem=  7864320000 cpu:             829.0 elap:              26.1
 (Enter /apps/gaussian/g16-c01-avx/g16/l508.exe)
 Integral symmetry usage will be decided dynamically.
 Tight linear equation convergence will be used.
 RPBE1PBE wavefunction.
 Linear searches until partial convergence.
 Full line searches.
 Fock matrices will be formed incrementally for  20 cycles.
 FoFJK:  IHMeth= 1 ICntrl=       0 DoSepK=F KAlg= 0 I1Cent=           0 FoldK=F
 IRaf= 670000000 NMat=       1 IRICut=       1 DoRegI=T DoRafI=F ISym2E= 1 IDoP0=0 IntGTp=1.
 FoFCou: FMM=T IPFlag=           0 FMFlag=      100000 FMFlg1=        2001
         NFxFlg=           0 DoJE=F BraDBF=F KetDBF=F FulRan=T
         wScrn=  0.000000 ICntrl=         0 IOpCl=  0 I1Cent=           0 NGrid=           0
         NMat0=    1 NMatS0=      1 NMatT0=    0 NMatD0=    1 NMtDS0=    0 NMtDT0=    0
 Petite list used in FoFCou.
 FMM levels:  10  Number of levels for PrismC:   9
 Iteration   1 EE= -1979.00393955575                                    Grad=1.381D+00 Max rot=    1.8683 deg.
 Gradient too large for Newton-Raphson -- use scaled steepest descent instead.
 Alpha Gap=     0.192 HL deriv= 9.69D-03
     ILin= 1 X=0.000D+00 Y=-1.979003939556D+03 DE= 0.00D+00 F= -3.36D+00
 RMSU=  7.58D-04    CP:  1.02D+00
     ILin= 2 X=3.000D-01 Y=-1.979691988739D+03 DE=-6.88D-01 F= -1.21D+00 OKLS=F
 RMSU=  1.37D-04    CP:  1.03D+00  1.79D+00
     ILin= 3 X=5.000D-01 Y=-1.979788324712D+03 DE=-7.84D-01 F=  2.52D-01
     Accept linear search using points  2 and  3.
     An  expanding polynomial of degree  3 produced  0.3844
 RMSU=  6.11D-08    CP:  1.02D+00  1.32D+00  3.25D-01
 Iteration   2 EE= -1979.76837052247     Delta-E=       -0.764430966714 Grad=5.002D-01 Max rot=    1.7614 deg.
 Gradient too large for Newton-Raphson -- use scaled steepest descent instead.
 Alpha Gap=     0.201 HL deriv= 1.05D-02
     ILin= 1 X=0.000D+00 Y=-1.979768370522D+03 DE= 0.00D+00 F= -2.39D-01
 RMSU=  9.86D-05    CP:  1.03D+00  1.58D+00  6.30D-01 -3.00D+00
     ILin= 2 X=3.000D-01 Y=-1.979822162354D+03 DE=-5.38D-02 F= -1.20D-01 OKLS=F
 RMSU=  1.54D-05    CP:  1.03D+00  1.94D+00  1.22D+00 -3.00D+00  2.38D+00
     ILin= 3 X=7.000D-01 Y=-1.979838422257D+03 DE=-7.01D-02 F=  3.85D-02
     Accept linear search using points  2 and  3.
     An  expanding polynomial of degree  3 produced  0.5114
 RMSU=  4.37D-08    CP:  1.03D+00  1.77D+00  9.15D-01 -3.00D+00  1.72D+00
                    CP:  3.86D-01
 Iteration   3 EE= -1979.83864916942     Delta-E=       -0.070278646958 Grad=2.109D-01 Max rot=    0.7889 deg.
 Gradient too large for Newton-Raphson -- use scaled steepest descent instead.
 Alpha Gap=     0.191 HL deriv= 6.54D-03
     ILin= 1 X=0.000D+00 Y=-1.979838649169D+03 DE= 0.00D+00 F= -3.49D-02
 RMSU=  6.04D-05    CP:  1.03D+00  1.95D+00  1.26D+00 -3.00D+00  2.30D+00
                    CP:  8.83D-01  3.00D+00
     ILin= 2 X=4.000D-01 Y=-1.979846970522D+03 DE=-8.32D-03 F= -6.75D-03 OKLS=F
 RMSU=  6.22D-06    CP:  1.04D+00  2.20D+00  1.77D+00 -3.00D+00  3.00D+00
                    CP:  1.82D+00  3.00D+00  2.27D+00
     ILin= 3 X=9.000D-01 Y=-1.979841558467D+03 DE=-2.91D-03 F=  2.84D-02
     An  expanding polynomial of degree  3 produced  0.4960
 RMSU=  3.29D-07    CP:  1.03D+00  2.00D+00  1.35D+00 -3.00D+00  2.45D+00
                    CP:  1.04D+00  3.00D+00  1.24D+00  5.82D-02
 Iteration   4 EE= -1979.84729415712     Delta-E=       -0.008644987692 Grad=1.063D-01 Max rot=    0.3882 deg.
 Gradient too large for Newton-Raphson -- use scaled steepest descent instead.
 Alpha Gap=     0.199 HL deriv= 6.13D-03
     ILin= 1 X=0.000D+00 Y=-1.979847294157D+03 DE= 0.00D+00 F= -1.09D-02
 RMSU=  3.31D-05    CP:  1.03D+00  2.03D+00  1.40D+00 -3.00D+00  2.93D+00
                    CP:  1.48D+00 -3.00D+00  1.18D+00  1.44D-02  4.31D-02
     ILin= 2 X=5.000D-01 Y=-1.979849310159D+03 DE=-2.02D-03 F=  2.80D-03 OKLS=T
     Accept linear search using points  1 and  2.
     An  expanding polynomial of degree  2 produced  0.2930
 RMSU=  2.15D-07    CP:  1.03D+00  2.02D+00  1.38D+00 -3.00D+00  2.73D+00
                    CP:  1.29D+00  3.00D+00  1.21D+00  2.72D-02  3.33D-01
                    CP:  5.85D-01
 Iteration   5 EE= -1979.84930486071     Delta-E=       -0.002010703591 Grad=6.641D-02 Max rot=    0.2650 deg.
 Gradient too large for Newton-Raphson -- use scaled steepest descent instead.
 Alpha Gap=     0.196 HL deriv= 4.59D-04
     ILin= 1 X=0.000D+00 Y=-1.979849304861D+03 DE= 0.00D+00 F= -2.00D-03
 RMSU=  6.01D-06    CP:  1.03D+00  2.08D+00  1.51D+00 -3.00D+00  3.00D+00
                    CP:  1.64D+00  3.00D+00  1.47D+00  3.74D-01 -1.45D+00
                    CP:  1.06D+00 -3.00D+00
     ILin= 2 X=5.000D-01 Y=-1.979850039620D+03 DE=-7.35D-04 F= -9.42D-04 OKLS=F
 RMSU=  2.03D-05    CP:  1.03D+00  2.15D+00  1.64D+00 -3.00D+00  3.00D+00
                    CP:  2.04D+00  3.00D+00  1.74D+00  3.00D+00 -3.00D+00
                    CP:  1.54D+00 -3.00D+00  2.01D+00
     ILin= 3 X=1.000D+00 Y=-1.979850246651D+03 DE=-9.42D-04 F=  1.14D-04
     Accept linear search using points  2 and  3.
     An  expanding polynomial of degree  3 produced  0.8185
 RMSU=  2.60D-06    CP:  1.03D+00  2.12D+00  1.59D+00 -3.00D+00  3.00D+00
                    CP:  1.89D+00  3.00D+00  1.64D+00  2.47D+00 -3.00D+00
                    CP:  1.36D+00 -3.00D+00  1.64D+00  6.01D-01
 Iteration   6 EE= -1979.85023252524     Delta-E=       -0.000927664533 Grad=1.151D-02 Max rot=    0.0325 deg.
 Gradient too large for Newton-Raphson -- use scaled steepest descent instead.
 Alpha Gap=     0.196 HL deriv= 4.61D-04
     ILin= 1 X=0.000D+00 Y=-1.979850232525D+03 DE= 0.00D+00 F= -7.45D-05
 RMSU=  2.82D-06    CP:  1.03D+00  2.14D+00  1.62D+00 -3.00D+00  3.00D+00
                    CP:  1.98D+00  3.00D+00  1.69D+00  3.00D+00 -3.00D+00
                    CP:  1.60D+00 -3.00D+00  2.43D+00  8.03D-01  9.48D-01
     ILin= 2 X=5.000D-01 Y=-1.979850259147D+03 DE=-2.66D-05 F= -3.20D-05 OKLS=F
 RMSU=  1.37D-06    CP:  1.03D+00  2.15D+00  1.64D+00 -3.00D+00  3.00D+00
                    CP:  2.07D+00  3.00D+00  1.75D+00  3.00D+00 -3.00D+00
                    CP:  1.85D+00 -3.00D+00  3.00D+00  1.04D+00 -3.44D-01
                    CP:  2.00D+00
     ILin= 3 X=1.000D+00 Y=-1.979850264557D+03 DE=-3.20D-05 F=  1.04D-05
     Accept linear search using points  2 and  3.
     An  expanding polynomial of degree  3 produced  0.7856
 RMSU=  1.63D-08    CP:  1.03D+00  2.14D+00  1.63D+00 -3.00D+00  3.00D+00
                    CP:  2.03D+00  3.00D+00  1.73D+00  3.00D+00 -3.00D+00
                    CP:  1.74D+00 -3.00D+00  2.89D+00  9.37D-01  2.11D-01
                    CP:  1.57D+00  2.47D-04
 Iteration   7 EE= -1979.85026483490     Delta-E=       -0.000032309659 Grad=3.489D-03 Max rot=    0.0105 deg.
 SCF Done:  E(RPBE1PBE) =  -1979.85026483     a.u. after    7 cycles
            Convg  =    0.3489D-02                    18 Fock formations.
              S**2 =  0.0000                  -V/T =  2.0045
 Leave Link  508 at Mon Oct 18 01:13:58 2021, MaxMem=  7864320000 cpu:           69599.1 elap:            2194.4
 (Enter /apps/gaussian/g16-c01-avx/g16/l502.exe)
 Integral symmetry usage will be decided dynamically.
 Closed shell SCF:
 Using DIIS extrapolation, IDIIS=  1040.
 NGot=  7864320000 LenX=  7856774098 LenY=  7853039542
 Requested convergence on RMS density matrix=1.00D-08 within 128 cycles.
 Requested convergence on MAX density matrix=1.00D-06.
 Requested convergence on             energy=1.00D-06.
 No special actions if energy rises.
 Fock matrices will be formed incrementally for  20 cycles.

 Cycle   1  Pass 1  IDiag  1:
 FoFJK:  IHMeth= 1 ICntrl=       0 DoSepK=F KAlg= 0 I1Cent=           0 FoldK=F
 IRaf= 670000000 NMat=       1 IRICut=       1 DoRegI=T DoRafI=F ISym2E= 0 IDoP0=0 IntGTp=1.
 FoFCou: FMM=T IPFlag=           0 FMFlag=      100000 FMFlg1=        2001
         NFxFlg=           0 DoJE=F BraDBF=F KetDBF=F FulRan=T
         wScrn=  0.000000 ICntrl=         0 IOpCl=  0 I1Cent=           0 NGrid=           0
         NMat0=    1 NMatS0=      1 NMatT0=    0 NMatD0=    1 NMtDS0=    0 NMtDT0=    0
 Symmetry not used in FoFCou.
 FMM levels:  10  Number of levels for PrismC:   9
 E= -1979.85026483493    
 DIIS: error= 3.42D-05 at cycle   1 NSaved=   1.
 NSaved= 1 IEnMin= 1 EnMin= -1979.85026483493     IErMin= 1 ErrMin= 3.42D-05
 ErrMax= 3.42D-05  0.00D+00 EMaxC= 1.00D-01 BMatC= 6.09D-06 BMatP= 6.09D-06
 IDIUse=1 WtCom= 1.00D+00 WtEn= 0.00D+00
 Coeff-Com:  0.100D+01
 Coeff:      0.100D+01
 Gap=     0.196 Goal=   None    Shift=    0.000
 RMSDP=1.36D-05 MaxDP=2.99D-03              OVMax= 9.02D-04

 Cycle   2  Pass 1  IDiag  1:
 RMSU=  1.27D-05    CP:  1.00D+00
 E= -1979.85025963521     Delta-E=        0.000005199720 Rises=F Damp=F
 DIIS: error= 7.28D-05 at cycle   2 NSaved=   2.
 NSaved= 2 IEnMin= 1 EnMin= -1979.85026483493     IErMin= 1 ErrMin= 3.42D-05
 ErrMax= 7.28D-05  0.00D+00 EMaxC= 1.00D-01 BMatC= 1.15D-05 BMatP= 6.09D-06
 IDIUse=1 WtCom= 1.00D+00 WtEn= 0.00D+00
 Coeff-Com:  0.595D+00 0.405D+00
 Coeff:      0.595D+00 0.405D+00
 Gap=     0.177 Goal=   None    Shift=    0.000
 RMSDP=5.75D-06 MaxDP=2.30D-03 DE= 5.20D-06 OVMax= 8.06D-04

 Cycle   3  Pass 1  IDiag  1:
 RMSU=  4.67D-06    CP:  1.00D+00  7.71D-01
 E= -1979.85026954948     Delta-E=       -0.000009914275 Rises=F Damp=F
 DIIS: error= 2.24D-05 at cycle   3 NSaved=   3.
 NSaved= 3 IEnMin= 3 EnMin= -1979.85026954948     IErMin= 3 ErrMin= 2.24D-05
 ErrMax= 2.24D-05  0.00D+00 EMaxC= 1.00D-01 BMatC= 1.04D-06 BMatP= 6.09D-06
 IDIUse=1 WtCom= 1.00D+00 WtEn= 0.00D+00
 Coeff-Com:  0.203D-01 0.228D+00 0.751D+00
 Coeff:      0.203D-01 0.228D+00 0.751D+00
 Gap=     0.176 Goal=   None    Shift=    0.000
 RMSDP=1.43D-06 MaxDP=5.18D-04 DE=-9.91D-06 OVMax= 2.24D-04

 Cycle   4  Pass 1  IDiag  1:
 RMSU=  6.79D-07    CP:  1.00D+00  8.42D-01  8.22D-01
 E= -1979.85027041456     Delta-E=       -0.000000865073 Rises=F Damp=F
 DIIS: error= 7.31D-06 at cycle   4 NSaved=   4.
 NSaved= 4 IEnMin= 4 EnMin= -1979.85027041456     IErMin= 4 ErrMin= 7.31D-06
 ErrMax= 7.31D-06  0.00D+00 EMaxC= 1.00D-01 BMatC= 1.57D-07 BMatP= 1.04D-06
 IDIUse=1 WtCom= 1.00D+00 WtEn= 0.00D+00
 Coeff-Com: -0.181D-01 0.122D+00 0.470D+00 0.427D+00
 Coeff:     -0.181D-01 0.122D+00 0.470D+00 0.427D+00
 Gap=     0.177 Goal=   None    Shift=    0.000
 RMSDP=3.47D-07 MaxDP=9.77D-05 DE=-8.65D-07 OVMax= 5.84D-05

 Cycle   5  Pass 1  IDiag  1:
 RMSU=  2.61D-07    CP:  1.00D+00  8.38D-01  8.54D-01  7.76D-01
 E= -1979.85027055667     Delta-E=       -0.000000142117 Rises=F Damp=F
 DIIS: error= 9.52D-07 at cycle   5 NSaved=   5.
 NSaved= 5 IEnMin= 5 EnMin= -1979.85027055667     IErMin= 5 ErrMin= 9.52D-07
 ErrMax= 9.52D-07  0.00D+00 EMaxC= 1.00D-01 BMatC= 3.51D-09 BMatP= 1.57D-07
 IDIUse=1 WtCom= 1.00D+00 WtEn= 0.00D+00
 Coeff-Com: -0.967D-02 0.523D-01 0.206D+00 0.213D+00 0.538D+00
 Coeff:     -0.967D-02 0.523D-01 0.206D+00 0.213D+00 0.538D+00
 Gap=     0.177 Goal=   None    Shift=    0.000
 RMSDP=1.11D-07 MaxDP=2.98D-05 DE=-1.42D-07 OVMax= 1.85D-05

 Cycle   6  Pass 1  IDiag  1:
 RMSU=  6.76D-08    CP:  1.00D+00  8.42D-01  8.57D-01  7.44D-01  7.77D-01
 E= -1979.85027055932     Delta-E=       -0.000000002645 Rises=F Damp=F
 DIIS: error= 4.54D-07 at cycle   6 NSaved=   6.
 NSaved= 6 IEnMin= 6 EnMin= -1979.85027055932     IErMin= 6 ErrMin= 4.54D-07
 ErrMax= 4.54D-07  0.00D+00 EMaxC= 1.00D-01 BMatC= 9.52D-10 BMatP= 3.51D-09
 IDIUse=1 WtCom= 1.00D+00 WtEn= 0.00D+00
 Coeff-Com: -0.117D-02 0.710D-04 0.266D-02 0.177D-01 0.348D+00 0.633D+00
 Coeff:     -0.117D-02 0.710D-04 0.266D-02 0.177D-01 0.348D+00 0.633D+00
 Gap=     0.177 Goal=   None    Shift=    0.000
 RMSDP=5.22D-08 MaxDP=1.83D-05 DE=-2.64D-09 OVMax= 7.99D-06

 Cycle   7  Pass 1  IDiag  1:
 RMSU=  2.05D-08    CP:  1.00D+00  8.41D-01  8.58D-01  7.77D-01  8.99D-01
                    CP:  7.24D-01
 E= -1979.85027056039     Delta-E=       -0.000000001072 Rises=F Damp=F
 DIIS: error= 8.08D-08 at cycle   7 NSaved=   7.
 NSaved= 7 IEnMin= 7 EnMin= -1979.85027056039     IErMin= 7 ErrMin= 8.08D-08
 ErrMax= 8.08D-08  0.00D+00 EMaxC= 1.00D-01 BMatC= 5.00D-11 BMatP= 9.52D-10
 IDIUse=1 WtCom= 1.00D+00 WtEn= 0.00D+00
 Coeff-Com: -0.678D-04-0.308D-02-0.116D-01-0.532D-02 0.123D+00 0.298D+00
 Coeff-Com:  0.598D+00
 Coeff:     -0.678D-04-0.308D-02-0.116D-01-0.532D-02 0.123D+00 0.298D+00
 Coeff:      0.598D+00
 Gap=     0.177 Goal=   None    Shift=    0.000
 RMSDP=1.18D-08 MaxDP=1.84D-06 DE=-1.07D-09 OVMax= 1.74D-06

 Cycle   8  Pass 1  IDiag  1:
 RMSU=  7.33D-09    CP:  1.00D+00  8.41D-01  8.58D-01  7.82D-01  9.07D-01
                    CP:  7.67D-01  6.79D-01
 E= -1979.85027056040     Delta-E=       -0.000000000007 Rises=F Damp=F
 DIIS: error= 4.13D-08 at cycle   8 NSaved=   8.
 NSaved= 8 IEnMin= 8 EnMin= -1979.85027056040     IErMin= 8 ErrMin= 4.13D-08
 ErrMax= 4.13D-08  0.00D+00 EMaxC= 1.00D-01 BMatC= 8.95D-12 BMatP= 5.00D-11
 IDIUse=1 WtCom= 1.00D+00 WtEn= 0.00D+00
 Coeff-Com:  0.123D-03-0.182D-02-0.724D-02-0.565D-02 0.294D-01 0.970D-01
 Coeff-Com:  0.333D+00 0.555D+00
 Coeff:      0.123D-03-0.182D-02-0.724D-02-0.565D-02 0.294D-01 0.970D-01
 Coeff:      0.333D+00 0.555D+00
 Gap=     0.177 Goal=   None    Shift=    0.000
 RMSDP=4.65D-09 MaxDP=1.21D-06 DE=-7.28D-12 OVMax= 8.64D-07

 Cycle   9  Pass 1  IDiag  1:
 RMSU=  3.09D-09    CP:  1.00D+00  8.41D-01  8.58D-01  7.83D-01  9.09D-01
                    CP:  7.71D-01  7.95D-01  6.78D-01
 E= -1979.85027056032     Delta-E=        0.000000000083 Rises=F Damp=F
 DIIS: error= 1.64D-08 at cycle   9 NSaved=   9.
 NSaved= 9 IEnMin= 8 EnMin= -1979.85027056040     IErMin= 9 ErrMin= 1.64D-08
 ErrMax= 1.64D-08  0.00D+00 EMaxC= 1.00D-01 BMatC= 1.19D-12 BMatP= 8.95D-12
 IDIUse=1 WtCom= 1.00D+00 WtEn= 0.00D+00
 Coeff-Com:  0.909D-04-0.449D-03-0.193D-02-0.233D-02-0.611D-02-0.112D-02
 Coeff-Com:  0.654D-01 0.289D+00 0.658D+00
 Coeff:      0.909D-04-0.449D-03-0.193D-02-0.233D-02-0.611D-02-0.112D-02
 Coeff:      0.654D-01 0.289D+00 0.658D+00
 Gap=     0.177 Goal=   None    Shift=    0.000
 RMSDP=1.73D-09 MaxDP=3.94D-07 DE= 8.28D-11 OVMax= 4.34D-07

 SCF Done:  E(RPBE1PBE) =  -1979.85027056     A.U. after    9 cycles
            NFock=  9  Conv=0.17D-08     -V/T= 2.0045
 KE= 1.970949389107D+03 PE=-1.580361814896D+04 EE= 6.253419226530D+03
 Leave Link  502 at Mon Oct 18 01:32:30 2021, MaxMem=  7864320000 cpu:           35247.0 elap:            1111.5
 (Enter /apps/gaussian/g16-c01-avx/g16/l508.exe)
 QCSCF skips out because SCF is already converged.
 Leave Link  508 at Mon Oct 18 01:32:30 2021, MaxMem=  7864320000 cpu:               0.1 elap:               0.0
 (Enter /apps/gaussian/g16-c01-avx/g16/l601.exe)
 Copying SCF densities to generalized density rwf, IOpCl= 0 IROHF=0.

 **********************************************************************

            Population analysis using the SCF Density.

 **********************************************************************

 Orbital symmetries:
       Occupied  (A) (A) (A) (A) (A) (A) (A) (A) (A) (A) (A) (A)
                 (A) (A) (A) (A) (A) (A) (A) (A) (A) (A) (A) (A)
                 (A) (A) (A) (A) (A) (A) (A) (A) (A) (A) (A) (A)
                 (A) (A) (A) (A) (A) (A) (A) (A) (A) (A) (A) (A)
                 (A) (A) (A) (A) (A) (A) (A) (A) (A) (A) (A) (A)
                 (A) (A) (A) (A) (A) (A) (A) (A) (A) (A) (A) (A)
                 (A) (A) (A) (A) (A) (A) (A) (A) (A) (A) (A) (A)
                 (A) (A) (A) (A) (A) (A) (A) (A) (A) (A) (A) (A)
                 (A) (A) (A) (A) (A) (A) (A) (A) (A) (A) (A) (A)
                 (A) (A) (A) (A) (A) (A) (A) (A) (A) (A) (A) (A)
                 (A) (A) (A) (A) (A) (A) (A) (A) (A) (A) (A) (A)
                 (A) (A) (A) (A) (A) (A) (A) (A) (A) (A) (A) (A)
                 (A) (A) (A) (A) (A) (A) (A) (A) (A) (A) (A) (A)
                 (A) (A) (A) (A) (A) (A) (A) (A) (A) (A)
       Virtual   (A) (A) (A) (A) (A) (A) (A) (A) (A) (A) (A) (A)
                 (A) (A) (A) (A) (A) (A) (A) (A) (A) (A) (A) (A)
                 (A) (A) (A) (A) (A) (A) (A) (A) (A) (A) (A) (A)
                 (A) (A) (A) (A) (A) (A) (A) (A) (A) (A) (A) (A)
                 (A) (A) (A) (A) (A) (A) (A) (A) (A) (A) (A) (A)
                 (A) (A) (A) (A) (A) (A) (A) (A) (A) (A) (A) (A)
                 (A) (A) (A) (A) (A) (A) (A) (A) (A) (A) (A) (A)
                 (A) (A) (A) (A) (A) (A) (A) (A) (A) (A) (A) (A)
                 (A) (A) (A) (A) (A) (A) (A) (A) (A) (A) (A) (A)
                 (A) (A) (A) (A) (A) (A) (A) (A) (A) (A) (A) (A)
                 (A) (A) (A) (A) (A) (A) (A) (A) (A) (A) (A) (A)
                 (A) (A) (A) (A) (A) (A) (A) (A) (A) (A) (A) (A)
                 (A) (A) (A) (A) (A) (A) (A) (A) (A) (A) (A) (A)
                 (A) (A) (A) (A) (A) (A) (A) (A) (A) (A) (A) (A)
                 (A) (A) (A) (A) (A) (A) (A) (A) (A) (A) (A) (A)
                 (A) (A) (A) (A) (A) (A) (A) (A) (A) (A) (A) (A)
                 (A) (A) (A) (A) (A) (A) (A) (A) (A) (A) (A) (A)
                 (A) (A) (A) (A) (A) (A) (A) (A) (A) (A) (A) (A)
                 (A) (A) (A) (A) (A) (A) (A) (A) (A) (A) (A) (A)
                 (A) (A) (A) (A) (A) (A) (A) (A) (A) (A) (A) (A)
                 (A) (A) (A) (A) (A) (A) (A) (A) (A) (A) (A) (A)
                 (A) (A) (A) (A) (A) (A) (A) (A) (A) (A) (A) (A)
                 (A) (A) (A) (A) (A) (A) (A) (A) (A) (A) (A) (A)
                 (A) (A) (A) (A) (A) (A) (A) (A) (A) (A) (A) (A)
                 (A) (A) (A) (A) (A) (A) (A) (A) (A) (A) (A) (A)
                 (A) (A) (A) (A) (A) (A) (A) (A) (A) (A) (A) (A)
                 (A) (A) (A) (A) (A) (A) (A) (A) (A) (A) (A) (A)
                 (A) (A) (A) (A) (A) (A) (A) (A) (A) (A) (A) (A)
                 (A) (A) (A) (A) (A) (A) (A) (A) (A) (A) (A) (A)
                 (A) (A) (A) (A) (A) (A) (A) (A) (A) (A) (A) (A)
                 (A) (A) (A) (A) (A) (A) (A) (A) (A) (A) (A) (A)
                 (A) (A) (A) (A) (A) (A) (A) (A) (A) (A) (A) (A)
                 (A) (A) (A) (A) (A) (A) (A) (A) (A) (A) (A) (A)
                 (A) (A) (A) (A) (A) (A) (A) (A) (A) (A) (A) (A)
                 (A) (A) (A) (A) (A) (A) (A) (A) (A) (A) (A) (A)
                 (A) (A) (A) (A) (A) (A) (A) (A) (A) (A) (A) (A)
                 (A) (A) (A) (A) (A) (A) (A) (A) (A) (A) (A) (A)
                 (A) (A) (A) (A) (A) (A) (A) (A) (A) (A) (A) (A)
                 (A) (A) (A) (A) (A) (A) (A) (A) (A) (A) (A) (A)
                 (A) (A) (A) (A) (A) (A) (A) (A) (A) (A) (A) (A)
                 (A) (A) (A) (A) (A) (A) (A) (A) (A) (A) (A) (A)
                 (A) (A) (A) (A) (A) (A) (A) (A) (A) (A) (A) (A)
                 (A) (A) (A) (A) (A) (A) (A) (A) (A) (A) (A) (A)
                 (A) (A) (A) (A) (A) (A) (A) (A) (A) (A) (A) (A)
                 (A) (A) (A) (A) (A) (A) (A) (A) (A) (A) (A) (A)
                 (A) (A) (A) (A) (A) (A) (A) (A) (A) (A) (A) (A)
                 (A) (A) (A) (A) (A) (A) (A) (A) (A) (A) (A) (A)
                 (A) (A) (A) (A) (A) (A) (A) (A) (A) (A) (A) (A)
                 (A) (A) (A) (A) (A) (A) (A) (A) (A) (A) (A) (A)
                 (A) (A) (A) (A) (A) (A) (A) (A) (A) (A) (A) (A)
                 (A) (A) (A) (A) (A) (A) (A) (A) (A) (A) (A) (A)
                 (A) (A) (A) (A) (A) (A) (A) (A) (A) (A) (A) (A)
                 (A) (A) (A) (A) (A) (A) (A) (A) (A) (A) (A) (A)
                 (A) (A) (A) (A) (A) (A) (A) (A) (A) (A) (A) (A)
                 (A) (A) (A) (A) (A) (A) (A) (A) (A) (A) (A) (A)
                 (A) (A) (A) (A) (A) (A) (A) (A) (A) (A) (A) (A)
                 (A) (A) (A) (A) (A) (A) (A) (A) (A) (A) (A) (A)
                 (A) (A) (A) (A) (A) (A) (A) (A) (A) (A) (A) (A)
                 (A) (A) (A) (A) (A) (A) (A) (A) (A) (A) (A) (A)
                 (A) (A) (A) (A) (A) (A) (A) (A) (A) (A) (A) (A)
                 (A) (A) (A) (A) (A) (A) (A) (A) (A) (A) (A) (A)
                 (A) (A) (A) (A) (A) (A) (A) (A) (A) (A) (A) (A)
                 (A) (A) (A) (A) (A) (A) (A) (A) (A) (A) (A) (A)
                 (A) (A) (A) (A) (A) (A) (A) (A) (A) (A) (A) (A)
                 (A) (A) (A) (A) (A) (A) (A) (A) (A) (A) (A) (A)
                 (A) (A) (A) (A) (A) (A) (A) (A) (A) (A) (A) (A)
                 (A) (A) (A) (A) (A) (A) (A) (A) (A) (A) (A) (A)
                 (A) (A) (A) (A) (A) (A) (A) (A) (A) (A) (A) (A)
                 (A) (A) (A) (A) (A) (A) (A) (A) (A) (A) (A) (A)
                 (A) (A) (A) (A) (A) (A) (A) (A) (A) (A) (A) (A)
                 (A) (A) (A) (A) (A) (A) (A) (A) (A) (A) (A) (A)
                 (A) (A) (A) (A) (A) (A) (A) (A) (A) (A) (A) (A)
                 (A) (A) (A) (A) (A) (A) (A) (A) (A) (A) (A) (A)
                 (A) (A) (A) (A) (A) (A) (A) (A) (A) (A) (A) (A)
                 (A) (A) (A) (A) (A) (A) (A) (A) (A) (A) (A) (A)
                 (A) (A) (A) (A) (A) (A) (A) (A) (A) (A) (A) (A)
                 (A) (A) (A) (A) (A) (A) (A) (A) (A) (A) (A) (A)
                 (A) (A) (A) (A) (A) (A) (A) (A) (A) (A) (A) (A)
                 (A) (A) (A) (A) (A) (A) (A) (A) (A) (A) (A) (A)
                 (A) (A) (A) (A) (A) (A) (A) (A) (A) (A) (A) (A)
                 (A) (A) (A) (A) (A) (A) (A) (A) (A) (A) (A) (A)
                 (A) (A) (A) (A) (A) (A) (A) (A) (A) (A) (A) (A)
                 (A) (A) (A) (A) (A) (A) (A) (A) (A) (A) (A) (A)
                 (A) (A) (A) (A) (A) (A) (A) (A) (A) (A) (A) (A)
                 (A) (A) (A) (A) (A) (A) (A) (A) (A) (A) (A) (A)
                 (A) (A) (A) (A) (A) (A) (A) (A) (A) (A) (A) (A)
                 (A) (A) (A) (A) (A) (A) (A) (A) (A) (A) (A) (A)
                 (A) (A) (A) (A) (A) (A) (A) (A) (A) (A) (A) (A)
                 (A) (A) (A) (A) (A) (A) (A) (A) (A) (A) (A) (A)
                 (A) (A) (A) (A) (A) (A) (A) (A) (A) (A) (A) (A)
                 (A) (A) (A) (A) (A) (A) (A) (A) (A) (A) (A) (A)
                 (A) (A) (A) (A) (A) (A) (A) (A) (A) (A) (A) (A)
                 (A) (A) (A) (A) (A) (A) (A) (A) (A) (A) (A) (A)
                 (A) (A) (A) (A) (A) (A) (A) (A) (A) (A) (A) (A)
                 (A) (A) (A) (A) (A) (A) (A) (A) (A) (A) (A) (A)
                 (A) (A) (A) (A) (A) (A) (A) (A) (A) (A) (A) (A)
                 (A) (A) (A) (A) (A) (A) (A) (A) (A) (A) (A) (A)
                 (A) (A) (A) (A) (A) (A) (A) (A) (A) (A) (A) (A)
                 (A) (A) (A) (A) (A) (A) (A) (A) (A) (A) (A) (A)
                 (A) (A) (A) (A) (A) (A) (A) (A) (A) (A) (A) (A)
                 (A) (A) (A) (A) (A) (A) (A) (A) (A) (A) (A) (A)
                 (A) (A) (A) (A) (A) (A) (A) (A) (A) (A) (A) (A)
                 (A) (A) (A) (A) (A) (A) (A) (A) (A) (A) (A) (A)
                 (A) (A) (A) (A) (A) (A) (A) (A) (A) (A) (A) (A)
                 (A) (A) (A) (A) (A) (A) (A) (A) (A) (A) (A) (A)
                 (A) (A) (A) (A) (A) (A) (A) (A) (A) (A) (A) (A)
                 (A) (A) (A) (A) (A) (A) (A) (A) (A) (A) (A) (A)
                 (A) (A) (A) (A) (A) (A) (A) (A) (A) (A) (A) (A)
                 (A) (A) (A) (A) (A) (A) (A) (A) (A) (A) (A) (A)
                 (A) (A) (A) (A) (A) (A) (A) (A) (A) (A) (A) (A)
                 (A) (A) (A) (A) (A) (A) (A) (A) (A) (A) (A) (A)
                 (A) (A) (A) (A) (A) (A) (A) (A) (A) (A) (A) (A)
                 (A) (A) (A) (A) (A) (A) (A) (A) (A) (A) (A) (A)
                 (A) (A) (A) (A) (A) (A) (A) (A) (A) (A) (A) (A)
                 (A) (A) (A) (A) (A) (A) (A) (A) (A) (A) (A) (A)
                 (A) (A) (A) (A) (A) (A) (A) (A) (A) (A) (A) (A)
                 (A) (A) (A) (A) (A) (A) (A) (A) (A) (A) (A) (A)
                 (A) (A) (A) (A) (A) (A) (A) (A) (A) (A) (A) (A)
                 (A) (A) (A) (A) (A) (A) (A) (A) (A) (A) (A) (A)
                 (A) (A) (A) (A) (A) (A) (A) (A) (A) (A) (A) (A)
                 (A) (A) (A) (A) (A) (A) (A) (A) (A) (A) (A) (A)
                 (A) (A) (A) (A) (A) (A) (A) (A) (A) (A) (A) (A)
                 (A) (A) (A) (A) (A) (A) (A) (A) (A) (A) (A) (A)
                 (A) (A) (A) (A) (A) (A) (A) (A) (A) (A) (A) (A)
                 (A) (A) (A) (A) (A) (A) (A) (A) (A) (A) (A) (A)
                 (A) (A) (A) (A) (A) (A) (A) (A) (A) (A) (A) (A)
                 (A) (A) (A) (A) (A) (A) (A) (A) (A) (A) (A) (A)
                 (A) (A) (A) (A) (A) (A) (A)
 The electronic state is 1-A.
 Alpha  occ. eigenvalues --  -14.38170 -14.37990 -14.37880 -14.37860 -14.37855
 Alpha  occ. eigenvalues --  -14.37696 -14.37634 -14.37544 -14.37462 -14.34998
 Alpha  occ. eigenvalues --  -10.27081 -10.27021 -10.26853 -10.26748 -10.26734
 Alpha  occ. eigenvalues --  -10.26550 -10.26536 -10.26507 -10.26373 -10.25563
 Alpha  occ. eigenvalues --  -10.25490 -10.25245 -10.25216 -10.25035 -10.25021
 Alpha  occ. eigenvalues --  -10.24838 -10.24825 -10.24372 -10.24371 -10.24311
 Alpha  occ. eigenvalues --  -10.24310 -10.24303 -10.24264 -10.24236 -10.24213
 Alpha  occ. eigenvalues --  -10.24202 -10.24114 -10.24100 -10.23965 -10.23951
 Alpha  occ. eigenvalues --  -10.23908 -10.23887 -10.23823 -10.23806 -10.23754
 Alpha  occ. eigenvalues --  -10.23663 -10.23175  -0.97717  -0.97545  -0.97492
 Alpha  occ. eigenvalues --   -0.97335  -0.96275  -0.95323  -0.95178  -0.94913
 Alpha  occ. eigenvalues --   -0.94759  -0.90437  -0.90172  -0.89609  -0.89428
 Alpha  occ. eigenvalues --   -0.82425  -0.82129  -0.82102  -0.81056  -0.80406
 Alpha  occ. eigenvalues --   -0.80275  -0.78010  -0.76462  -0.75887  -0.75867
 Alpha  occ. eigenvalues --   -0.74511  -0.70051  -0.69805  -0.69730  -0.69642
 Alpha  occ. eigenvalues --   -0.67202  -0.66636  -0.66547  -0.65872  -0.63622
 Alpha  occ. eigenvalues --   -0.63314  -0.62937  -0.62145  -0.60689  -0.60403
 Alpha  occ. eigenvalues --   -0.57639  -0.56794  -0.56549  -0.56253  -0.55777
 Alpha  occ. eigenvalues --   -0.55392  -0.54195  -0.53912  -0.53157  -0.52844
 Alpha  occ. eigenvalues --   -0.52427  -0.52003  -0.51126  -0.50907  -0.50763
 Alpha  occ. eigenvalues --   -0.50495  -0.49940  -0.49691  -0.49297  -0.49040
 Alpha  occ. eigenvalues --   -0.48754  -0.48213  -0.47334  -0.46777  -0.46691
 Alpha  occ. eigenvalues --   -0.46557  -0.46359  -0.46297  -0.46212  -0.45563
 Alpha  occ. eigenvalues --   -0.45202  -0.45060  -0.44868  -0.44202  -0.43990
 Alpha  occ. eigenvalues --   -0.43793  -0.42087  -0.42012  -0.41843  -0.41464
 Alpha  occ. eigenvalues --   -0.41423  -0.40830  -0.40456  -0.40227  -0.39748
 Alpha  occ. eigenvalues --   -0.39684  -0.39606  -0.39025  -0.38805  -0.37306
 Alpha  occ. eigenvalues --   -0.37060  -0.36924  -0.36781  -0.36499  -0.36394
 Alpha  occ. eigenvalues --   -0.36230  -0.35608  -0.35503  -0.35251  -0.35063
 Alpha  occ. eigenvalues --   -0.34937  -0.34676  -0.31205  -0.31051  -0.30324
 Alpha  occ. eigenvalues --   -0.27666  -0.27575  -0.27422  -0.27364  -0.27086
 Alpha  occ. eigenvalues --   -0.26888  -0.26848  -0.26726  -0.26616  -0.26298
 Alpha  occ. eigenvalues --   -0.26002  -0.25850  -0.25725  -0.25567  -0.25041
 Alpha  occ. eigenvalues --   -0.24108
 Alpha virt. eigenvalues --   -0.06457  -0.06438  -0.06044  -0.05779  -0.05359
 Alpha virt. eigenvalues --   -0.05187  -0.02745  -0.01813  -0.01493   0.04129
 Alpha virt. eigenvalues --    0.04711   0.04852   0.04954   0.05110   0.05344
 Alpha virt. eigenvalues --    0.05490   0.05608   0.05657   0.06348   0.06811
 Alpha virt. eigenvalues --    0.06871   0.07003   0.07295   0.07417   0.07676
 Alpha virt. eigenvalues --    0.08103   0.08378   0.08593   0.08800   0.09320
 Alpha virt. eigenvalues --    0.09521   0.09704   0.10026   0.10405   0.10493
 Alpha virt. eigenvalues --    0.10601   0.10831   0.10884   0.11132   0.11222
 Alpha virt. eigenvalues --    0.11491   0.12066   0.12114   0.12491   0.12694
 Alpha virt. eigenvalues --    0.12736   0.12856   0.13007   0.13414   0.13589
 Alpha virt. eigenvalues --    0.13741   0.14171   0.14259   0.14382   0.14646
 Alpha virt. eigenvalues --    0.14817   0.15106   0.15184   0.15468   0.15673
 Alpha virt. eigenvalues --    0.16091   0.16190   0.16679   0.16794   0.17145
 Alpha virt. eigenvalues --    0.17317   0.17608   0.17815   0.18051   0.18340
 Alpha virt. eigenvalues --    0.18450   0.18835   0.19123   0.19287   0.19691
 Alpha virt. eigenvalues --    0.19970   0.20043   0.20598   0.20699   0.21001
 Alpha virt. eigenvalues --    0.21081   0.21422   0.21615   0.21765   0.22151
 Alpha virt. eigenvalues --    0.22291   0.22491   0.22857   0.23097   0.23468
 Alpha virt. eigenvalues --    0.23737   0.23909   0.24195   0.24389   0.24671
 Alpha virt. eigenvalues --    0.24901   0.25108   0.25542   0.25590   0.25820
 Alpha virt. eigenvalues --    0.25869   0.26183   0.26620   0.26715   0.26814
 Alpha virt. eigenvalues --    0.27273   0.27524   0.27820   0.27970   0.28152
 Alpha virt. eigenvalues --    0.28329   0.28542   0.28745   0.28881   0.29043
 Alpha virt. eigenvalues --    0.29330   0.29596   0.29702   0.29939   0.29979
 Alpha virt. eigenvalues --    0.30465   0.30693   0.30931   0.31145   0.31496
 Alpha virt. eigenvalues --    0.31606   0.31775   0.32154   0.32406   0.32642
 Alpha virt. eigenvalues --    0.33003   0.33117   0.33386   0.33624   0.34039
 Alpha virt. eigenvalues --    0.34182   0.34654   0.34892   0.34933   0.35481
 Alpha virt. eigenvalues --    0.35651   0.35738   0.35978   0.36203   0.36294
 Alpha virt. eigenvalues --    0.36522   0.36640   0.36862   0.37047   0.37254
 Alpha virt. eigenvalues --    0.37398   0.37472   0.37958   0.37997   0.38205
 Alpha virt. eigenvalues --    0.38535   0.38692   0.38763   0.39048   0.39283
 Alpha virt. eigenvalues --    0.39570   0.39683   0.39954   0.40112   0.40207
 Alpha virt. eigenvalues --    0.40516   0.40610   0.40882   0.40971   0.41236
 Alpha virt. eigenvalues --    0.41331   0.41506   0.41647   0.41841   0.41960
 Alpha virt. eigenvalues --    0.42278   0.42335   0.42478   0.42568   0.42804
 Alpha virt. eigenvalues --    0.43186   0.43252   0.43299   0.43593   0.43667
 Alpha virt. eigenvalues --    0.43791   0.43991   0.44097   0.44148   0.44370
 Alpha virt. eigenvalues --    0.44532   0.44834   0.44977   0.45204   0.45395
 Alpha virt. eigenvalues --    0.45570   0.45648   0.45822   0.46074   0.46400
 Alpha virt. eigenvalues --    0.46567   0.46889   0.47093   0.47395   0.47653
 Alpha virt. eigenvalues --    0.47990   0.48383   0.48505   0.48759   0.48870
 Alpha virt. eigenvalues --    0.49156   0.49336   0.49569   0.49665   0.49948
 Alpha virt. eigenvalues --    0.50007   0.50244   0.50584   0.50753   0.51027
 Alpha virt. eigenvalues --    0.51076   0.51161   0.51450   0.51569   0.51729
 Alpha virt. eigenvalues --    0.52099   0.52253   0.52357   0.52737   0.53216
 Alpha virt. eigenvalues --    0.53282   0.53576   0.53746   0.54143   0.54364
 Alpha virt. eigenvalues --    0.54510   0.54720   0.55008   0.55291   0.55373
 Alpha virt. eigenvalues --    0.55790   0.55968   0.56269   0.56397   0.56725
 Alpha virt. eigenvalues --    0.57162   0.57425   0.57556   0.58190   0.58271
 Alpha virt. eigenvalues --    0.58397   0.58857   0.59090   0.59321   0.59710
 Alpha virt. eigenvalues --    0.59986   0.60464   0.60587   0.60842   0.61035
 Alpha virt. eigenvalues --    0.61248   0.61500   0.61789   0.61955   0.62329
 Alpha virt. eigenvalues --    0.62787   0.62939   0.63191   0.63349   0.63652
 Alpha virt. eigenvalues --    0.63901   0.64080   0.64530   0.64601   0.65058
 Alpha virt. eigenvalues --    0.65504   0.66039   0.66217   0.66339   0.66604
 Alpha virt. eigenvalues --    0.66734   0.66984   0.67243   0.67280   0.67505
 Alpha virt. eigenvalues --    0.68033   0.68228   0.68449   0.68763   0.68914
 Alpha virt. eigenvalues --    0.68977   0.69233   0.69417   0.69693   0.69985
 Alpha virt. eigenvalues --    0.70214   0.70678   0.71151   0.71216   0.71459
 Alpha virt. eigenvalues --    0.71542   0.71783   0.72091   0.72193   0.72484
 Alpha virt. eigenvalues --    0.72728   0.73091   0.73192   0.73586   0.73715
 Alpha virt. eigenvalues --    0.73953   0.74564   0.74639   0.74930   0.75116
 Alpha virt. eigenvalues --    0.75660   0.76097   0.76313   0.76546   0.76904
 Alpha virt. eigenvalues --    0.77115   0.77638   0.77785   0.78065   0.78343
 Alpha virt. eigenvalues --    0.78596   0.79103   0.79418   0.79981   0.80040
 Alpha virt. eigenvalues --    0.80623   0.80964   0.81148   0.81482   0.81818
 Alpha virt. eigenvalues --    0.82125   0.82254   0.82505   0.82600   0.83038
 Alpha virt. eigenvalues --    0.83099   0.83498   0.83722   0.84273   0.84588
 Alpha virt. eigenvalues --    0.84790   0.84869   0.85015   0.85277   0.85675
 Alpha virt. eigenvalues --    0.85887   0.86243   0.86453   0.86831   0.86988
 Alpha virt. eigenvalues --    0.87160   0.87449   0.87586   0.88098   0.88272
 Alpha virt. eigenvalues --    0.88713   0.88824   0.88960   0.89256   0.89613
 Alpha virt. eigenvalues --    0.90308   0.90507   0.91051   0.91289   0.91450
 Alpha virt. eigenvalues --    0.91723   0.92348   0.92542   0.93202   0.93435
 Alpha virt. eigenvalues --    0.93575   0.94013   0.94504   0.94836   0.95106
 Alpha virt. eigenvalues --    0.95146   0.95720   0.96106   0.96520   0.96755
 Alpha virt. eigenvalues --    0.97122   0.97375   0.97718   0.98349   0.98939
 Alpha virt. eigenvalues --    0.99272   0.99707   0.99870   1.00343   1.00786
 Alpha virt. eigenvalues --    1.01055   1.01344   1.02036   1.02202   1.02908
 Alpha virt. eigenvalues --    1.03225   1.03638   1.03984   1.04472   1.04728
 Alpha virt. eigenvalues --    1.04971   1.05342   1.05552   1.05959   1.06401
 Alpha virt. eigenvalues --    1.06937   1.07018   1.07227   1.08097   1.08618
 Alpha virt. eigenvalues --    1.09021   1.09239   1.09645   1.09887   1.10182
 Alpha virt. eigenvalues --    1.10526   1.11117   1.11387   1.12205   1.12831
 Alpha virt. eigenvalues --    1.12947   1.13373   1.13641   1.13921   1.14725
 Alpha virt. eigenvalues --    1.14971   1.15690   1.16224   1.16523   1.17444
 Alpha virt. eigenvalues --    1.17576   1.17638   1.18036   1.18352   1.19020
 Alpha virt. eigenvalues --    1.19308   1.19328   1.20109   1.20177   1.20575
 Alpha virt. eigenvalues --    1.20908   1.21248   1.21660   1.21972   1.22257
 Alpha virt. eigenvalues --    1.22330   1.22634   1.22954   1.23206   1.23689
 Alpha virt. eigenvalues --    1.23982   1.24400   1.25005   1.25278   1.25658
 Alpha virt. eigenvalues --    1.25955   1.26647   1.26791   1.26823   1.27375
 Alpha virt. eigenvalues --    1.27442   1.27768   1.28189   1.28542   1.28902
 Alpha virt. eigenvalues --    1.29134   1.29459   1.29509   1.29933   1.30507
 Alpha virt. eigenvalues --    1.30878   1.31175   1.31692   1.31898   1.32419
 Alpha virt. eigenvalues --    1.33228   1.33317   1.33837   1.34302   1.34544
 Alpha virt. eigenvalues --    1.35463   1.35515   1.35894   1.36118   1.36428
 Alpha virt. eigenvalues --    1.36879   1.37554   1.37934   1.38357   1.38582
 Alpha virt. eigenvalues --    1.38739   1.39145   1.39824   1.40358   1.40794
 Alpha virt. eigenvalues --    1.41055   1.41755   1.41968   1.42449   1.42690
 Alpha virt. eigenvalues --    1.42854   1.43082   1.43528   1.43738   1.44019
 Alpha virt. eigenvalues --    1.44540   1.44799   1.44950   1.45482   1.45998
 Alpha virt. eigenvalues --    1.46251   1.46467   1.46684   1.47176   1.47460
 Alpha virt. eigenvalues --    1.47845   1.48300   1.48485   1.48811   1.48969
 Alpha virt. eigenvalues --    1.49474   1.49786   1.49875   1.50527   1.50912
 Alpha virt. eigenvalues --    1.50943   1.51503   1.52018   1.52145   1.52725
 Alpha virt. eigenvalues --    1.53178   1.53491   1.53576   1.53891   1.53948
 Alpha virt. eigenvalues --    1.54099   1.54386   1.54409   1.54825   1.55356
 Alpha virt. eigenvalues --    1.55393   1.56104   1.56378   1.56429   1.57104
 Alpha virt. eigenvalues --    1.57280   1.57733   1.58048   1.58110   1.58376
 Alpha virt. eigenvalues --    1.58667   1.59038   1.59117   1.59540   1.59793
 Alpha virt. eigenvalues --    1.60247   1.60495   1.60849   1.60951   1.61207
 Alpha virt. eigenvalues --    1.61330   1.61557   1.61901   1.62590   1.63140
 Alpha virt. eigenvalues --    1.63792   1.64409   1.64646   1.64833   1.65132
 Alpha virt. eigenvalues --    1.65564   1.65672   1.66107   1.66505   1.66936
 Alpha virt. eigenvalues --    1.67239   1.67356   1.67758   1.68007   1.68355
 Alpha virt. eigenvalues --    1.68598   1.68876   1.69247   1.69298   1.69617
 Alpha virt. eigenvalues --    1.70239   1.70396   1.70713   1.71023   1.71252
 Alpha virt. eigenvalues --    1.71553   1.71585   1.71842   1.72255   1.72391
 Alpha virt. eigenvalues --    1.72799   1.72982   1.73370   1.73623   1.73850
 Alpha virt. eigenvalues --    1.74204   1.74694   1.74809   1.75159   1.75548
 Alpha virt. eigenvalues --    1.75850   1.76145   1.76159   1.76890   1.77214
 Alpha virt. eigenvalues --    1.77438   1.77878   1.77965   1.78670   1.78905
 Alpha virt. eigenvalues --    1.79470   1.79601   1.79834   1.80484   1.80859
 Alpha virt. eigenvalues --    1.81312   1.81584   1.82379   1.82655   1.83265
 Alpha virt. eigenvalues --    1.83458   1.83615   1.84030   1.84701   1.85144
 Alpha virt. eigenvalues --    1.85547   1.85791   1.86396   1.86595   1.87197
 Alpha virt. eigenvalues --    1.87406   1.87558   1.88179   1.88512   1.88785
 Alpha virt. eigenvalues --    1.89246   1.89894   1.90036   1.90597   1.90757
 Alpha virt. eigenvalues --    1.91477   1.91796   1.92042   1.92056   1.93105
 Alpha virt. eigenvalues --    1.93478   1.94033   1.94188   1.94245   1.94393
 Alpha virt. eigenvalues --    1.95265   1.96225   1.96567   1.97616   1.97621
 Alpha virt. eigenvalues --    1.98385   1.98459   1.98635   1.98981   1.99245
 Alpha virt. eigenvalues --    1.99377   1.99704   2.00083   2.00237   2.00635
 Alpha virt. eigenvalues --    2.00881   2.01086   2.01142   2.01902   2.02041
 Alpha virt. eigenvalues --    2.02449   2.02892   2.03141   2.03861   2.04231
 Alpha virt. eigenvalues --    2.04355   2.05537   2.05676   2.05940   2.06392
 Alpha virt. eigenvalues --    2.07411   2.07736   2.08100   2.08666   2.09211
 Alpha virt. eigenvalues --    2.09765   2.10191   2.10879   2.11315   2.11839
 Alpha virt. eigenvalues --    2.11945   2.12080   2.13023   2.13322   2.13836
 Alpha virt. eigenvalues --    2.14040   2.15363   2.15724   2.16077   2.16955
 Alpha virt. eigenvalues --    2.17113   2.17359   2.17767   2.17959   2.18316
 Alpha virt. eigenvalues --    2.18619   2.18989   2.19736   2.20171   2.20613
 Alpha virt. eigenvalues --    2.20905   2.21260   2.21910   2.22401   2.23118
 Alpha virt. eigenvalues --    2.23660   2.23975   2.24598   2.25383   2.25976
 Alpha virt. eigenvalues --    2.26661   2.26826   2.27436   2.27985   2.28708
 Alpha virt. eigenvalues --    2.28929   2.29648   2.29990   2.30211   2.30874
 Alpha virt. eigenvalues --    2.31368   2.31457   2.31614   2.31794   2.32176
 Alpha virt. eigenvalues --    2.32819   2.32970   2.33191   2.33616   2.34338
 Alpha virt. eigenvalues --    2.35008   2.35328   2.35968   2.36371   2.36909
 Alpha virt. eigenvalues --    2.37029   2.37497   2.38179   2.38558   2.38859
 Alpha virt. eigenvalues --    2.39142   2.39647   2.39951   2.40455   2.40734
 Alpha virt. eigenvalues --    2.40961   2.41193   2.41394   2.41834   2.42691
 Alpha virt. eigenvalues --    2.43048   2.44053   2.44534   2.44771   2.44991
 Alpha virt. eigenvalues --    2.45201   2.45433   2.46338   2.46530   2.46745
 Alpha virt. eigenvalues --    2.47015   2.47379   2.47804   2.48450   2.48769
 Alpha virt. eigenvalues --    2.49216   2.49642   2.50210   2.50526   2.51097
 Alpha virt. eigenvalues --    2.51458   2.51915   2.52302   2.52783   2.52940
 Alpha virt. eigenvalues --    2.53492   2.53959   2.54388   2.54668   2.54797
 Alpha virt. eigenvalues --    2.55249   2.55820   2.56096   2.56256   2.56556
 Alpha virt. eigenvalues --    2.57210   2.57385   2.57870   2.58132   2.58440
 Alpha virt. eigenvalues --    2.58547   2.58803   2.59083   2.59356   2.60259
 Alpha virt. eigenvalues --    2.60798   2.61062   2.61453   2.61515   2.61849
 Alpha virt. eigenvalues --    2.62086   2.62332   2.62562   2.63143   2.63767
 Alpha virt. eigenvalues --    2.64176   2.64232   2.64305   2.64883   2.64932
 Alpha virt. eigenvalues --    2.65238   2.65294   2.65643   2.66158   2.66287
 Alpha virt. eigenvalues --    2.66645   2.66798   2.67356   2.67717   2.68220
 Alpha virt. eigenvalues --    2.68277   2.68770   2.68925   2.68997   2.69482
 Alpha virt. eigenvalues --    2.69692   2.69868   2.70267   2.70606   2.70864
 Alpha virt. eigenvalues --    2.71117   2.71382   2.71464   2.71525   2.72039
 Alpha virt. eigenvalues --    2.72479   2.72714   2.73203   2.73599   2.73785
 Alpha virt. eigenvalues --    2.74056   2.74401   2.74444   2.74842   2.75254
 Alpha virt. eigenvalues --    2.75468   2.75786   2.75935   2.76386   2.76528
 Alpha virt. eigenvalues --    2.76745   2.77020   2.77182   2.77557   2.78048
 Alpha virt. eigenvalues --    2.78425   2.78642   2.79186   2.79495   2.79618
 Alpha virt. eigenvalues --    2.80261   2.80574   2.81007   2.81330   2.81951
 Alpha virt. eigenvalues --    2.82117   2.82168   2.83092   2.83474   2.83574
 Alpha virt. eigenvalues --    2.83937   2.84397   2.84521   2.85050   2.85110
 Alpha virt. eigenvalues --    2.85371   2.85571   2.86099   2.86371   2.86612
 Alpha virt. eigenvalues --    2.86718   2.86953   2.87269   2.87705   2.87980
 Alpha virt. eigenvalues --    2.88247   2.88573   2.89123   2.89406   2.89870
 Alpha virt. eigenvalues --    2.90741   2.91175   2.91721   2.92010   2.92492
 Alpha virt. eigenvalues --    2.92701   2.93551   2.93666   2.93847   2.94400
 Alpha virt. eigenvalues --    2.94600   2.94875   2.95516   2.96145   2.96591
 Alpha virt. eigenvalues --    2.97187   2.97576   2.97783   2.98089   2.98482
 Alpha virt. eigenvalues --    2.98844   2.99313   2.99482   2.99820   3.00410
 Alpha virt. eigenvalues --    3.00828   3.01175   3.01352   3.01795   3.02309
 Alpha virt. eigenvalues --    3.02512   3.02790   3.04066   3.04196   3.04586
 Alpha virt. eigenvalues --    3.05104   3.05323   3.05751   3.06260   3.06791
 Alpha virt. eigenvalues --    3.07247   3.07795   3.08086   3.08501   3.08644
 Alpha virt. eigenvalues --    3.09138   3.09245   3.09516   3.09899   3.10058
 Alpha virt. eigenvalues --    3.10241   3.10846   3.10884   3.11284   3.11630
 Alpha virt. eigenvalues --    3.11905   3.12121   3.12490   3.12536   3.13002
 Alpha virt. eigenvalues --    3.13336   3.13556   3.13713   3.13775   3.14134
 Alpha virt. eigenvalues --    3.14308   3.14412   3.14838   3.15215   3.15366
 Alpha virt. eigenvalues --    3.15658   3.15930   3.16292   3.16471   3.17114
 Alpha virt. eigenvalues --    3.17330   3.17528   3.17778   3.17829   3.18192
 Alpha virt. eigenvalues --    3.18447   3.18901   3.19050   3.19308   3.19675
 Alpha virt. eigenvalues --    3.19938   3.20101   3.20455   3.20762   3.21092
 Alpha virt. eigenvalues --    3.21536   3.21761   3.22243   3.22697   3.22751
 Alpha virt. eigenvalues --    3.22981   3.23297   3.23487   3.23925   3.24253
 Alpha virt. eigenvalues --    3.24497   3.24771   3.25023   3.25211   3.25349
 Alpha virt. eigenvalues --    3.25598   3.25970   3.26077   3.26293   3.26601
 Alpha virt. eigenvalues --    3.26987   3.27046   3.27282   3.27636   3.28205
 Alpha virt. eigenvalues --    3.28311   3.28650   3.28925   3.29016   3.29213
 Alpha virt. eigenvalues --    3.29337   3.29746   3.30109   3.30448   3.30516
 Alpha virt. eigenvalues --    3.30657   3.31054   3.31627   3.31807   3.31950
 Alpha virt. eigenvalues --    3.32066   3.32396   3.32424   3.33178   3.33264
 Alpha virt. eigenvalues --    3.33406   3.33986   3.34074   3.34362   3.34671
 Alpha virt. eigenvalues --    3.34885   3.35325   3.35537   3.35888   3.35900
 Alpha virt. eigenvalues --    3.36341   3.36955   3.37022   3.37358   3.37368
 Alpha virt. eigenvalues --    3.37781   3.37882   3.38523   3.39007   3.39208
 Alpha virt. eigenvalues --    3.39723   3.39877   3.40333   3.40544   3.41003
 Alpha virt. eigenvalues --    3.41089   3.41382   3.41597   3.41985   3.42281
 Alpha virt. eigenvalues --    3.42701   3.43017   3.43399   3.43538   3.43691
 Alpha virt. eigenvalues --    3.44061   3.44486   3.44686   3.44867   3.45111
 Alpha virt. eigenvalues --    3.45481   3.45977   3.46012   3.46474   3.46807
 Alpha virt. eigenvalues --    3.47162   3.47282   3.47648   3.47792   3.48249
 Alpha virt. eigenvalues --    3.48647   3.48747   3.48851   3.49285   3.50046
 Alpha virt. eigenvalues --    3.50743   3.51418   3.51808   3.52337   3.53199
 Alpha virt. eigenvalues --    3.53547   3.53960   3.54154   3.54492   3.54806
 Alpha virt. eigenvalues --    3.55113   3.55595   3.55851   3.56200   3.56552
 Alpha virt. eigenvalues --    3.57288   3.57641   3.58384   3.58864   3.59331
 Alpha virt. eigenvalues --    3.59615   3.60604   3.60880   3.61208   3.61285
 Alpha virt. eigenvalues --    3.61480   3.61731   3.61850   3.62452   3.62847
 Alpha virt. eigenvalues --    3.63587   3.63885   3.63965   3.64553   3.64981
 Alpha virt. eigenvalues --    3.65084   3.66187   3.66373   3.66636   3.69415
 Alpha virt. eigenvalues --    3.69794   3.70140   3.70925   3.71308   3.71739
 Alpha virt. eigenvalues --    3.72158   3.72503   3.73297   3.73537   3.74060
 Alpha virt. eigenvalues --    3.74452   3.74527   3.74824   3.74965   3.75632
 Alpha virt. eigenvalues --    3.75920   3.76387   3.77261   3.77581   3.77770
 Alpha virt. eigenvalues --    3.78018   3.78075   3.78351   3.78489   3.78739
 Alpha virt. eigenvalues --    3.78920   3.79103   3.79665   3.80441   3.80521
 Alpha virt. eigenvalues --    3.80698   3.80780   3.81485   3.82123   3.82419
 Alpha virt. eigenvalues --    3.82606   3.83201   3.83906   3.84609   3.84766
 Alpha virt. eigenvalues --    3.85222   3.85640   3.86208   3.87077   3.87143
 Alpha virt. eigenvalues --    3.87337   3.87562   3.87752   3.88592   3.88908
 Alpha virt. eigenvalues --    3.89470   3.90207   3.91034   3.91823   3.92244
 Alpha virt. eigenvalues --    3.92595   3.92665   3.93029   3.93512   3.94422
 Alpha virt. eigenvalues --    3.95194   3.95678   3.96487   3.97477   3.97905
 Alpha virt. eigenvalues --    3.98387   3.98604   3.98929   3.99702   4.00040
 Alpha virt. eigenvalues --    4.00885   4.01316   4.01856   4.02222   4.02883
 Alpha virt. eigenvalues --    4.03369   4.03919   4.04619   4.04758   4.05063
 Alpha virt. eigenvalues --    4.05626   4.05964   4.06448   4.07079   4.08017
 Alpha virt. eigenvalues --    4.08185   4.08767   4.09394   4.10325   4.10712
 Alpha virt. eigenvalues --    4.11138   4.11379   4.11617   4.11806   4.12387
 Alpha virt. eigenvalues --    4.12928   4.13301   4.14195   4.14556   4.14639
 Alpha virt. eigenvalues --    4.15511   4.16392   4.16696   4.16983   4.17625
 Alpha virt. eigenvalues --    4.17742   4.18680   4.19100   4.19526   4.20140
 Alpha virt. eigenvalues --    4.20352   4.21317   4.22794   4.22926   4.23019
 Alpha virt. eigenvalues --    4.23629   4.23817   4.23980   4.24855   4.25012
 Alpha virt. eigenvalues --    4.25345   4.25699   4.26519   4.26667   4.27392
 Alpha virt. eigenvalues --    4.27818   4.28317   4.28785   4.29284   4.29393
 Alpha virt. eigenvalues --    4.29951   4.30784   4.31201   4.32053   4.32487
 Alpha virt. eigenvalues --    4.32825   4.33320   4.33882   4.34998   4.35711
 Alpha virt. eigenvalues --    4.35839   4.36401   4.36719   4.37501   4.37976
 Alpha virt. eigenvalues --    4.38754   4.38920   4.39473   4.39954   4.40752
 Alpha virt. eigenvalues --    4.41154   4.42116   4.42944   4.44070   4.45730
 Alpha virt. eigenvalues --    4.46322   4.47697   4.50332   4.51112   4.51682
 Alpha virt. eigenvalues --    4.52205   4.52567   4.52819   4.53853   4.55286
 Alpha virt. eigenvalues --    4.55638   4.55834   4.56268   4.57412   4.58306
 Alpha virt. eigenvalues --    4.59164   4.59435   4.59757   4.60834   4.62202
 Alpha virt. eigenvalues --    4.62458   4.62877   4.63289   4.64287   4.64553
 Alpha virt. eigenvalues --    4.65499   4.65988   4.66276   4.66914   4.67966
 Alpha virt. eigenvalues --    4.68604   4.69180   4.69593   4.69782   4.70114
 Alpha virt. eigenvalues --    4.70542   4.74414   4.75004   4.75649   4.76296
 Alpha virt. eigenvalues --    4.77011   4.78079   4.78264   4.80095   4.81282
 Alpha virt. eigenvalues --    4.81632   4.83393   4.84076   4.84472   4.85437
 Alpha virt. eigenvalues --    4.85827   4.86415   4.86941   4.87180   4.87745
 Alpha virt. eigenvalues --    4.87822   4.88415   4.89649   4.90585   4.91705
 Alpha virt. eigenvalues --    4.91857   4.92503   4.92832   4.94206   4.94456
 Alpha virt. eigenvalues --    4.95337   4.96497   4.96854   4.97154   4.97991
 Alpha virt. eigenvalues --    4.98764   4.99298   4.99632   5.02243   5.02937
 Alpha virt. eigenvalues --    5.03473   5.03757   5.04734   5.04799   5.05507
 Alpha virt. eigenvalues --    5.05586   5.06332   5.06488   5.06822   5.08200
 Alpha virt. eigenvalues --    5.08894   5.09942   5.11109   5.12285   5.12506
 Alpha virt. eigenvalues --    5.13582   5.14670   5.15014   5.15717   5.16903
 Alpha virt. eigenvalues --    5.17631   5.18307   5.20052   5.20540   5.21196
 Alpha virt. eigenvalues --    5.21264   5.21859   5.22230   5.22457   5.23048
 Alpha virt. eigenvalues --    5.23148   5.23561   5.24087   5.25743   5.26945
 Alpha virt. eigenvalues --    5.27444   5.27963   5.28429   5.29962   5.30978
 Alpha virt. eigenvalues --    5.30993   5.32360   5.32597   5.35277   5.35701
 Alpha virt. eigenvalues --    5.36597   5.36808   5.37120   5.37375   5.37853
 Alpha virt. eigenvalues --    5.38704   5.39265   5.40229   5.40687   5.40799
 Alpha virt. eigenvalues --    5.41233   5.41416   5.41877   5.42633   5.42983
 Alpha virt. eigenvalues --    5.44034   5.44578   5.45535   5.46125   5.46313
 Alpha virt. eigenvalues --    5.46864   5.48741   5.49288   5.49867   5.52717
 Alpha virt. eigenvalues --    5.54080   5.54154   5.56415   5.56954   5.58812
 Alpha virt. eigenvalues --    5.61285   5.61574   5.62451   5.63866   5.65137
 Alpha virt. eigenvalues --    5.66183   5.68014   5.68360   5.68841   5.70088
 Alpha virt. eigenvalues --    5.70249   5.71113   5.72196   5.73582   5.73967
 Alpha virt. eigenvalues --    5.74119   5.74883   5.76907   5.77510   5.79459
 Alpha virt. eigenvalues --    5.83683   5.88603   5.89268   5.89657   5.89850
 Alpha virt. eigenvalues --    5.90344   5.91296   5.92487   5.93433   5.93867
 Alpha virt. eigenvalues --    5.95790   5.96999   5.97389   5.98136   5.98675
 Alpha virt. eigenvalues --    6.02240   6.10045   6.10524   6.12199  22.42328
 Alpha virt. eigenvalues --   22.45020  22.46621  22.54142  22.61856  22.61897
 Alpha virt. eigenvalues --   22.62381  22.63959  22.64393  22.66086  22.66411
 Alpha virt. eigenvalues --   22.66531  22.68811  22.85767  22.87721  22.88148
 Alpha virt. eigenvalues --   22.88498  22.90283  22.90884  22.99171  23.01382
 Alpha virt. eigenvalues --   23.02530  23.11538  23.12627  23.13223  23.13923
 Alpha virt. eigenvalues --   23.14294  23.14625  23.15132  23.15571  23.16257
 Alpha virt. eigenvalues --   23.16932  23.18590  23.20653  23.51144  23.51298
 Alpha virt. eigenvalues --   23.53498  32.04875  32.57175  32.60964  32.64232
 Alpha virt. eigenvalues --   32.66909  32.69219  32.71510  32.73529  32.74778
 Alpha virt. eigenvalues --   32.75297
          Condensed to atoms (all electrons):
 Mulliken charges:
               1
     1  C    0.379576
     2  C   -0.173598
     3  C   -0.371248
     4  C    0.400077
     5  H    0.118603
     6  C   -0.353592
     7  C    0.334708
     8  H    0.128969
     9  C   -0.289117
    10  C   -0.145603
    11  H    0.123149
    12  C   -0.187484
    13  H    0.073426
    14  H    0.081355
    15  H    0.075106
    16  C    0.415100
    17  C   -0.176277
    18  C   -0.371534
    19  C    0.379696
    20  H    0.135731
    21  C   -0.319735
    22  C    0.317505
    23  H    0.105614
    24  C   -0.349728
    25  C   -0.129575
    26  H    0.122633
    27  C   -0.171750
    28  H    0.059986
    29  H    0.067702
    30  H    0.064690
    31  C    0.327105
    32  C   -0.143815
    33  C   -0.280286
    34  C    0.385456
    35  H    0.121703
    36  C   -0.368123
    37  C    0.379313
    38  H    0.123922
    39  C   -0.361441
    40  C   -0.162081
    41  H    0.123868
    42  C   -0.179858
    43  H    0.076843
    44  H    0.081497
    45  C   -0.086695
    46  C   -0.061645
    47  N   -0.187979
    48  N   -0.187774
    49  C   -0.083002
    50  C   -0.118100
    51  N   -0.496728
    52  N   -0.165010
    53  C   -0.080877
    54  C   -0.132555
    55  N   -0.162810
    56  N   -0.164459
    57  C   -0.085067
    58  C   -0.063745
    59  N   -0.190046
    60  N   -0.182645
    61  C   -0.066834
    62  C   -0.071284
    63  N   -0.168272
    64  N   -0.182856
    65  H    0.227509
    66  H    0.206785
    67  H    0.064916
    68  H    0.103917
    69  H    0.107200
    70  H    0.112091
    71  H    0.065742
    72  H    0.073481
    73  H    0.116769
    74  H    0.081426
    75  H    0.115472
    76  H    0.119465
    77  H    0.075164
    78  H    0.074747
    79  H    0.118103
    80  H    0.111810
    81  H    0.100745
    82  H    0.080873
    83  H    0.117121
    84  H    0.116183
    85  H    0.076148
    86  H    0.120855
    87  H    0.083373
 Sum of Mulliken charges =   0.00000
 Mulliken charges with hydrogens summed into heavy atoms:
               1
     1  C    0.379576
     2  C   -0.092244
     3  C   -0.252645
     4  C    0.400077
     6  C   -0.224623
     7  C    0.334708
     9  C   -0.165968
    10  C   -0.072176
    12  C   -0.112378
    16  C    0.415100
    17  C   -0.108576
    18  C   -0.235803
    19  C    0.379696
    21  C   -0.214121
    22  C    0.317505
    24  C   -0.227094
    25  C   -0.069589
    27  C   -0.107060
    31  C    0.327105
    32  C   -0.078899
    33  C   -0.158583
    34  C    0.385456
    36  C   -0.244200
    37  C    0.379313
    39  C   -0.237573
    40  C   -0.085238
    42  C   -0.098361
    45  C    0.103554
    46  C    0.135253
    47  N   -0.187979
    48  N   -0.187774
    49  C    0.128115
    50  C    0.059734
    51  N   -0.062435
    52  N   -0.165010
    53  C    0.131678
    54  C    0.071673
    55  N   -0.162810
    56  N   -0.164459
    57  C    0.107264
    58  C    0.134250
    59  N   -0.190046
    60  N   -0.182645
    61  C    0.127795
    62  C    0.121565
    63  N   -0.168272
    64  N   -0.182856
 Electronic spatial extent (au):  <R**2>=          31072.0061
 Charge=              0.0000 electrons
 Dipole moment (field-independent basis, Debye):
    X=             -1.4204    Y=              1.6733    Z=             -1.7804  Tot=              2.8262
 Quadrupole moment (field-independent basis, Debye-Ang):
   XX=           -269.2653   YY=           -270.3106   ZZ=           -262.9819
   XY=              4.9990   XZ=              3.1652   YZ=              1.7926
 Traceless Quadrupole moment (field-independent basis, Debye-Ang):
   XX=             -1.7460   YY=             -2.7914   ZZ=              4.5374
   XY=              4.9990   XZ=              3.1652   YZ=              1.7926
 Octapole moment (field-independent basis, Debye-Ang**2):
  XXX=             36.6998  YYY=             77.0961  ZZZ=             12.2139  XYY=             26.2975
  XXY=              7.7926  XXZ=            -25.3757  XZZ=            -57.1301  YZZ=             -4.2420
  YYZ=            -51.0181  XYZ=             65.9002
 Hexadecapole moment (field-independent basis, Debye-Ang**3):
 XXXX=         -20773.2405 YYYY=         -11721.4341 ZZZZ=          -7648.4428 XXXY=            368.8431
 XXXZ=            366.8476 YYYX=           -274.6776 YYYZ=           -100.9586 ZZZX=            -85.4239
 ZZZY=             46.4356 XXYY=          -5866.6074 XXZZ=          -5146.3520 YYZZ=          -3390.8648
 XXYZ=            301.8820 YYXZ=            -88.3088 ZZXY=            169.3648
 N-N= 5.599399262767D+03 E-N=-1.580361812565D+04  KE= 1.970949389107D+03
 No NMR shielding tensors so no spin-rotation constants.
 Leave Link  601 at Mon Oct 18 01:32:32 2021, MaxMem=  7864320000 cpu:              57.9 elap:               2.1
 (Enter /apps/gaussian/g16-c01-avx/g16/l9999.exe)
 Unable to Open any file for archive entry.
 1\1\GINC-CX3-6-1\SP\RPBE1PBE\def2TZVP\C37H40N10\ATARZIA\18-Oct-2021\0\
 \#P PBE1PBE/Def2TZVP SP SCF=(YQC,MaxCycle=900) int=(Grid=Superfinegrid
 ) EmpiricalDispersion=GD3\\_3_alde1_5_ami4_2_opt_gas\\0,1\C,0,-4.594,-
 0.9946,-1.2207\C,0,-5.3871,0.1015,-0.6852\C,0,-4.3326,-2.1402,-0.4699\
 C,0,-3.4922,-3.1306,-0.9661\H,0,-4.791,-2.2328,0.5032\C,0,-2.8709,-2.9
 498,-2.203\C,0,-3.1376,-1.8223,-2.9692\H,0,-2.1913,-3.714,-2.5477\C,0,
 -4.0249,-0.8634,-2.4823\C,0,-2.4459,-1.6022,-4.2329\H,0,-4.2295,-0.000
 2,-3.0956\C,0,-3.2415,-4.3406,-0.1948\H,0,-1.5431,-2.2117,-4.392\H,0,-
 5.6773,0.8722,-1.4142\H,0,-3.8342,-4.4469,0.7276\C,0,3.3644,-3.3035,-0
 .2926\C,0,4.3739,-3.9566,-1.115\C,0,3.5359,-1.9873,0.1325\C,0,2.5686,-
 1.3627,0.9139\H,0,4.4287,-1.448,-0.1381\C,0,1.4167,-2.0648,1.263\C,0,1
 .2389,-3.3849,0.8598\H,0,0.658,-1.5828,1.865\C,0,2.2178,-3.9985,0.0808
 \C,0,0.0476,-4.1124,1.2685\H,0,2.0607,-5.0226,-0.2214\C,0,2.756,-0.001
 ,1.3927\H,0,-0.7137,-3.5162,1.7991\H,0,4.1605,-4.9994,-1.3983\H,0,1.94
 11,0.4021,2.0145\C,0,-2.009,2.3786,-0.409\C,0,-2.9928,2.3684,0.6658\C,
 0,-2.4283,2.2422,-1.7317\C,0,-1.5051,2.1044,-2.7613\H,0,-3.4884,2.2142
 ,-1.9282\C,0,-0.1432,2.1519,-2.467\C,0,0.2902,2.3558,-1.1614\H,0,0.562
 2,2.0384,-3.276\C,0,-0.6483,2.447,-0.1327\C,0,1.7149,2.4697,-0.8798\H,
 0,-0.2912,2.578,0.8775\C,0,-1.9804,1.8486,-4.1123\H,0,2.3893,2.2017,-1
 .7071\H,0,-3.0625,1.9777,-4.2623\C,0,-5.1805,2.3643,1.4904\C,0,-6.2883
 ,1.4115,0.9901\N,0,-4.2239,2.5221,0.443\N,0,-5.6729,0.2,0.5408\C,0,6.5
 086,-3.2219,-3.6326\C,0,6.3835,-4.0085,-2.3065\N,0,6.8902,-1.8373,-3.4
 76\N,0,5.4268,-3.3621,-1.472\C,0,-2.1257,-6.3633,0.204\C,0,-1.2988,-5.
 9962,1.4534\N,0,-2.4016,-5.1981,-0.5834\N,0,-0.0949,-5.3466,1.0541\C,0
 ,-2.0633,-0.4592,-6.2323\C,0,-1.8184,1.0651,-6.2786\N,0,-2.8406,-0.746
 3,-5.0699\N,0,-1.2188,1.46,-5.041\C,0,3.9111,2.0045,1.6124\C,0,3.5439,
 2.9752,0.4746\N,0,3.7966,0.6636,1.1349\N,0,2.1411,2.885,0.2322\H,0,6.2
 122,-1.3712,-2.8815\H,0,7.7908,-1.7738,-3.0116\H,0,-2.5946,2.1806,1.67
 54\H,0,5.5434,-3.2462,-4.1463\H,0,7.2499,-3.7182,-4.265\H,0,7.3482,-3.
 974,-1.7883\H,0,6.1283,-5.0602,-2.5224\H,0,-4.7324,1.9701,2.416\H,0,-5
 .6349,3.3379,1.6986\H,0,-6.8405,1.9186,0.1847\H,0,-6.9625,1.1793,1.817
 \H,0,4.9524,2.1713,1.8976\H,0,3.2483,2.2093,2.4672\H,0,4.1494,2.7392,-
 0.4147\H,0,3.7593,3.9943,0.8081\H,0,-1.5459,-7.0442,-0.4223\H,0,-3.044
 9,-6.8616,0.5414\H,0,-2.784,1.5641,-6.4497\H,0,-1.1287,1.2936,-7.0935\
 H,0,-2.6413,-0.7415,-7.1171\H,0,-1.1008,-0.9945,-6.2395\H,0,-1.0307,-6
 .9191,1.9747\H,0,-1.9162,-5.3654,2.1173\\Version=ES64L-G16RevC.01\Stat
 e=1-A\HF=-1979.8502706\RMSD=1.735e-09\Dipole=-0.7195686,-0.3307291,0.7
 805207\Quadrupole=-3.6552676,0.9400305,2.7152371,-3.4020712,-1.1263552
 ,2.482342\PG=C01 [X(C37H40N10)]\\@
 The archive entry for this job was punched.


 ALL SCIENCE IS EITHER PHYSICS, OR STAMP COLLECTING.
   --ERNEST RUTHERFORD, 1871-1937.
 Job cpu time:       1 days  5 hours 27 minutes  9.3 seconds.
 Elapsed time:       0 days  0 hours 55 minutes 43.7 seconds.
 File lengths (MBytes):  RWF=   1744 Int=      0 D2E=      0 Chk=    176 Scr=     16
 Normal termination of Gaussian 16 at Mon Oct 18 01:32:32 2021.
