 Entering Gaussian System, Link 0=g16
 Initial command:
 /apps/gaussian/g16-c01-avx/g16/l1.exe "/rds/general/ephemeral/user/atarzia/ephemeral/Gau-2786197.inp" -scrdir="/rds/general/ephemeral/user/atarzia/ephemeral/"
 Entering Link 1 = /apps/gaussian/g16-c01-avx/g16/l1.exe PID=   2786198.
  
 Copyright (c) 1988-2019, Gaussian, Inc.  All Rights Reserved.
  
 This is part of the Gaussian(R) 16 program.  It is based on
 the Gaussian(R) 09 system (copyright 2009, Gaussian, Inc.),
 the Gaussian(R) 03 system (copyright 2003, Gaussian, Inc.),
 the Gaussian(R) 98 system (copyright 1998, Gaussian, Inc.),
 the Gaussian(R) 94 system (copyright 1995, Gaussian, Inc.),
 the Gaussian 92(TM) system (copyright 1992, Gaussian, Inc.),
 the Gaussian 90(TM) system (copyright 1990, Gaussian, Inc.),
 the Gaussian 88(TM) system (copyright 1988, Gaussian, Inc.),
 the Gaussian 86(TM) system (copyright 1986, Carnegie Mellon
 University), and the Gaussian 82(TM) system (copyright 1983,
 Carnegie Mellon University). Gaussian is a federally registered
 trademark of Gaussian, Inc.
  
 This software contains proprietary and confidential information,
 including trade secrets, belonging to Gaussian, Inc.
  
 This software is provided under written license and may be
 used, copied, transmitted, or stored only in accord with that
 written license.
  
 The following legend is applicable only to US Government
 contracts under FAR:
  
                    RESTRICTED RIGHTS LEGEND
  
 Use, reproduction and disclosure by the US Government is
 subject to restrictions as set forth in subparagraphs (a)
 and (c) of the Commercial Computer Software - Restricted
 Rights clause in FAR 52.227-19.
  
 Gaussian, Inc.
 340 Quinnipiac St., Bldg. 40, Wallingford CT 06492
  
  
 ---------------------------------------------------------------
 Warning -- This program may not be used in any manner that
 competes with the business of Gaussian, Inc. or will provide
 assistance to any competitor of Gaussian, Inc.  The licensee
 of this program is prohibited from giving any competitor of
 Gaussian, Inc. access to this program.  By using this program,
 the user acknowledges that Gaussian, Inc. is engaged in the
 business of creating and licensing software in the field of
 computational chemistry and represents and warrants to the
 licensee that it is not a competitor of Gaussian, Inc. and that
 it will not use this program in any manner prohibited above.
 ---------------------------------------------------------------
  

 Cite this work as:
 Gaussian 16, Revision C.01,
 M. J. Frisch, G. W. Trucks, H. B. Schlegel, G. E. Scuseria, 
 M. A. Robb, J. R. Cheeseman, G. Scalmani, V. Barone, 
 G. A. Petersson, H. Nakatsuji, X. Li, M. Caricato, A. V. Marenich, 
 J. Bloino, B. G. Janesko, R. Gomperts, B. Mennucci, H. P. Hratchian, 
 J. V. Ortiz, A. F. Izmaylov, J. L. Sonnenberg, D. Williams-Young, 
 F. Ding, F. Lipparini, F. Egidi, J. Goings, B. Peng, A. Petrone, 
 T. Henderson, D. Ranasinghe, V. G. Zakrzewski, J. Gao, N. Rega, 
 G. Zheng, W. Liang, M. Hada, M. Ehara, K. Toyota, R. Fukuda, 
 J. Hasegawa, M. Ishida, T. Nakajima, Y. Honda, O. Kitao, H. Nakai, 
 T. Vreven, K. Throssell, J. A. Montgomery, Jr., J. E. Peralta, 
 F. Ogliaro, M. J. Bearpark, J. J. Heyd, E. N. Brothers, K. N. Kudin, 
 V. N. Staroverov, T. A. Keith, R. Kobayashi, J. Normand, 
 K. Raghavachari, A. P. Rendell, J. C. Burant, S. S. Iyengar, 
 J. Tomasi, M. Cossi, J. M. Millam, M. Klene, C. Adamo, R. Cammi, 
 J. W. Ochterski, R. L. Martin, K. Morokuma, O. Farkas, 
 J. B. Foresman, and D. J. Fox, Gaussian, Inc., Wallingford CT, 2019.
 
 ******************************************
 Gaussian 16:  ES64L-G16RevC.01  3-Jul-2019
                18-Oct-2021 
 ******************************************
 %chk=_3_alde1_6_ami1_2_opt_dcm.chk
 %mem=60000mb
 %nprocshared=32
 Will use up to   32 processors via shared memory.
 ----------------------------------------------------------------------
 #P PBE1PBE/Def2TZVP SP SCF=(YQC,MaxCycle=900) int=(Grid=Superfinegrid)
  EmpiricalDispersion=GD3 SCRF=(PCM,Solvent=Dichloromethane)
 ----------------------------------------------------------------------
 1/38=1,172=1/1;
 2/12=2,17=6,18=5,40=1/2;
 3/5=44,7=101,11=2,25=1,30=1,70=2201,72=9,74=-13,75=-7,124=31/1,2,3;
 4//1;
 5/5=2,7=900,8=4,13=1,38=1,53=9/8,2,8;
 6/7=2,8=2,9=2,10=2,28=1/1;
 99/5=1,9=1/99;
 Leave Link    1 at Mon Oct 18 12:05:13 2021, MaxMem=  7864320000 cpu:               5.7 elap:               0.2
 (Enter /apps/gaussian/g16-c01-avx/g16/l101.exe)
 -------------------------
 _3_alde1_6_ami1_2_opt_dcm
 -------------------------
 Symbolic Z-matrix:
 Charge =  0 Multiplicity = 1
 C                    -1.2202   -0.1559   -3.184 
 C                    -0.0295    0.0051   -4.008 
 C                    -1.6376   -1.4241   -2.7909 
 C                    -2.7747   -1.5864   -2.0053 
 H                    -1.0712   -2.2891   -3.0939 
 C                    -3.5133   -0.4679   -1.6346 
 C                    -3.1246    0.8065   -2.0426 
 H                    -4.4084   -0.5635   -1.0391 
 C                    -1.9652    0.9565   -2.7986 
 C                    -3.9233    1.9719   -1.6939 
 H                    -1.6452    1.9459   -3.0952 
 C                    -3.1767   -2.9172   -1.5681 
 H                    -3.4759    2.9477   -1.9372 
 H                     0.2009    1.0334   -4.3259 
 H                    -3.8549   -2.9542   -0.7008 
 C                     2.413    -2.1944    0.907 
 C                     3.6827   -1.57      0.5646 
 C                     1.8661   -2.0177    2.1738 
 C                     0.6403   -2.586     2.506 
 H                     2.3913   -1.4259    2.9051 
 C                    -0.028    -3.3626    1.5659 
 C                     0.52     -3.5735    0.3018 
 H                    -0.9744   -3.8268    1.7977 
 C                     1.7307   -2.9702   -0.0277 
 C                    -0.1547   -4.427    -0.6653 
 H                     2.1494   -3.1142   -1.0143 
 C                     0.0628   -2.3374    3.8204 
 H                     0.2615   -4.418    -1.6845 
 H                     4.0488   -1.7494   -0.4578 
 H                    -1.0163   -2.5337    3.9206 
 C                     0.025     2.9845    0.9824 
 C                     0.8372    3.7038    0.0114 
 C                    -1.362     2.997     0.8724 
 C                    -2.1576    2.3444    1.8085 
 H                    -1.829     3.5193    0.0544 
 C                    -1.5552    1.6797    2.8702 
 C                    -0.168     1.6744    3.0077 
 H                    -2.1453    1.1742    3.6192 
 C                     0.6162    2.3178    2.0538 
 C                     0.4553    1.0264    4.1526 
 H                     1.693     2.3092    2.1513 
 C                    -3.6071    2.3622    1.659 
 H                     1.5539    0.9588    4.1273 
 H                     1.9117    3.7809    0.24 
 H                    -4.1604    1.5713    2.1894 
 C                     1.4076   -1.4047   -6.5761 
 C                     1.8137   -0.8245   -5.1972 
 N                     0.4125   -0.4991   -7.1412 
 H                     0.99     -2.4104   -6.3904 
 C                     2.5805   -1.5503   -7.565 
 N                     0.6779   -0.9838   -4.3411 
 H                     2.0544    0.242    -5.3542 
 C                     3.0156   -1.5211   -4.5293 
 H                     3.3294   -2.2021   -7.1059 
 C                     3.2148   -0.2007   -7.89 
 C                     2.1179   -2.2336   -8.8539 
 H                     3.8738   -1.457    -5.2042 
 C                     2.7176   -2.9872   -4.2263 
 C                     3.3797   -0.7799   -3.2431 
 H                     1.4844   -1.5717   -9.439 
 H                     1.5661   -3.1457   -8.6332 
 H                     2.9797   -2.4967   -9.4633 
 H                     3.9425   -0.3112   -8.6907 
 H                     3.7221    0.2131   -7.0226 
 H                     2.443     0.4955   -8.2057 
 H                     2.5517   -0.8105   -2.5375 
 H                     3.6143    0.2621   -3.45 
 H                     4.2531   -1.2389   -2.7835 
 H                     1.7971   -3.0583   -3.6534 
 H                     3.5323   -3.4261   -3.6528 
 H                     2.6008   -3.5606   -5.142 
 C                     6.6349   -0.6697    2.0945 
 C                     5.546    -0.237     1.0605 
 N                     6.1032   -1.1258    3.3663 
 H                     7.2514    0.2107    2.3175 
 C                     7.592    -1.7535    1.554 
 N                     4.3115   -0.8667    1.399 
 H                     5.8789   -0.5176    0.045 
 C                     5.3375    1.2962    1.0494 
 H                     8.1632   -2.087     2.4271 
 C                     8.5713   -1.1756    0.5343 
 C                     6.8763   -2.9708    0.9708 
 H                     6.3178    1.7513    0.865 
 C                     4.7887    1.8155    2.3757 
 C                     4.4039    1.6873   -0.0954 
 H                     6.134    -3.36      1.6633 
 H                     7.598    -3.7597    0.7699 
 H                     6.379    -2.7261    0.0353 
 H                     8.0493   -0.803    -0.3446 
 H                     9.2718   -1.9426    0.2117 
 H                     9.138    -0.355     0.9683 
 H                     3.4127    1.263     0.0561 
 H                     4.7865    1.3274   -1.0485 
 H                     4.3137    2.7703   -0.1512 
 H                     4.5524    2.8753    2.2933 
 H                     5.5161    1.6968    3.1748 
 H                     3.8843    1.2706    2.6363 
 C                     0.3474    6.3312   -2.2118 
 C                     1.0991    4.9955   -1.9286 
 N                    -0.9624    6.1273   -2.8006 
 H                     0.9563    6.8865   -2.9342 
 C                     0.1944    7.2651   -0.9853 
 N                     0.3175    4.2347   -1.0083 
 H                     2.1057    5.2214   -1.5345 
 C                     1.2896    4.1519   -3.2147 
 H                    -0.0866    8.2369   -1.4076 
 C                     1.5079    7.4445   -0.2268 
 C                    -0.9228    6.8565   -0.0268 
 H                     0.301     3.8239   -3.5551 
 C                     2.1192    2.9085   -2.8975 
 C                     1.9737    4.9358   -4.3334 
 H                    -0.9557    7.5543    0.8076 
 H                    -0.7635    5.8572    0.366 
 H                    -1.8831    6.8869   -0.5328 
 H                     1.4189    8.2714    0.4743 
 H                     2.3261    7.6642   -0.91 
 H                     1.7523    6.5503    0.3417 
 H                     2.9037    5.3734   -3.9757 
 H                     1.3432    5.7313   -4.7218 
 H                     2.2076    4.2652   -5.1581 
 H                     3.1076    3.193    -2.5414 
 H                     2.2419    2.3043   -3.7938 
 H                     1.6393    2.2958   -2.137 
 C                    -3.1221   -5.2507   -1.6641 
 C                    -1.7786   -5.9548   -1.3416 
 N                    -2.7647   -3.9535   -2.1518 
 H                    -3.705    -5.176    -0.7293 
 C                    -3.9766   -5.9807   -2.7199 
 N                    -1.1356   -5.1505   -0.3452 
 H                    -1.1876   -5.9692   -2.2737 
 C                    -1.9209   -7.3943   -0.8144 
 H                    -4.1956   -6.9838   -2.3409 
 C                    -3.2587   -6.0922   -4.0618 
 C                    -5.3035   -5.2413   -2.8938 
 H                    -2.4221   -7.9915   -1.5826 
 C                    -2.7277   -7.4527    0.4792 
 C                    -0.527    -7.9812   -0.5902 
 H                    -5.1308   -4.2439   -3.2922 
 H                    -5.8224   -5.1483   -1.9416 
 H                    -5.948    -5.7823   -3.583 
 H                    -2.4051   -6.7617   -3.9966 
 H                    -2.9121   -5.1108   -4.3738 
 H                    -3.9387   -6.4826   -4.8159 
 H                    -0.005    -7.4186    0.1806 
 H                     0.061    -7.9404   -1.5051 
 H                    -0.5997   -9.0195   -0.2746 
 H                    -2.6878   -8.4556    0.8987 
 H                    -3.7702   -7.1994    0.305 
 H                    -2.3112   -6.7537    1.199 
 C                    -5.773     3.0559   -0.7907 
 C                    -5.5894    3.1994    0.7444 
 N                    -5.0632    1.8685   -1.1656 
 H                    -5.3153    3.9462   -1.2546 
 C                    -7.2366    2.9444   -1.2517 
 N                    -4.1753    3.2368    0.9547 
 H                    -6.0396    2.316     1.23 
 C                    -6.2325    4.4704    1.3343 
 H                    -7.7633    3.8524   -0.9416 
 C                    -7.9347    1.7256   -0.6555 
 C                    -7.2686    2.872    -2.7786 
 H                    -7.3011    4.4486    1.0981 
 C                    -5.6136    5.7445    0.766 
 C                    -6.0825    4.4483    2.8556 
 H                    -6.758     1.9738   -3.1187 
 H                    -6.7744    3.7371   -3.2164 
 H                    -8.2956    2.8458   -3.1357 
 H                    -7.3346    0.8384   -0.837 
 H                    -8.9104    1.5915   -1.1174 
 H                    -8.0803    1.8398    0.4156 
 H                    -6.5882    5.3045    3.2961 
 H                    -5.0307    4.4889    3.1308 
 H                    -6.5155    3.542     3.2748 
 H                    -4.5327    5.7058    0.8708 
 H                    -5.9889    6.6116    1.3051 
 H                    -5.8605    5.8679   -0.285 
 C                     0.172    -1.5785    6.0287 
 C                     0.4317   -0.0596    6.2157 
 N                     0.7677   -1.9087    4.7713 
 H                    -0.9203   -1.7398    6.0064 
 C                     0.7813   -2.4616    7.1355 
 N                    -0.2237    0.596     5.1233 
 H                     1.5239    0.0896    6.1643 
 C                    -0.0945    0.5204    7.5408 
 H                     0.339    -2.1599    8.0901 
 C                     2.2987   -2.32      7.2127 
 C                     0.4023   -3.9203    6.8783 
 H                     0.4082    0.0034    8.3641 
 C                    -1.604     0.3483    7.6807 
 C                     0.2736    2.0026    7.614 
 H                     0.7641   -4.5513    7.6868 
 H                     0.8438   -4.2653    5.9458 
 H                    -0.6782   -4.0338    6.8122 
 H                     2.7059   -3.0553    7.9033 
 H                     2.5847   -1.332     7.5635 
 H                     2.7329   -2.4828    6.2302 
 H                    -0.2202    2.5492    6.8136 
 H                     1.3486    2.1388    7.513 
 H                    -0.0379    2.4235    8.5673 
 H                    -1.8718   -0.6986    7.7971 
 H                    -2.098     0.7417    6.7969 
 H                    -1.9617    0.8892    8.5541 
 H                    -1.4681    5.4573   -2.231 
 H                    -0.8776    5.7392   -3.7331 
 H                     0.0131   -0.9048   -7.9796 
 H                    -0.3465   -0.3676   -6.4804 
 H                     5.5317   -1.952     3.2216 
 H                     5.4893   -0.4211    3.7575 
 
 ITRead=  0  0  0  0  0  0  0  0  0  0  0  0  0  0  0  0  0  0  0  0
 ITRead=  0  0  0  0  0  0  0  0  0  0  0  0  0  0  0  0  0  0  0  0
 ITRead=  0  0  0  0  0  0  0  0  0  0  0  0  0  0  0  0  0  0  0  0
 ITRead=  0  0  0  0  0  0  0  0  0  0  0  0  0  0  0  0  0  0  0  0
 ITRead=  0  0  0  0  0  0  0  0  0  0  0  0  0  0  0  0  0  0  0  0
 ITRead=  0  0  0  0  0  0  0  0  0  0  0  0  0  0  0  0  0  0  0  0
 ITRead=  0  0  0  0  0  0  0  0  0  0  0  0  0  0  0  0  0  0  0  0
 ITRead=  0  0  0  0  0  0  0  0  0  0  0  0  0  0  0  0  0  0  0  0
 ITRead=  0  0  0  0  0  0  0  0  0  0  0  0  0  0  0  0  0  0  0  0
 ITRead=  0  0  0  0  0  0  0  0  0  0  0  0  0  0  0  0  0  0  0  0
 ITRead=  0  0  0  0  0  0  0
 MicOpt= -1 -1 -1 -1 -1 -1 -1 -1 -1 -1 -1 -1 -1 -1 -1 -1 -1 -1 -1 -1
 MicOpt= -1 -1 -1 -1 -1 -1 -1 -1 -1 -1 -1 -1 -1 -1 -1 -1 -1 -1 -1 -1
 MicOpt= -1 -1 -1 -1 -1 -1 -1 -1 -1 -1 -1 -1 -1 -1 -1 -1 -1 -1 -1 -1
 MicOpt= -1 -1 -1 -1 -1 -1 -1 -1 -1 -1 -1 -1 -1 -1 -1 -1 -1 -1 -1 -1
 MicOpt= -1 -1 -1 -1 -1 -1 -1 -1 -1 -1 -1 -1 -1 -1 -1 -1 -1 -1 -1 -1
 MicOpt= -1 -1 -1 -1 -1 -1 -1 -1 -1 -1 -1 -1 -1 -1 -1 -1 -1 -1 -1 -1
 MicOpt= -1 -1 -1 -1 -1 -1 -1 -1 -1 -1 -1 -1 -1 -1 -1 -1 -1 -1 -1 -1
 MicOpt= -1 -1 -1 -1 -1 -1 -1 -1 -1 -1 -1 -1 -1 -1 -1 -1 -1 -1 -1 -1
 MicOpt= -1 -1 -1 -1 -1 -1 -1 -1 -1 -1 -1 -1 -1 -1 -1 -1 -1 -1 -1 -1
 MicOpt= -1 -1 -1 -1 -1 -1 -1 -1 -1 -1 -1 -1 -1 -1 -1 -1 -1 -1 -1 -1
 MicOpt= -1 -1 -1 -1 -1 -1 -1
 NAtoms=    207 NQM=      207 NQMF=       0 NMMI=      0 NMMIF=      0
                NMic=       0 NMicF=      0.
                    Isotopes and Nuclear Properties:
 (Nuclear quadrupole moments (NQMom) in fm**2, nuclear magnetic moments (NMagM)
  in nuclear magnetons)

  Atom         1           2           3           4           5           6           7           8           9          10
 IAtWgt=          12          12          12          12           1          12          12           1          12          12
 AtmWgt=  12.0000000  12.0000000  12.0000000  12.0000000   1.0078250  12.0000000  12.0000000   1.0078250  12.0000000  12.0000000
 NucSpn=           0           0           0           0           1           0           0           1           0           0
 AtZEff=  -0.0000000  -0.0000000  -0.0000000  -0.0000000  -0.0000000  -0.0000000  -0.0000000  -0.0000000  -0.0000000  -0.0000000
 NQMom=    0.0000000   0.0000000   0.0000000   0.0000000   0.0000000   0.0000000   0.0000000   0.0000000   0.0000000   0.0000000
 NMagM=    0.0000000   0.0000000   0.0000000   0.0000000   2.7928460   0.0000000   0.0000000   2.7928460   0.0000000   0.0000000
 AtZNuc=   6.0000000   6.0000000   6.0000000   6.0000000   1.0000000   6.0000000   6.0000000   1.0000000   6.0000000   6.0000000

  Atom        11          12          13          14          15          16          17          18          19          20
 IAtWgt=           1          12           1           1           1          12          12          12          12           1
 AtmWgt=   1.0078250  12.0000000   1.0078250   1.0078250   1.0078250  12.0000000  12.0000000  12.0000000  12.0000000   1.0078250
 NucSpn=           1           0           1           1           1           0           0           0           0           1
 AtZEff=  -0.0000000  -0.0000000  -0.0000000  -0.0000000  -0.0000000  -0.0000000  -0.0000000  -0.0000000  -0.0000000  -0.0000000
 NQMom=    0.0000000   0.0000000   0.0000000   0.0000000   0.0000000   0.0000000   0.0000000   0.0000000   0.0000000   0.0000000
 NMagM=    2.7928460   0.0000000   2.7928460   2.7928460   2.7928460   0.0000000   0.0000000   0.0000000   0.0000000   2.7928460
 AtZNuc=   1.0000000   6.0000000   1.0000000   1.0000000   1.0000000   6.0000000   6.0000000   6.0000000   6.0000000   1.0000000

  Atom        21          22          23          24          25          26          27          28          29          30
 IAtWgt=          12          12           1          12          12           1          12           1           1           1
 AtmWgt=  12.0000000  12.0000000   1.0078250  12.0000000  12.0000000   1.0078250  12.0000000   1.0078250   1.0078250   1.0078250
 NucSpn=           0           0           1           0           0           1           0           1           1           1
 AtZEff=  -0.0000000  -0.0000000  -0.0000000  -0.0000000  -0.0000000  -0.0000000  -0.0000000  -0.0000000  -0.0000000  -0.0000000
 NQMom=    0.0000000   0.0000000   0.0000000   0.0000000   0.0000000   0.0000000   0.0000000   0.0000000   0.0000000   0.0000000
 NMagM=    0.0000000   0.0000000   2.7928460   0.0000000   0.0000000   2.7928460   0.0000000   2.7928460   2.7928460   2.7928460
 AtZNuc=   6.0000000   6.0000000   1.0000000   6.0000000   6.0000000   1.0000000   6.0000000   1.0000000   1.0000000   1.0000000

  Atom        31          32          33          34          35          36          37          38          39          40
 IAtWgt=          12          12          12          12           1          12          12           1          12          12
 AtmWgt=  12.0000000  12.0000000  12.0000000  12.0000000   1.0078250  12.0000000  12.0000000   1.0078250  12.0000000  12.0000000
 NucSpn=           0           0           0           0           1           0           0           1           0           0
 AtZEff=  -0.0000000  -0.0000000  -0.0000000  -0.0000000  -0.0000000  -0.0000000  -0.0000000  -0.0000000  -0.0000000  -0.0000000
 NQMom=    0.0000000   0.0000000   0.0000000   0.0000000   0.0000000   0.0000000   0.0000000   0.0000000   0.0000000   0.0000000
 NMagM=    0.0000000   0.0000000   0.0000000   0.0000000   2.7928460   0.0000000   0.0000000   2.7928460   0.0000000   0.0000000
 AtZNuc=   6.0000000   6.0000000   6.0000000   6.0000000   1.0000000   6.0000000   6.0000000   1.0000000   6.0000000   6.0000000

  Atom        41          42          43          44          45          46          47          48          49          50
 IAtWgt=           1          12           1           1           1          12          12          14           1          12
 AtmWgt=   1.0078250  12.0000000   1.0078250   1.0078250   1.0078250  12.0000000  12.0000000  14.0030740   1.0078250  12.0000000
 NucSpn=           1           0           1           1           1           0           0           2           1           0
 AtZEff=  -0.0000000  -0.0000000  -0.0000000  -0.0000000  -0.0000000  -0.0000000  -0.0000000  -0.0000000  -0.0000000  -0.0000000
 NQMom=    0.0000000   0.0000000   0.0000000   0.0000000   0.0000000   0.0000000   0.0000000   2.0440000   0.0000000   0.0000000
 NMagM=    2.7928460   0.0000000   2.7928460   2.7928460   2.7928460   0.0000000   0.0000000   0.4037610   2.7928460   0.0000000
 AtZNuc=   1.0000000   6.0000000   1.0000000   1.0000000   1.0000000   6.0000000   6.0000000   7.0000000   1.0000000   6.0000000

  Atom        51          52          53          54          55          56          57          58          59          60
 IAtWgt=          14           1          12           1          12          12           1          12          12           1
 AtmWgt=  14.0030740   1.0078250  12.0000000   1.0078250  12.0000000  12.0000000   1.0078250  12.0000000  12.0000000   1.0078250
 NucSpn=           2           1           0           1           0           0           1           0           0           1
 AtZEff=  -0.0000000  -0.0000000  -0.0000000  -0.0000000  -0.0000000  -0.0000000  -0.0000000  -0.0000000  -0.0000000  -0.0000000
 NQMom=    2.0440000   0.0000000   0.0000000   0.0000000   0.0000000   0.0000000   0.0000000   0.0000000   0.0000000   0.0000000
 NMagM=    0.4037610   2.7928460   0.0000000   2.7928460   0.0000000   0.0000000   2.7928460   0.0000000   0.0000000   2.7928460
 AtZNuc=   7.0000000   1.0000000   6.0000000   1.0000000   6.0000000   6.0000000   1.0000000   6.0000000   6.0000000   1.0000000

  Atom        61          62          63          64          65          66          67          68          69          70
 IAtWgt=           1           1           1           1           1           1           1           1           1           1
 AtmWgt=   1.0078250   1.0078250   1.0078250   1.0078250   1.0078250   1.0078250   1.0078250   1.0078250   1.0078250   1.0078250
 NucSpn=           1           1           1           1           1           1           1           1           1           1
 AtZEff=  -0.0000000  -0.0000000  -0.0000000  -0.0000000  -0.0000000  -0.0000000  -0.0000000  -0.0000000  -0.0000000  -0.0000000
 NQMom=    0.0000000   0.0000000   0.0000000   0.0000000   0.0000000   0.0000000   0.0000000   0.0000000   0.0000000   0.0000000
 NMagM=    2.7928460   2.7928460   2.7928460   2.7928460   2.7928460   2.7928460   2.7928460   2.7928460   2.7928460   2.7928460
 AtZNuc=   1.0000000   1.0000000   1.0000000   1.0000000   1.0000000   1.0000000   1.0000000   1.0000000   1.0000000   1.0000000

  Atom        71          72          73          74          75          76          77          78          79          80
 IAtWgt=           1          12          12          14           1          12          14           1          12           1
 AtmWgt=   1.0078250  12.0000000  12.0000000  14.0030740   1.0078250  12.0000000  14.0030740   1.0078250  12.0000000   1.0078250
 NucSpn=           1           0           0           2           1           0           2           1           0           1
 AtZEff=  -0.0000000  -0.0000000  -0.0000000  -0.0000000  -0.0000000  -0.0000000  -0.0000000  -0.0000000  -0.0000000  -0.0000000
 NQMom=    0.0000000   0.0000000   0.0000000   2.0440000   0.0000000   0.0000000   2.0440000   0.0000000   0.0000000   0.0000000
 NMagM=    2.7928460   0.0000000   0.0000000   0.4037610   2.7928460   0.0000000   0.4037610   2.7928460   0.0000000   2.7928460
 AtZNuc=   1.0000000   6.0000000   6.0000000   7.0000000   1.0000000   6.0000000   7.0000000   1.0000000   6.0000000   1.0000000

  Atom        81          82          83          84          85          86          87          88          89          90
 IAtWgt=          12          12           1          12          12           1           1           1           1           1
 AtmWgt=  12.0000000  12.0000000   1.0078250  12.0000000  12.0000000   1.0078250   1.0078250   1.0078250   1.0078250   1.0078250
 NucSpn=           0           0           1           0           0           1           1           1           1           1
 AtZEff=  -0.0000000  -0.0000000  -0.0000000  -0.0000000  -0.0000000  -0.0000000  -0.0000000  -0.0000000  -0.0000000  -0.0000000
 NQMom=    0.0000000   0.0000000   0.0000000   0.0000000   0.0000000   0.0000000   0.0000000   0.0000000   0.0000000   0.0000000
 NMagM=    0.0000000   0.0000000   2.7928460   0.0000000   0.0000000   2.7928460   2.7928460   2.7928460   2.7928460   2.7928460
 AtZNuc=   6.0000000   6.0000000   1.0000000   6.0000000   6.0000000   1.0000000   1.0000000   1.0000000   1.0000000   1.0000000

  Atom        91          92          93          94          95          96          97          98          99         100
 IAtWgt=           1           1           1           1           1           1           1          12          12          14
 AtmWgt=   1.0078250   1.0078250   1.0078250   1.0078250   1.0078250   1.0078250   1.0078250  12.0000000  12.0000000  14.0030740
 NucSpn=           1           1           1           1           1           1           1           0           0           2
 AtZEff=  -0.0000000  -0.0000000  -0.0000000  -0.0000000  -0.0000000  -0.0000000  -0.0000000  -0.0000000  -0.0000000  -0.0000000
 NQMom=    0.0000000   0.0000000   0.0000000   0.0000000   0.0000000   0.0000000   0.0000000   0.0000000   0.0000000   2.0440000
 NMagM=    2.7928460   2.7928460   2.7928460   2.7928460   2.7928460   2.7928460   2.7928460   0.0000000   0.0000000   0.4037610
 AtZNuc=   1.0000000   1.0000000   1.0000000   1.0000000   1.0000000   1.0000000   1.0000000   6.0000000   6.0000000   7.0000000

  Atom       101         102         103         104         105         106         107         108         109         110
 IAtWgt=           1          12          14           1          12           1          12          12           1          12
 AtmWgt=   1.0078250  12.0000000  14.0030740   1.0078250  12.0000000   1.0078250  12.0000000  12.0000000   1.0078250  12.0000000
 NucSpn=           1           0           2           1           0           1           0           0           1           0
 AtZEff=  -0.0000000  -0.0000000  -0.0000000  -0.0000000  -0.0000000  -0.0000000  -0.0000000  -0.0000000  -0.0000000  -0.0000000
 NQMom=    0.0000000   0.0000000   2.0440000   0.0000000   0.0000000   0.0000000   0.0000000   0.0000000   0.0000000   0.0000000
 NMagM=    2.7928460   0.0000000   0.4037610   2.7928460   0.0000000   2.7928460   0.0000000   0.0000000   2.7928460   0.0000000
 AtZNuc=   1.0000000   6.0000000   7.0000000   1.0000000   6.0000000   1.0000000   6.0000000   6.0000000   1.0000000   6.0000000

  Atom       111         112         113         114         115         116         117         118         119         120
 IAtWgt=          12           1           1           1           1           1           1           1           1           1
 AtmWgt=  12.0000000   1.0078250   1.0078250   1.0078250   1.0078250   1.0078250   1.0078250   1.0078250   1.0078250   1.0078250
 NucSpn=           0           1           1           1           1           1           1           1           1           1
 AtZEff=  -0.0000000  -0.0000000  -0.0000000  -0.0000000  -0.0000000  -0.0000000  -0.0000000  -0.0000000  -0.0000000  -0.0000000
 NQMom=    0.0000000   0.0000000   0.0000000   0.0000000   0.0000000   0.0000000   0.0000000   0.0000000   0.0000000   0.0000000
 NMagM=    0.0000000   2.7928460   2.7928460   2.7928460   2.7928460   2.7928460   2.7928460   2.7928460   2.7928460   2.7928460
 AtZNuc=   6.0000000   1.0000000   1.0000000   1.0000000   1.0000000   1.0000000   1.0000000   1.0000000   1.0000000   1.0000000

  Atom       121         122         123         124         125         126         127         128         129         130
 IAtWgt=           1           1           1          12          12          14           1          12          14           1
 AtmWgt=   1.0078250   1.0078250   1.0078250  12.0000000  12.0000000  14.0030740   1.0078250  12.0000000  14.0030740   1.0078250
 NucSpn=           1           1           1           0           0           2           1           0           2           1
 AtZEff=  -0.0000000  -0.0000000  -0.0000000  -0.0000000  -0.0000000  -0.0000000  -0.0000000  -0.0000000  -0.0000000  -0.0000000
 NQMom=    0.0000000   0.0000000   0.0000000   0.0000000   0.0000000   2.0440000   0.0000000   0.0000000   2.0440000   0.0000000
 NMagM=    2.7928460   2.7928460   2.7928460   0.0000000   0.0000000   0.4037610   2.7928460   0.0000000   0.4037610   2.7928460
 AtZNuc=   1.0000000   1.0000000   1.0000000   6.0000000   6.0000000   7.0000000   1.0000000   6.0000000   7.0000000   1.0000000

  Atom       131         132         133         134         135         136         137         138         139         140
 IAtWgt=          12           1          12          12           1          12          12           1           1           1
 AtmWgt=  12.0000000   1.0078250  12.0000000  12.0000000   1.0078250  12.0000000  12.0000000   1.0078250   1.0078250   1.0078250
 NucSpn=           0           1           0           0           1           0           0           1           1           1
 AtZEff=  -0.0000000  -0.0000000  -0.0000000  -0.0000000  -0.0000000  -0.0000000  -0.0000000  -0.0000000  -0.0000000  -0.0000000
 NQMom=    0.0000000   0.0000000   0.0000000   0.0000000   0.0000000   0.0000000   0.0000000   0.0000000   0.0000000   0.0000000
 NMagM=    0.0000000   2.7928460   0.0000000   0.0000000   2.7928460   0.0000000   0.0000000   2.7928460   2.7928460   2.7928460
 AtZNuc=   6.0000000   1.0000000   6.0000000   6.0000000   1.0000000   6.0000000   6.0000000   1.0000000   1.0000000   1.0000000

  Atom       141         142         143         144         145         146         147         148         149         150
 IAtWgt=           1           1           1           1           1           1           1           1           1          12
 AtmWgt=   1.0078250   1.0078250   1.0078250   1.0078250   1.0078250   1.0078250   1.0078250   1.0078250   1.0078250  12.0000000
 NucSpn=           1           1           1           1           1           1           1           1           1           0
 AtZEff=  -0.0000000  -0.0000000  -0.0000000  -0.0000000  -0.0000000  -0.0000000  -0.0000000  -0.0000000  -0.0000000  -0.0000000
 NQMom=    0.0000000   0.0000000   0.0000000   0.0000000   0.0000000   0.0000000   0.0000000   0.0000000   0.0000000   0.0000000
 NMagM=    2.7928460   2.7928460   2.7928460   2.7928460   2.7928460   2.7928460   2.7928460   2.7928460   2.7928460   0.0000000
 AtZNuc=   1.0000000   1.0000000   1.0000000   1.0000000   1.0000000   1.0000000   1.0000000   1.0000000   1.0000000   6.0000000

  Atom       151         152         153         154         155         156         157         158         159         160
 IAtWgt=          12          14           1          12          14           1          12           1          12          12
 AtmWgt=  12.0000000  14.0030740   1.0078250  12.0000000  14.0030740   1.0078250  12.0000000   1.0078250  12.0000000  12.0000000
 NucSpn=           0           2           1           0           2           1           0           1           0           0
 AtZEff=  -0.0000000  -0.0000000  -0.0000000  -0.0000000  -0.0000000  -0.0000000  -0.0000000  -0.0000000  -0.0000000  -0.0000000
 NQMom=    0.0000000   2.0440000   0.0000000   0.0000000   2.0440000   0.0000000   0.0000000   0.0000000   0.0000000   0.0000000
 NMagM=    0.0000000   0.4037610   2.7928460   0.0000000   0.4037610   2.7928460   0.0000000   2.7928460   0.0000000   0.0000000
 AtZNuc=   6.0000000   7.0000000   1.0000000   6.0000000   7.0000000   1.0000000   6.0000000   1.0000000   6.0000000   6.0000000

  Atom       161         162         163         164         165         166         167         168         169         170
 IAtWgt=           1          12          12           1           1           1           1           1           1           1
 AtmWgt=   1.0078250  12.0000000  12.0000000   1.0078250   1.0078250   1.0078250   1.0078250   1.0078250   1.0078250   1.0078250
 NucSpn=           1           0           0           1           1           1           1           1           1           1
 AtZEff=  -0.0000000  -0.0000000  -0.0000000  -0.0000000  -0.0000000  -0.0000000  -0.0000000  -0.0000000  -0.0000000  -0.0000000
 NQMom=    0.0000000   0.0000000   0.0000000   0.0000000   0.0000000   0.0000000   0.0000000   0.0000000   0.0000000   0.0000000
 NMagM=    2.7928460   0.0000000   0.0000000   2.7928460   2.7928460   2.7928460   2.7928460   2.7928460   2.7928460   2.7928460
 AtZNuc=   1.0000000   6.0000000   6.0000000   1.0000000   1.0000000   1.0000000   1.0000000   1.0000000   1.0000000   1.0000000

  Atom       171         172         173         174         175         176         177         178         179         180
 IAtWgt=           1           1           1           1           1          12          12          14           1          12
 AtmWgt=   1.0078250   1.0078250   1.0078250   1.0078250   1.0078250  12.0000000  12.0000000  14.0030740   1.0078250  12.0000000
 NucSpn=           1           1           1           1           1           0           0           2           1           0
 AtZEff=  -0.0000000  -0.0000000  -0.0000000  -0.0000000  -0.0000000  -0.0000000  -0.0000000  -0.0000000  -0.0000000  -0.0000000
 NQMom=    0.0000000   0.0000000   0.0000000   0.0000000   0.0000000   0.0000000   0.0000000   2.0440000   0.0000000   0.0000000
 NMagM=    2.7928460   2.7928460   2.7928460   2.7928460   2.7928460   0.0000000   0.0000000   0.4037610   2.7928460   0.0000000
 AtZNuc=   1.0000000   1.0000000   1.0000000   1.0000000   1.0000000   6.0000000   6.0000000   7.0000000   1.0000000   6.0000000

  Atom       181         182         183         184         185         186         187         188         189         190
 IAtWgt=          14           1          12           1          12          12           1          12          12           1
 AtmWgt=  14.0030740   1.0078250  12.0000000   1.0078250  12.0000000  12.0000000   1.0078250  12.0000000  12.0000000   1.0078250
 NucSpn=           2           1           0           1           0           0           1           0           0           1
 AtZEff=  -0.0000000  -0.0000000  -0.0000000  -0.0000000  -0.0000000  -0.0000000  -0.0000000  -0.0000000  -0.0000000  -0.0000000
 NQMom=    2.0440000   0.0000000   0.0000000   0.0000000   0.0000000   0.0000000   0.0000000   0.0000000   0.0000000   0.0000000
 NMagM=    0.4037610   2.7928460   0.0000000   2.7928460   0.0000000   0.0000000   2.7928460   0.0000000   0.0000000   2.7928460
 AtZNuc=   7.0000000   1.0000000   6.0000000   1.0000000   6.0000000   6.0000000   1.0000000   6.0000000   6.0000000   1.0000000

  Atom       191         192         193         194         195         196         197         198         199         200
 IAtWgt=           1           1           1           1           1           1           1           1           1           1
 AtmWgt=   1.0078250   1.0078250   1.0078250   1.0078250   1.0078250   1.0078250   1.0078250   1.0078250   1.0078250   1.0078250
 NucSpn=           1           1           1           1           1           1           1           1           1           1
 AtZEff=  -0.0000000  -0.0000000  -0.0000000  -0.0000000  -0.0000000  -0.0000000  -0.0000000  -0.0000000  -0.0000000  -0.0000000
 NQMom=    0.0000000   0.0000000   0.0000000   0.0000000   0.0000000   0.0000000   0.0000000   0.0000000   0.0000000   0.0000000
 NMagM=    2.7928460   2.7928460   2.7928460   2.7928460   2.7928460   2.7928460   2.7928460   2.7928460   2.7928460   2.7928460
 AtZNuc=   1.0000000   1.0000000   1.0000000   1.0000000   1.0000000   1.0000000   1.0000000   1.0000000   1.0000000   1.0000000

  Atom       201         202         203         204         205         206         207
 IAtWgt=           1           1           1           1           1           1           1
 AtmWgt=   1.0078250   1.0078250   1.0078250   1.0078250   1.0078250   1.0078250   1.0078250
 NucSpn=           1           1           1           1           1           1           1
 AtZEff=  -0.0000000  -0.0000000  -0.0000000  -0.0000000  -0.0000000  -0.0000000  -0.0000000
 NQMom=    0.0000000   0.0000000   0.0000000   0.0000000   0.0000000   0.0000000   0.0000000
 NMagM=    2.7928460   2.7928460   2.7928460   2.7928460   2.7928460   2.7928460   2.7928460
 AtZNuc=   1.0000000   1.0000000   1.0000000   1.0000000   1.0000000   1.0000000   1.0000000
 Leave Link  101 at Mon Oct 18 12:05:13 2021, MaxMem=  7864320000 cpu:               4.3 elap:               0.2
 (Enter /apps/gaussian/g16-c01-avx/g16/l202.exe)
 Stoichiometry    C75H120N12
 Framework group  C1[X(C75H120N12)]
 Deg. of freedom   615
 Full point group                 C1      NOp   1
 Largest Abelian subgroup         C1      NOp   1
 Largest concise Abelian subgroup C1      NOp   1
                         Standard orientation:                         
 ---------------------------------------------------------------------
 Center     Atomic      Atomic             Coordinates (Angstroms)
 Number     Number       Type             X           Y           Z
 ---------------------------------------------------------------------
      1          6           0        1.624795    2.820995    0.065714
      2          6           0        1.137824    3.543453   -1.102009
      3          6           0        0.985143    2.956776    1.294328
      4          6           0        1.445092    2.271455    2.414724
      5          1           0        0.121419    3.595443    1.377566
      6          6           0        2.572668    1.464782    2.305918
      7          6           0        3.241007    1.339404    1.089673
      8          1           0        2.962302    0.933440    3.160801
      9          6           0        2.748531    2.003121   -0.030679
     10          6           0        4.447688    0.532522    0.987042
     11          1           0        3.248497    1.887803   -0.982530
     12          6           0        0.741070    2.392277    3.684973
     13          1           0        4.833130    0.377223   -0.032205
     14          1           0        1.732318    3.429694   -2.021346
     15          1           0        0.933751    1.594297    4.419572
     16          6           0       -3.476620   -0.014611   -0.098053
     17          6           0       -3.866383    0.083432   -1.497240
     18          6           0       -3.359358   -1.260539    0.509415
     19          6           0       -2.961379   -1.370493    1.838110
     20          1           0       -3.569078   -2.153112   -0.056441
     21          6           0       -2.706784   -0.216560    2.571009
     22          6           0       -2.847619    1.040600    1.985819
     23          1           0       -2.408435   -0.268669    3.606942
     24          6           0       -3.213276    1.133680    0.645682
     25          6           0       -2.629819    2.249848    2.766361
     26          1           0       -3.303611    2.106383    0.181880
     27          6           0       -2.790681   -2.689602    2.432895
     28          1           0       -2.610220    3.191172    2.195750
     29          1           0       -3.931645    1.101681   -1.910066
     30          1           0       -2.187020   -2.731823    3.353135
     31          6           0        1.511761   -2.218565   -1.767748
     32          6           0        1.694540   -1.594818   -3.070604
     33          6           0        2.529811   -2.159948   -0.821089
     34          6           0        2.388727   -2.777947    0.417185
     35          1           0        3.440834   -1.631878   -1.047340
     36          6           0        1.217406   -3.468720    0.704860
     37          6           0        0.195561   -3.555406   -0.239374
     38          1           0        1.082495   -3.968616    1.651777
     39          6           0        0.344121   -2.917725   -1.468257
     40          6           0       -1.004802   -4.328523    0.044562
     41          1           0       -0.449179   -2.974761   -2.200720
     42          6           0        3.466100   -2.686935    1.394274
     43          1           0       -1.814399   -4.248875   -0.697287
     44          1           0        0.918469   -1.806295   -3.822763
     45          1           0        3.187640   -2.871445    2.443752
     46          6           0       -0.007192    6.498539   -1.879399
     47          6           0       -0.335520    5.014095   -2.181957
     48          7           0        1.446014    6.627486   -1.914586
     49          1           0       -0.415496    6.719364   -0.876987
     50          6           0       -0.629057    7.494198   -2.877779
     51          7           0        0.104209    4.263019   -1.045802
     52          1           0        0.227819    4.737923   -3.091015
     53          6           0       -1.830986    4.712933   -2.402839
     54          1           0       -1.713785    7.354282   -2.861791
     55          6           0       -0.110354    7.269288   -4.295434
     56          6           0       -0.354316    8.935899   -2.443984
     57          1           0       -2.190967    5.328627   -3.231960
     58          6           0       -2.654815    5.013595   -1.153451
     59          6           0       -1.998318    3.247914   -2.805303
     60          1           0        0.693573    9.190307   -2.581750
     61          1           0       -0.618473    9.083634   -1.398272
     62          1           0       -0.946895    9.622517   -3.044564
     63          1           0       -0.452774    8.066558   -4.951168
     64          1           0       -0.462880    6.322720   -4.696310
     65          1           0        0.975857    7.259456   -4.286270
     66          1           0       -1.647319    2.591508   -2.011376
     67          1           0       -1.431404    3.027093   -3.707221
     68          1           0       -3.046945    3.033781   -3.003466
     69          1           0       -2.224736    4.492482   -0.302532
     70          1           0       -3.683481    4.685499   -1.292989
     71          1           0       -2.665375    6.078697   -0.938085
     72          6           0       -5.827674   -1.599131   -3.775164
     73          6           0       -4.471183   -0.854002   -3.558823
     74          7           0       -6.129411   -2.596195   -2.763716
     75          1           0       -5.763092   -2.138966   -4.728743
     76          6           0       -7.035700   -0.644911   -3.888925
     77          7           0       -4.108444   -0.945409   -2.182176
     78          1           0       -4.580195    0.197503   -3.880155
     79          6           0       -3.335395   -1.462500   -4.415568
     80          1           0       -7.915339   -1.296166   -3.845375
     81          6           0       -7.046842    0.084473   -5.230812
     82          6           0       -7.138504    0.356990   -2.740103
     83          1           0       -3.677746   -1.449270   -5.457071
     84          6           0       -3.014479   -2.899987   -4.014858
     85          6           0       -2.081657   -0.595062   -4.311512
     86          1           0       -7.074440   -0.141725   -1.776142
     87          1           0       -8.093438    0.875846   -2.789755
     88          1           0       -6.349205    1.102903   -2.794558
     89          1           0       -6.174973    0.726725   -5.336343
     90          1           0       -7.936113    0.705503   -5.311913
     91          1           0       -7.049173   -0.626097   -6.054203
     92          1           0       -1.701921   -0.590757   -3.291099
     93          1           0       -2.295442    0.432314   -4.599790
     94          1           0       -1.305131   -0.979415   -4.969858
     95          1           0       -2.141956   -3.254608   -4.561438
     96          1           0       -3.843765   -3.565151   -4.242019
     97          1           0       -2.806261   -2.945088   -2.948378
     98          6           0        4.398055   -0.621709   -5.027597
     99          6           0        2.924694   -0.326923   -4.613279
    100          7           0        5.366820   -0.035825   -4.120917
    101          1           0        4.543727   -0.165593   -6.013354
    102          6           0        4.736778   -2.122943   -5.204926
    103          7           0        2.708954   -0.886805   -3.318421
    104          1           0        2.242257   -0.751349   -5.370729
    105          6           0        2.635557    1.193811   -4.537308
    106          1           0        5.686582   -2.132163   -5.752176
    107          6           0        3.698549   -2.854407   -6.053354
    108          6           0        4.972309   -2.867649   -3.892010
    109          1           0        3.223510    1.610347   -3.711720
    110          6           0        1.156424    1.422626   -4.229564
    111          6           0        2.994568    1.923614   -5.830552
    112          1           0        5.192758   -3.912021   -4.103955
    113          1           0        4.099427   -2.823666   -3.248262
    114          1           0        5.820596   -2.441950   -3.364445
    115          1           0        4.081646   -3.829778   -6.345096
    116          1           0        3.469266   -2.294400   -6.957956
    117          1           0        2.780378   -3.011142   -5.492184
    118          1           0        2.513132    1.445832   -6.681602
    119          1           0        4.066989    1.944467   -6.005724
    120          1           0        2.647116    2.953608   -5.776398
    121          1           0        0.535920    1.009096   -5.022438
    122          1           0        0.951539    2.488688   -4.158842
    123          1           0        0.871522    0.958013   -3.287741
    124          6           0       -0.768530    3.414790    5.145450
    125          6           0       -2.264526    3.436870    4.737692
    126          7           0       -0.039487    3.352476    3.915439
    127          1           0       -0.591496    2.512856    5.757313
    128          6           0       -0.317991    4.651102    5.949397
    129          7           0       -2.500450    2.219602    4.019529
    130          1           0       -2.409316    4.312435    4.081400
    131          6           0       -3.248439    3.525660    5.918531
    132          1           0       -0.922717    4.699111    6.860338
    133          6           0       -0.491160    5.944346    5.158169
    134          6           0        1.144251    4.479207    6.361607
    135          1           0       -3.047981    4.454842    6.461134
    136          6           0       -3.107328    2.342224    6.871056
    137          6           0       -4.674986    3.592286    5.372457
    138          1           0        1.783765    4.450011    5.482104
    139          1           0        1.282734    3.555729    6.920714
    140          1           0        1.457973    5.309699    6.990033
    141          1           0       -1.542378    6.175196    5.007298
    142          1           0       -0.010432    5.847048    4.188604
    143          1           0       -0.036078    6.773126    5.696224
    144          1           0       -4.913119    2.675114    4.838393
    145          1           0       -4.787359    4.429939    4.686775
    146          1           0       -5.386287    3.716376    6.185850
    147          1           0       -3.906469    2.359985    7.608917
    148          1           0       -2.157785    2.372601    7.399032
    149          1           0       -3.168113    1.414408    6.309230
    150          6           0        6.175281   -0.777994    1.829768
    151          6           0        5.675894   -2.236884    2.011666
    152          7           0        5.024962    0.059307    2.002909
    153          1           0        6.564944   -0.696718    0.800747
    154          6           0        7.273279   -0.350267    2.818973
    155          7           0        4.640628   -2.406621    1.039700
    156          1           0        5.278850   -2.340599    3.036596
    157          6           0        6.768226   -3.302805    1.793436
    158          1           0        8.134545   -1.011569    2.681356
    159          6           0        6.801918   -0.427837    4.268136
    160          6           0        7.709128    1.076742    2.485248
    161          1           0        7.577979   -3.106319    2.503270
    162          6           0        7.322515   -3.275031    0.371703
    163          6           0        6.190207   -4.683734    2.103715
    164          1           0        6.874536    1.761180    2.619951
    165          1           0        8.049023    1.145160    1.453700
    166          1           0        8.523164    1.386868    3.136479
    167          1           0        5.863596    0.109294    4.374098
    168          1           0        7.542024    0.022825    4.925762
    169          1           0        6.655299   -1.458724    4.580019
    170          1           0        6.964111   -5.443230    2.019524
    171          1           0        5.392626   -4.923918    1.403828
    172          1           0        5.786324   -4.716996    3.113849
    173          1           0        6.504780   -3.326609   -0.342072
    174          1           0        7.981889   -4.125728    0.213958
    175          1           0        7.892263   -2.368086    0.188331
    176          6           0       -3.044811   -5.013338    2.443501
    177          6           0       -2.307637   -5.785067    1.316346
    178          7           0       -3.297949   -3.713334    1.904189
    179          1           0       -2.372461   -4.957676    3.317847
    180          6           0       -4.374971   -5.657914    2.880897
    181          7           0       -1.095591   -5.063949    1.064097
    182          1           0       -2.965500   -5.768371    0.430490
    183          6           0       -1.963257   -7.245122    1.661049
    184          1           0       -4.157002   -6.664992    3.249947
    185          6           0       -5.375924   -5.744606    1.732381
    186          6           0       -4.968279   -4.849137    4.034788
    187          1           0       -2.897614   -7.779210    1.859914
    188          6           0       -1.052858   -7.344925    2.881292
    189          6           0       -1.291750   -7.895011    0.450886
    190          1           0       -5.872224   -5.327856    4.404173
    191          1           0       -5.220175   -3.845014    3.700439
    192          1           0       -4.260321   -4.772144    4.857952
    193          1           0       -6.343384   -6.072385    2.106531
    194          1           0       -5.047886   -6.453410    0.976743
    195          1           0       -5.490495   -4.767726    1.270950
    196          1           0       -0.351531   -7.393500    0.232423
    197          1           0       -1.930918   -7.828134   -0.427390
    198          1           0       -1.088889   -8.945057    0.648925
    199          1           0       -1.572283   -7.040120    3.786034
    200          1           0       -0.185863   -6.705751    2.741013
    201          1           0       -0.716253   -8.370991    3.012577
    202          1           0        5.120748   -0.303318   -3.173830
    203          1           0        5.338448    0.975975   -4.174070
    204          1           0        1.719018    7.547137   -1.587877
    205          1           0        1.866112    5.949154   -1.287359
    206          1           0       -6.214426   -2.148564   -1.856768
    207          1           0       -5.361841   -3.252842   -2.685206
 ---------------------------------------------------------------------
 Rotational constants (GHZ):           0.0174716           0.0170440           0.0154175
 Leave Link  202 at Mon Oct 18 12:05:13 2021, MaxMem=  7864320000 cpu:               0.2 elap:               0.0
 (Enter /apps/gaussian/g16-c01-avx/g16/l301.exe)
 Standard basis: def2TZVP (5D, 7F)
 Ernie: Thresh=  0.10000D-02 Tol=  0.10000D-05 Strict=F.
 There are  3852 symmetry adapted cartesian basis functions of A   symmetry.
 There are  3417 symmetry adapted basis functions of A   symmetry.
  3417 basis functions,  5397 primitive gaussians,  3852 cartesian basis functions
   327 alpha electrons      327 beta electrons
       nuclear repulsion energy     17246.3393847554 Hartrees.
 IExCor= 1009 DFT=T Ex+Corr=PBE1PBE ExCW=0 ScaHFX=  0.250000
 ScaDFX=  0.750000  0.750000  1.000000  1.000000 ScalE2=  1.000000  1.000000
 IRadAn=      7 IRanWt=     -1 IRanGd=            0 ICorTp=0 IEmpDi=131
 NAtoms=  207 NActive=  207 NUniq=  207 SFac= 1.00D+00 NAtFMM=   60 NAOKFM=T Big=T
 Integral buffers will be    131072 words long.
 Raffenetti 2 integral format.
 Two-electron integral symmetry is turned on.
 R6Disp:  Grimme-D3 Dispersion energy=       -0.1938678801 Hartrees.
 Nuclear repulsion after empirical dispersion term =    17246.1455168754 Hartrees.
 ------------------------------------------------------------------------------
 Polarizable Continuum Model (PCM)
 =================================
 Model                : PCM.
 Atomic radii         : UFF (Universal Force Field).
 Polarization charges : Total charges.
 Charge compensation  : None.
 Solution method      : On-the-fly selection.
 Cavity type          : Scaled VdW (van der Waals Surface) (Alpha=1.100).
 Cavity algorithm     : GePol (No added spheres)
                        Default sphere list used, NSphG=  207.
                        Lebedev-Laikov grids with approx.  5.0 points / Ang**2.
                        Smoothing algorithm: York/Karplus (Gamma=1.0000).
                        Polarization charges: spherical gaussians, with
                                              point-specific exponents (IZeta= 3).
                        Self-potential: point-specific (ISelfS= 7).
                        Self-field    : sphere-specific E.n sum rule (ISelfD= 2).
 Solvent              : Dichloromethane, Eps=   8.930000 Eps(inf)=   2.028346
 ------------------------------------------------------------------------------
 GePol: Number of generator spheres                  =     207
 GePol: Total number of spheres                      =     207
 GePol: Number of exposed spheres                    =     207 (100.00%)
 GePol: Number of points                             =   11410
 GePol: Average weight of points                     =       0.13
 GePol: Minimum weight of points                     =   0.22D-11
 GePol: Maximum weight of points                     =    0.20577
 GePol: Number of points with low weight             =     885
 GePol: Fraction of low-weight points (<1% of avg)   =       7.76%
 GePol: Cavity surface area                          =   1450.479 Ang**2
 GePol: Cavity volume                                =   1836.636 Ang**3
 Leave Link  301 at Mon Oct 18 12:05:13 2021, MaxMem=  7864320000 cpu:               2.8 elap:               0.1
 (Enter /apps/gaussian/g16-c01-avx/g16/l302.exe)
 NPDir=0 NMtPBC=     1 NCelOv=     1 NCel=       1 NClECP=     1 NCelD=      1
         NCelK=      1 NCelE2=     1 NClLst=     1 CellRange=     0.0.
 One-electron integrals computed using PRISM.
 One-electron integral symmetry used in STVInt
   1 Symmetry operations used in ECPInt.
 ECPInt:  NShTT= 1033203 NPrTT= 3029304 LenC2=  600120 LenP2D= 1095391.
 LDataN:  DoStor=T MaxTD1= 6 Len=  172
 Number of processors reduced to  21 by ecpmxn.
 NBasis=  3417 RedAO= T EigKep=  3.49D-06  NBF=  3417
 NBsUse=  3417 1.00D-06 EigRej= -1.00D+00 NBFU=  3417
 Precomputing XC quadrature grid using
 IXCGrd= 4 IRadAn=           7 IRanWt=          -1 IRanGd=           0 AccXCQ= 0.00D+00.
 Generated NRdTot=       0 NPtTot=           0 NUsed=           0 NTot=          32
 NSgBfM=  2935  2830  2870  2915  2935 MxSgAt=   207 MxSgA2=   207.
 Leave Link  302 at Mon Oct 18 12:06:16 2021, MaxMem=  7864320000 cpu:            1989.3 elap:              62.9
 (Enter /apps/gaussian/g16-c01-avx/g16/l303.exe)
 DipDrv:  MaxL=1.
 Leave Link  303 at Mon Oct 18 12:06:18 2021, MaxMem=  7864320000 cpu:              62.0 elap:               2.4
 (Enter /apps/gaussian/g16-c01-avx/g16/l401.exe)
 ExpMin= 9.52D-02 ExpMax= 1.97D+04 ExpMxC= 6.73D+02 IAcc=3 IRadAn=         7 AccDes= 0.00D+00
 Harris functional with IExCor= 1009 and IRadAn=       7 diagonalized for initial guess.
 HarFok:  IExCor= 1009 AccDes= 0.00D+00 IRadAn=         7 IDoV= 1 UseB2=F ITyADJ=14
 ICtDFT=  3500011 ScaDFX=  1.000000  1.000000  1.000000  1.000000
 FoFCou: FMM=F IPFlag=           0 FMFlag=      100000 FMFlg1=        2001
         NFxFlg=           0 DoJE=T BraDBF=F KetDBF=T FulRan=T
         wScrn=  0.000000 ICntrl=       500 IOpCl=  0 I1Cent=   200000004 NGrid=           0
         NMat0=    1 NMatS0=      1 NMatT0=    0 NMatD0=    1 NMtDS0=    0 NMtDT0=    0
 Petite list used in FoFCou.
 Harris En= -3585.82232629359    
 JPrj=0 DoOrth=F DoCkMO=F.
 Leave Link  401 at Mon Oct 18 12:08:02 2021, MaxMem=  7864320000 cpu:            3280.5 elap:             103.8
 (Enter /apps/gaussian/g16-c01-avx/g16/l508.exe)
 Integral symmetry usage will be decided dynamically.
 Tight linear equation convergence will be used.
 RPBE1PBE wavefunction.
 Linear searches until partial convergence.
 Full line searches.
 Fock matrices will be formed incrementally for  20 cycles.
 Inv3:  Mode=1 IEnd=   390564300.
 Iteration    1 A*A^-1 deviation from unit magnitude is 8.88D-15 for  11400.
 Iteration    1 A*A^-1 deviation from orthogonality  is 5.36D-15 for   7127   6516.
 Iteration    1 A^-1*A deviation from unit magnitude is 8.88D-15 for  11400.
 Iteration    1 A^-1*A deviation from orthogonality  is 3.70D-15 for   8560    628.
 FoFJK:  IHMeth= 1 ICntrl=       0 DoSepK=F KAlg= 0 I1Cent=           0 FoldK=F
 IRaf= 520000000 NMat=       1 IRICut=       1 DoRegI=T DoRafI=F ISym2E= 1 IDoP0=0 IntGTp=1.
 Iteration   1 EE= -3581.84398123979                                    Grad=2.324D+00 Max rot=    1.8618 deg.
 Gradient too large for Newton-Raphson -- use scaled steepest descent instead.
 Alpha Gap=     0.158 HL deriv= 1.34D-02
     ILin= 1 X=0.000D+00 Y=-3.581843981240D+03 DE= 0.00D+00 F= -1.12D+01
 RMSU=  3.45D-04    CP:  9.87D-01
     ILin= 2 X=3.000D-01 Y=-3.584027765750D+03 DE=-2.18D+00 F= -3.37D+00 OKLS=F
 RMSU=  5.43D-05    CP:  9.79D-01  1.70D+00
     ILin= 3 X=5.000D-01 Y=-3.584176562958D+03 DE=-2.33D+00 F=  1.88D+00
     Accept linear search using points  2 and  3.
     An  expanding polynomial of degree  3 produced  0.3942
 RMSU=  4.05D-08    CP:  9.83D-01  1.33D+00  3.72D-01
 Iteration   2 EE= -3584.22872514074     Delta-E=       -2.384743900955 Grad=6.627D-01 Max rot=    1.7175 deg.
 Gradient too large for Newton-Raphson -- use scaled steepest descent instead.
 Alpha Gap=     0.192 HL deriv= 9.86D-03
     ILin= 1 X=0.000D+00 Y=-3.584228725141D+03 DE= 0.00D+00 F= -4.02D-01
 RMSU=  7.38D-05    CP:  9.79D-01  1.50D+00  6.63D-01 -3.00D+00
     ILin= 2 X=3.000D-01 Y=-3.584320553959D+03 DE=-9.18D-02 F= -2.10D-01 OKLS=F
 RMSU=  6.22D-06    CP:  9.75D-01  1.69D+00  1.08D+00 -3.00D+00  2.00D+00
     ILin= 3 X=6.000D-01 Y=-3.584354704903D+03 DE=-1.26D-01 F= -1.79D-02
 RMSU=  7.58D-05    CP:  9.69D-01  2.06D+00  2.31D+00 -3.00D+00  3.00D+00
                    CP:  3.00D+00
     ILin= 4 X=1.200D+00 Y=-3.584250685058D+03 DE=-2.20D-02 F=  3.64D-01
     An  expanding polynomial of degree  4 produced  0.6280
     Minimum is close to point  3 DX=  2.80D-02 DF= -2.51D-04 DXR=  4.46D-02 DFR=  1.99D-03 which will be used.
 Iteration   3 EE= -3584.35470490338     Delta-E=       -0.125979762641 Grad=2.535D-01 Max rot=    0.6583 deg.
 Gradient too large for Newton-Raphson -- use scaled steepest descent instead.
 Alpha Gap=     0.178 HL deriv= 1.00D-02
     ILin= 1 X=0.000D+00 Y=-3.584354704903D+03 DE= 0.00D+00 F= -7.37D-02
 RMSU=  5.78D-05    CP:  9.74D-01  1.85D+00  1.62D+00 -3.00D+00  2.56D+00
                    CP:  1.59D+00 -9.43D-05
     ILin= 2 X=5.000D-01 Y=-3.584368456046D+03 DE=-1.38D-02 F=  1.88D-02 OKLS=T
     Accept linear search using points  1 and  2.
     An  expanding polynomial of degree  2 produced  0.2936
 RMSU=  4.25D-07    CP:  9.75D-01  1.78D+00  1.39D+00 -3.00D+00  2.33D+00
                    CP:  1.29D+00 -5.44D-05  5.87D-01
 Iteration   4 EE= -3584.36838848274     Delta-E=       -0.013683579356 Grad=1.524D-01 Max rot=    0.4298 deg.
 Gradient too large for Newton-Raphson -- use scaled steepest descent instead.
 Alpha Gap=     0.184 HL deriv= 1.53D-05
     ILin= 1 X=0.000D+00 Y=-3.584368388483D+03 DE= 0.00D+00 F= -1.29D-02
 RMSU=  1.84D-05    CP:  9.73D-01  1.86D+00  1.72D+00 -3.00D+00  2.84D+00
                    CP:  1.87D+00  3.19D-04  1.04D+00  9.66D-01
     ILin= 2 X=6.000D-01 Y=-3.584373576810D+03 DE=-5.19D-03 F= -4.39D-03 OKLS=F
 RMSU=  8.04D-06    CP:  9.71D-01  1.97D+00  2.16D+00 -3.00D+00  3.00D+00
                    CP:  2.90D+00  4.13D-01  1.58D+00 -1.96D+00  2.18D+00
     ILin= 3 X=1.300D+00 Y=-3.584373169350D+03 DE=-4.78D-03 F=  5.55D-03
     An  expanding polynomial of degree  3 produced  0.9090
 RMSU=  9.54D-08    CP:  9.72D-01  1.91D+00  1.91D+00 -3.00D+00  3.00D+00
                    CP:  2.28D+00  9.91D-02  1.28D+00  5.87D-02  1.52D+00
                    CP:  2.41D-01
 Iteration   5 EE= -3584.37425458942     Delta-E=       -0.005866106676 Grad=2.165D-02 Max rot=    0.0258 deg.
 Gradient too large for Newton-Raphson -- use scaled steepest descent instead.
 Alpha Gap=     0.185 HL deriv= 4.80D-04
     ILin= 1 X=0.000D+00 Y=-3.584374254589D+03 DE= 0.00D+00 F= -8.15D-04
 RMSU=  9.78D-06    CP:  9.72D-01  1.93D+00  2.02D+00 -3.00D+00  3.00D+00
                    CP:  2.55D+00  1.69D-01  1.37D+00 -1.24D+00  1.72D+00
                    CP:  3.94D-01 -3.00D+00
     ILin= 2 X=5.000D-01 Y=-3.584374463633D+03 DE=-2.09D-04 F= -2.15D-05 OKLS=T
     Reject lnstep IMin12=  1  2 Big=T Turn=F Min= 6.149D-01 FVal=-3.584374467062D+03 Lims=  0.00D+00  5.00D-01
 RMSU=  3.55D-07    CP:  9.72D-01  1.95D+00  2.14D+00 -3.00D+00  3.00D+00
                    CP:  2.83D+00  2.40D-01  1.45D+00 -2.65D+00  1.92D+00
                    CP:  5.48D-01 -3.00D+00  2.00D+00
     ILin= 3 X=1.000D+00 Y=-3.584374276064D+03 DE=-2.15D-05 F=  7.72D-04
     An  expanding polynomial of degree  3 produced  0.5135
     Minimum is close to point  2 DX=  1.35D-02 DF= -1.45D-07 DXR=  2.64D-02 DFR=  6.95D-04 which will be used.
 Iteration   6 EE= -3584.37446363293     Delta-E=       -0.000209043515 Grad=8.222D-03 Max rot=    0.0082 deg.
 SCF Done:  E(RPBE1PBE) =  -3584.37446363     a.u. after    6 cycles
            Convg  =    0.8222D-02                    14 Fock formations.
              S**2 =  0.0000                  -V/T =  2.0048
 Leave Link  508 at Mon Oct 18 15:05:49 2021, MaxMem=  7864320000 cpu:          335474.9 elap:           10667.3
 (Enter /apps/gaussian/g16-c01-avx/g16/l502.exe)
 Integral symmetry usage will be decided dynamically.
 Closed shell SCF:
 Using DIIS extrapolation, IDIIS=  1040.
 NGot=  7864320000 LenX=  7834481618 LenY=  7819639862
 Requested convergence on RMS density matrix=1.00D-08 within 128 cycles.
 Requested convergence on MAX density matrix=1.00D-06.
 Requested convergence on             energy=1.00D-06.
 No special actions if energy rises.
 Fock matrices will be formed incrementally for  20 cycles.

 Cycle   1  Pass 1  IDiag  1:
 FoFJK:  IHMeth= 1 ICntrl=       0 DoSepK=F KAlg= 0 I1Cent=           0 FoldK=F
 IRaf= 520000000 NMat=       1 IRICut=       1 DoRegI=T DoRafI=F ISym2E= 0 IDoP0=0 IntGTp=1.
 FoFCou: FMM=T IPFlag=           0 FMFlag=      100000 FMFlg1=        2001
         NFxFlg=           0 DoJE=F BraDBF=F KetDBF=F FulRan=T
         wScrn=  0.000000 ICntrl=         0 IOpCl=  0 I1Cent=           0 NGrid=           0
         NMat0=    1 NMatS0=      1 NMatT0=    0 NMatD0=    1 NMtDS0=    0 NMtDT0=    0
 Symmetry not used in FoFCou.
 FMM levels:  10  Number of levels for PrismC:   9
 E= -3584.37446363281    
 DIIS: error= 3.07D-05 at cycle   1 NSaved=   1.
 NSaved= 1 IEnMin= 1 EnMin= -3584.37446363281     IErMin= 1 ErrMin= 3.07D-05
 ErrMax= 3.07D-05  0.00D+00 EMaxC= 1.00D-01 BMatC= 3.38D-05 BMatP= 3.38D-05
 IDIUse=1 WtCom= 1.00D+00 WtEn= 0.00D+00
 Coeff-Com:  0.100D+01
 Coeff:      0.100D+01
 Gap=     0.185 Goal=   None    Shift=    0.000
 RMSDP=1.75D-05 MaxDP=4.12D-03              OVMax= 1.11D-03

 Cycle   2  Pass 1  IDiag  1:
 RMSU=  1.73D-05    CP:  1.00D+00
 E= -3584.37448811862     Delta-E=       -0.000024485817 Rises=F Damp=F
 DIIS: error= 2.91D-05 at cycle   2 NSaved=   2.
 NSaved= 2 IEnMin= 2 EnMin= -3584.37448811862     IErMin= 2 ErrMin= 2.91D-05
 ErrMax= 2.91D-05  0.00D+00 EMaxC= 1.00D-01 BMatC= 1.37D-05 BMatP= 3.38D-05
 IDIUse=1 WtCom= 1.00D+00 WtEn= 0.00D+00
 Coeff-Com:  0.340D+00 0.660D+00
 Coeff:      0.340D+00 0.660D+00
 Gap=     0.174 Goal=   None    Shift=    0.000
 RMSDP=2.80D-06 MaxDP=8.69D-04 DE=-2.45D-05 OVMax= 9.61D-04

 Cycle   3  Pass 1  IDiag  1:
 RMSU=  2.72D-06    CP:  1.00D+00  1.04D+00
 E= -3584.37449356647     Delta-E=       -0.000005447841 Rises=F Damp=F
 DIIS: error= 1.97D-05 at cycle   3 NSaved=   3.
 NSaved= 3 IEnMin= 3 EnMin= -3584.37449356647     IErMin= 3 ErrMin= 1.97D-05
 ErrMax= 1.97D-05  0.00D+00 EMaxC= 1.00D-01 BMatC= 7.68D-06 BMatP= 1.37D-05
 IDIUse=1 WtCom= 1.00D+00 WtEn= 0.00D+00
 Coeff-Com:  0.207D-02 0.426D+00 0.572D+00
 Coeff:      0.207D-02 0.426D+00 0.572D+00
 Gap=     0.174 Goal=   None    Shift=    0.000
 RMSDP=1.54D-06 MaxDP=5.47D-04 DE=-5.45D-06 OVMax= 5.11D-04

 Cycle   4  Pass 1  IDiag  1:
 RMSU=  7.53D-07    CP:  1.00D+00  1.06D+00  5.27D-01
 E= -3584.37450004306     Delta-E=       -0.000006476595 Rises=F Damp=F
 DIIS: error= 6.99D-06 at cycle   4 NSaved=   4.
 NSaved= 4 IEnMin= 4 EnMin= -3584.37450004306     IErMin= 4 ErrMin= 6.99D-06
 ErrMax= 6.99D-06  0.00D+00 EMaxC= 1.00D-01 BMatC= 7.34D-07 BMatP= 7.68D-06
 IDIUse=1 WtCom= 1.00D+00 WtEn= 0.00D+00
 Coeff-Com: -0.136D-01 0.245D+00 0.371D+00 0.398D+00
 Coeff:     -0.136D-01 0.245D+00 0.371D+00 0.398D+00
 Gap=     0.174 Goal=   None    Shift=    0.000
 RMSDP=4.12D-07 MaxDP=1.42D-04 DE=-6.48D-06 OVMax= 1.16D-04

 Cycle   5  Pass 1  IDiag  1:
 RMSU=  2.13D-07    CP:  1.00D+00  1.07D+00  5.90D-01  7.02D-01
 E= -3584.37450068748     Delta-E=       -0.000000644417 Rises=F Damp=F
 DIIS: error= 1.06D-06 at cycle   5 NSaved=   5.
 NSaved= 5 IEnMin= 5 EnMin= -3584.37450068748     IErMin= 5 ErrMin= 1.06D-06
 ErrMax= 1.06D-06  0.00D+00 EMaxC= 1.00D-01 BMatC= 1.10D-08 BMatP= 7.34D-07
 IDIUse=1 WtCom= 1.00D+00 WtEn= 0.00D+00
 Coeff-Com: -0.522D-02 0.361D-01 0.661D-01 0.136D+00 0.767D+00
 Coeff:     -0.522D-02 0.361D-01 0.661D-01 0.136D+00 0.767D+00
 Gap=     0.174 Goal=   None    Shift=    0.000
 RMSDP=7.42D-08 MaxDP=1.73D-05 DE=-6.44D-07 OVMax= 1.53D-05

 Cycle   6  Pass 1  IDiag  1:
 RMSU=  5.35D-08    CP:  1.00D+00  1.07D+00  5.88D-01  7.66D-01  1.02D+00
 E= -3584.37450069536     Delta-E=       -0.000000007880 Rises=F Damp=F
 DIIS: error= 4.20D-07 at cycle   6 NSaved=   6.
 NSaved= 6 IEnMin= 6 EnMin= -3584.37450069536     IErMin= 6 ErrMin= 4.20D-07
 ErrMax= 4.20D-07  0.00D+00 EMaxC= 1.00D-01 BMatC= 2.51D-09 BMatP= 1.10D-08
 IDIUse=1 WtCom= 1.00D+00 WtEn= 0.00D+00
 Coeff-Com: -0.221D-02 0.820D-02 0.189D-01 0.562D-01 0.431D+00 0.487D+00
 Coeff:     -0.221D-02 0.820D-02 0.189D-01 0.562D-01 0.431D+00 0.487D+00
 Gap=     0.174 Goal=   None    Shift=    0.000
 RMSDP=2.56D-08 MaxDP=9.98D-06 DE=-7.88D-09 OVMax= 9.43D-06

 Cycle   7  Pass 1  IDiag  1:
 RMSU=  1.85D-08    CP:  1.00D+00  1.07D+00  5.88D-01  7.70D-01  1.02D+00
                    CP:  7.64D-01
 E= -3584.37450069772     Delta-E=       -0.000000002365 Rises=F Damp=F
 DIIS: error= 1.60D-07 at cycle   7 NSaved=   7.
 NSaved= 7 IEnMin= 7 EnMin= -3584.37450069772     IErMin= 7 ErrMin= 1.60D-07
 ErrMax= 1.60D-07  0.00D+00 EMaxC= 1.00D-01 BMatC= 2.65D-10 BMatP= 2.51D-09
 IDIUse=1 WtCom= 1.00D+00 WtEn= 0.00D+00
 Coeff-Com: -0.334D-03-0.131D-02-0.313D-03 0.811D-02 0.109D+00 0.268D+00
 Coeff-Com:  0.617D+00
 Coeff:     -0.334D-03-0.131D-02-0.313D-03 0.811D-02 0.109D+00 0.268D+00
 Coeff:      0.617D+00
 Gap=     0.174 Goal=   None    Shift=    0.000
 RMSDP=1.16D-08 MaxDP=4.83D-06 DE=-2.36D-09 OVMax= 3.51D-06

 Cycle   8  Pass 1  IDiag  1:
 RMSU=  6.79D-09    CP:  1.00D+00  1.07D+00  5.87D-01  7.77D-01  1.04D+00
                    CP:  8.52D-01  8.02D-01
 E= -3584.37450069824     Delta-E=       -0.000000000513 Rises=F Damp=F
 DIIS: error= 4.74D-08 at cycle   8 NSaved=   8.
 NSaved= 8 IEnMin= 8 EnMin= -3584.37450069824     IErMin= 8 ErrMin= 4.74D-08
 ErrMax= 4.74D-08  0.00D+00 EMaxC= 1.00D-01 BMatC= 4.97D-11 BMatP= 2.65D-10
 IDIUse=1 WtCom= 1.00D+00 WtEn= 0.00D+00
 Coeff-Com:  0.932D-04-0.202D-02-0.288D-02-0.284D-02 0.869D-02 0.963D-01
 Coeff-Com:  0.371D+00 0.532D+00
 Coeff:      0.932D-04-0.202D-02-0.288D-02-0.284D-02 0.869D-02 0.963D-01
 Coeff:      0.371D+00 0.532D+00
 Gap=     0.174 Goal=   None    Shift=    0.000
 RMSDP=3.07D-09 MaxDP=1.22D-06 DE=-5.13D-10 OVMax= 1.05D-06

 Cycle   9  Pass 1  IDiag  1:
 RMSU=  2.37D-09    CP:  1.00D+00  1.07D+00  5.88D-01  7.78D-01  1.04D+00
                    CP:  8.51D-01  8.54D-01  8.30D-01
 E= -3584.37450069729     Delta-E=        0.000000000946 Rises=F Damp=F
 DIIS: error= 1.74D-08 at cycle   9 NSaved=   9.
 NSaved= 9 IEnMin= 8 EnMin= -3584.37450069824     IErMin= 9 ErrMin= 1.74D-08
 ErrMax= 1.74D-08  0.00D+00 EMaxC= 1.00D-01 BMatC= 2.05D-12 BMatP= 4.97D-11
 IDIUse=1 WtCom= 1.00D+00 WtEn= 0.00D+00
 Coeff-Com:  0.610D-04-0.676D-03-0.108D-02-0.189D-02-0.618D-02 0.155D-01
 Coeff-Com:  0.100D+00 0.224D+00 0.670D+00
 Coeff:      0.610D-04-0.676D-03-0.108D-02-0.189D-02-0.618D-02 0.155D-01
 Coeff:      0.100D+00 0.224D+00 0.670D+00
 Gap=     0.174 Goal=   None    Shift=    0.000
 RMSDP=1.13D-09 MaxDP=3.11D-07 DE= 9.46D-10 OVMax= 4.85D-07

 Error on total polarization charges =  0.03195
 SCF Done:  E(RPBE1PBE) =  -3584.37450070     A.U. after    9 cycles
            NFock=  9  Conv=0.11D-08     -V/T= 2.0048
 KE= 3.567193667954D+03 PE=-4.281472204932D+04 EE= 1.841700836380D+04
 Leave Link  502 at Mon Oct 18 16:55:23 2021, MaxMem=  7864320000 cpu:          207315.3 elap:            6573.1
 (Enter /apps/gaussian/g16-c01-avx/g16/l508.exe)
 QCSCF skips out because SCF is already converged.
 Leave Link  508 at Mon Oct 18 16:55:23 2021, MaxMem=  7864320000 cpu:               0.2 elap:               0.1
 (Enter /apps/gaussian/g16-c01-avx/g16/l601.exe)
 Copying SCF densities to generalized density rwf, IOpCl= 0 IROHF=0.
 Hyperfine terms turned off by default for NAtoms > 100.

 **********************************************************************

            Population analysis using the SCF Density.

 **********************************************************************

 Orbital symmetries:
       Occupied  (A) (A) (A) (A) (A) (A) (A) (A) (A) (A) (A) (A)
                 (A) (A) (A) (A) (A) (A) (A) (A) (A) (A) (A) (A)
                 (A) (A) (A) (A) (A) (A) (A) (A) (A) (A) (A) (A)
                 (A) (A) (A) (A) (A) (A) (A) (A) (A) (A) (A) (A)
                 (A) (A) (A) (A) (A) (A) (A) (A) (A) (A) (A) (A)
                 (A) (A) (A) (A) (A) (A) (A) (A) (A) (A) (A) (A)
                 (A) (A) (A) (A) (A) (A) (A) (A) (A) (A) (A) (A)
                 (A) (A) (A) (A) (A) (A) (A) (A) (A) (A) (A) (A)
                 (A) (A) (A) (A) (A) (A) (A) (A) (A) (A) (A) (A)
                 (A) (A) (A) (A) (A) (A) (A) (A) (A) (A) (A) (A)
                 (A) (A) (A) (A) (A) (A) (A) (A) (A) (A) (A) (A)
                 (A) (A) (A) (A) (A) (A) (A) (A) (A) (A) (A) (A)
                 (A) (A) (A) (A) (A) (A) (A) (A) (A) (A) (A) (A)
                 (A) (A) (A) (A) (A) (A) (A) (A) (A) (A) (A) (A)
                 (A) (A) (A) (A) (A) (A) (A) (A) (A) (A) (A) (A)
                 (A) (A) (A) (A) (A) (A) (A) (A) (A) (A) (A) (A)
                 (A) (A) (A) (A) (A) (A) (A) (A) (A) (A) (A) (A)
                 (A) (A) (A) (A) (A) (A) (A) (A) (A) (A) (A) (A)
                 (A) (A) (A) (A) (A) (A) (A) (A) (A) (A) (A) (A)
                 (A) (A) (A) (A) (A) (A) (A) (A) (A) (A) (A) (A)
                 (A) (A) (A) (A) (A) (A) (A) (A) (A) (A) (A) (A)
                 (A) (A) (A) (A) (A) (A) (A) (A) (A) (A) (A) (A)
                 (A) (A) (A) (A) (A) (A) (A) (A) (A) (A) (A) (A)
                 (A) (A) (A) (A) (A) (A) (A) (A) (A) (A) (A) (A)
                 (A) (A) (A) (A) (A) (A) (A) (A) (A) (A) (A) (A)
                 (A) (A) (A) (A) (A) (A) (A) (A) (A) (A) (A) (A)
                 (A) (A) (A) (A) (A) (A) (A) (A) (A) (A) (A) (A)
                 (A) (A) (A)
       Virtual   (A) (A) (A) (A) (A) (A) (A) (A) (A) (A) (A) (A)
                 (A) (A) (A) (A) (A) (A) (A) (A) (A) (A) (A) (A)
                 (A) (A) (A) (A) (A) (A) (A) (A) (A) (A) (A) (A)
                 (A) (A) (A) (A) (A) (A) (A) (A) (A) (A) (A) (A)
                 (A) (A) (A) (A) (A) (A) (A) (A) (A) (A) (A) (A)
                 (A) (A) (A) (A) (A) (A) (A) (A) (A) (A) (A) (A)
                 (A) (A) (A) (A) (A) (A) (A) (A) (A) (A) (A) (A)
                 (A) (A) (A) (A) (A) (A) (A) (A) (A) (A) (A) (A)
                 (A) (A) (A) (A) (A) (A) (A) (A) (A) (A) (A) (A)
                 (A) (A) (A) (A) (A) (A) (A) (A) (A) (A) (A) (A)
                 (A) (A) (A) (A) (A) (A) (A) (A) (A) (A) (A) (A)
                 (A) (A) (A) (A) (A) (A) (A) (A) (A) (A) (A) (A)
                 (A) (A) (A) (A) (A) (A) (A) (A) (A) (A) (A) (A)
                 (A) (A) (A) (A) (A) (A) (A) (A) (A) (A) (A) (A)
                 (A) (A) (A) (A) (A) (A) (A) (A) (A) (A) (A) (A)
                 (A) (A) (A) (A) (A) (A) (A) (A) (A) (A) (A) (A)
                 (A) (A) (A) (A) (A) (A) (A) (A) (A) (A) (A) (A)
                 (A) (A) (A) (A) (A) (A) (A) (A) (A) (A) (A) (A)
                 (A) (A) (A) (A) (A) (A) (A) (A) (A) (A) (A) (A)
                 (A) (A) (A) (A) (A) (A) (A) (A) (A) (A) (A) (A)
                 (A) (A) (A) (A) (A) (A) (A) (A) (A) (A) (A) (A)
                 (A) (A) (A) (A) (A) (A) (A) (A) (A) (A) (A) (A)
                 (A) (A) (A) (A) (A) (A) (A) (A) (A) (A) (A) (A)
                 (A) (A) (A) (A) (A) (A) (A) (A) (A) (A) (A) (A)
                 (A) (A) (A) (A) (A) (A) (A) (A) (A) (A) (A) (A)
                 (A) (A) (A) (A) (A) (A) (A) (A) (A) (A) (A) (A)
                 (A) (A) (A) (A) (A) (A) (A) (A) (A) (A) (A) (A)
                 (A) (A) (A) (A) (A) (A) (A) (A) (A) (A) (A) (A)
                 (A) (A) (A) (A) (A) (A) (A) (A) (A) (A) (A) (A)
                 (A) (A) (A) (A) (A) (A) (A) (A) (A) (A) (A) (A)
                 (A) (A) (A) (A) (A) (A) (A) (A) (A) (A) (A) (A)
                 (A) (A) (A) (A) (A) (A) (A) (A) (A) (A) (A) (A)
                 (A) (A) (A) (A) (A) (A) (A) (A) (A) (A) (A) (A)
                 (A) (A) (A) (A) (A) (A) (A) (A) (A) (A) (A) (A)
                 (A) (A) (A) (A) (A) (A) (A) (A) (A) (A) (A) (A)
                 (A) (A) (A) (A) (A) (A) (A) (A) (A) (A) (A) (A)
                 (A) (A) (A) (A) (A) (A) (A) (A) (A) (A) (A) (A)
                 (A) (A) (A) (A) (A) (A) (A) (A) (A) (A) (A) (A)
                 (A) (A) (A) (A) (A) (A) (A) (A) (A) (A) (A) (A)
                 (A) (A) (A) (A) (A) (A) (A) (A) (A) (A) (A) (A)
                 (A) (A) (A) (A) (A) (A) (A) (A) (A) (A) (A) (A)
                 (A) (A) (A) (A) (A) (A) (A) (A) (A) (A) (A) (A)
                 (A) (A) (A) (A) (A) (A) (A) (A) (A) (A) (A) (A)
                 (A) (A) (A) (A) (A) (A) (A) (A) (A) (A) (A) (A)
                 (A) (A) (A) (A) (A) (A) (A) (A) (A) (A) (A) (A)
                 (A) (A) (A) (A) (A) (A) (A) (A) (A) (A) (A) (A)
                 (A) (A) (A) (A) (A) (A) (A) (A) (A) (A) (A) (A)
                 (A) (A) (A) (A) (A) (A) (A) (A) (A) (A) (A) (A)
                 (A) (A) (A) (A) (A) (A) (A) (A) (A) (A) (A) (A)
                 (A) (A) (A) (A) (A) (A) (A) (A) (A) (A) (A) (A)
                 (A) (A) (A) (A) (A) (A) (A) (A) (A) (A) (A) (A)
                 (A) (A) (A) (A) (A) (A) (A) (A) (A) (A) (A) (A)
                 (A) (A) (A) (A) (A) (A) (A) (A) (A) (A) (A) (A)
                 (A) (A) (A) (A) (A) (A) (A) (A) (A) (A) (A) (A)
                 (A) (A) (A) (A) (A) (A) (A) (A) (A) (A) (A) (A)
                 (A) (A) (A) (A) (A) (A) (A) (A) (A) (A) (A) (A)
                 (A) (A) (A) (A) (A) (A) (A) (A) (A) (A) (A) (A)
                 (A) (A) (A) (A) (A) (A) (A) (A) (A) (A) (A) (A)
                 (A) (A) (A) (A) (A) (A) (A) (A) (A) (A) (A) (A)
                 (A) (A) (A) (A) (A) (A) (A) (A) (A) (A) (A) (A)
                 (A) (A) (A) (A) (A) (A) (A) (A) (A) (A) (A) (A)
                 (A) (A) (A) (A) (A) (A) (A) (A) (A) (A) (A) (A)
                 (A) (A) (A) (A) (A) (A) (A) (A) (A) (A) (A) (A)
                 (A) (A) (A) (A) (A) (A) (A) (A) (A) (A) (A) (A)
                 (A) (A) (A) (A) (A) (A) (A) (A) (A) (A) (A) (A)
                 (A) (A) (A) (A) (A) (A) (A) (A) (A) (A) (A) (A)
                 (A) (A) (A) (A) (A) (A) (A) (A) (A) (A) (A) (A)
                 (A) (A) (A) (A) (A) (A) (A) (A) (A) (A) (A) (A)
                 (A) (A) (A) (A) (A) (A) (A) (A) (A) (A) (A) (A)
                 (A) (A) (A) (A) (A) (A) (A) (A) (A) (A) (A) (A)
                 (A) (A) (A) (A) (A) (A) (A) (A) (A) (A) (A) (A)
                 (A) (A) (A) (A) (A) (A) (A) (A) (A) (A) (A) (A)
                 (A) (A) (A) (A) (A) (A) (A) (A) (A) (A) (A) (A)
                 (A) (A) (A) (A) (A) (A) (A) (A) (A) (A) (A) (A)
                 (A) (A) (A) (A) (A) (A) (A) (A) (A) (A) (A) (A)
                 (A) (A) (A) (A) (A) (A) (A) (A) (A) (A) (A) (A)
                 (A) (A) (A) (A) (A) (A) (A) (A) (A) (A) (A) (A)
                 (A) (A) (A) (A) (A) (A) (A) (A) (A) (A) (A) (A)
                 (A) (A) (A) (A) (A) (A) (A) (A) (A) (A) (A) (A)
                 (A) (A) (A) (A) (A) (A) (A) (A) (A) (A) (A) (A)
                 (A) (A) (A) (A) (A) (A) (A) (A) (A) (A) (A) (A)
                 (A) (A) (A) (A) (A) (A) (A) (A) (A) (A) (A) (A)
                 (A) (A) (A) (A) (A) (A) (A) (A) (A) (A) (A) (A)
                 (A) (A) (A) (A) (A) (A) (A) (A) (A) (A) (A) (A)
[...]
 Alpha virt. eigenvalues --    4.71385   4.71588   4.72033   4.72563   4.73021
 Alpha virt. eigenvalues --    4.73287   4.73568   4.74326   4.74837   4.75251
 Alpha virt. eigenvalues --    4.75268   4.75787   4.76862   4.76905   4.77124
 Alpha virt. eigenvalues --    4.77153   4.77484   4.77573   4.78312   4.78540
 Alpha virt. eigenvalues --    4.79236   4.79422   4.79703   4.79930   4.80655
 Alpha virt. eigenvalues --    4.81161   4.81589   4.81695   4.82348   4.82600
 Alpha virt. eigenvalues --    4.82953   4.83194   4.83476   4.84132   4.84519
 Alpha virt. eigenvalues --    4.85082   4.85572   4.85767   4.86226   4.86675
 Alpha virt. eigenvalues --    4.86794   4.87306   4.87841   4.88630   4.89744
 Alpha virt. eigenvalues --    4.90221   4.90422   4.90648   4.90789   4.91076
 Alpha virt. eigenvalues --    4.91232   4.91431   4.91727   4.92164   4.92317
 Alpha virt. eigenvalues --    4.92392   4.92586   4.92833   4.93307   4.93574
 Alpha virt. eigenvalues --    4.93725   4.93808   4.94186   4.94555   4.94908
 Alpha virt. eigenvalues --    4.95258   4.95612   4.95836   4.96099   4.96334
 Alpha virt. eigenvalues --    4.96726   4.96880   4.97161   4.97613   4.97672
 Alpha virt. eigenvalues --    4.97805   4.98490   4.98499   4.98847   4.98961
 Alpha virt. eigenvalues --    4.99091   4.99297   4.99783   5.00181   5.00343
 Alpha virt. eigenvalues --    5.01544   5.02260   5.02952   5.03518   5.03769
 Alpha virt. eigenvalues --    5.04128   5.04520   5.04899   5.05228   5.05412
 Alpha virt. eigenvalues --    5.05570   5.05800   5.05886   5.06725   5.07414
 Alpha virt. eigenvalues --    5.08123   5.10664   5.11414   5.11922   5.12259
 Alpha virt. eigenvalues --    5.13882   5.14167   5.14475   5.14917   5.15442
 Alpha virt. eigenvalues --    5.15784   5.16336   5.16660   5.16850   5.17531
 Alpha virt. eigenvalues --    5.18072   5.18337   5.18729   5.18980   5.19194
 Alpha virt. eigenvalues --    5.19558   5.20547   5.20903   5.21520   5.23589
 Alpha virt. eigenvalues --    5.23796   5.24922   5.25338   5.25598   5.26253
 Alpha virt. eigenvalues --    5.26667   5.27148   5.28190   5.28260   5.28578
 Alpha virt. eigenvalues --    5.29029   5.29502   5.29723   5.29778   5.30594
 Alpha virt. eigenvalues --    5.30694   5.31643   5.32072   5.33245   5.35244
 Alpha virt. eigenvalues --    5.36410   5.36588   5.36808   5.38585   5.38907
 Alpha virt. eigenvalues --    5.39379   5.39908   5.40433   5.40610   5.40786
 Alpha virt. eigenvalues --    5.41489   5.41748   5.41954   5.42343   5.43036
 Alpha virt. eigenvalues --    5.43144   5.43588   5.43826   5.44167   5.44233
 Alpha virt. eigenvalues --    5.44647   5.44757   5.45412   5.46456   5.47272
 Alpha virt. eigenvalues --    5.48048   5.48147   5.48745   5.48853   5.49161
 Alpha virt. eigenvalues --    5.49482   5.49724   5.50203   5.51404   5.51485
 Alpha virt. eigenvalues --    5.52014   5.52209   5.52808   5.53143   5.56204
 Alpha virt. eigenvalues --    5.56925   5.57171   5.58497   5.58857   5.59738
 Alpha virt. eigenvalues --    5.61001   5.61225   5.61745   5.64552   5.64811
 Alpha virt. eigenvalues --    5.66334   5.66867   5.67188   5.67667   5.70088
 Alpha virt. eigenvalues --    5.70984   5.71101   5.74289   5.75154   5.75920
 Alpha virt. eigenvalues --    5.76198   5.77140   5.77642   5.78506   5.79564
 Alpha virt. eigenvalues --    5.79657   5.82259   5.82373   5.82569   5.86478
 Alpha virt. eigenvalues --    5.87092   5.87446   5.91683   5.94927   5.96212
 Alpha virt. eigenvalues --    5.97131   5.97423   5.98163   6.01871   6.02059
 Alpha virt. eigenvalues --    6.02415   6.06869   6.07568   6.07966   6.10290
 Alpha virt. eigenvalues --    6.10749   6.11046   6.11556   6.11767   6.12540
 Alpha virt. eigenvalues --    6.13784   6.13926   6.14084  22.45900  22.47907
 Alpha virt. eigenvalues --   22.48778  22.49527  22.49867  22.50362  22.50491
 Alpha virt. eigenvalues --   22.50714  22.50840  22.50970  22.51292  22.51400
 Alpha virt. eigenvalues --   22.51636  22.51745  22.51879  22.52026  22.52817
 Alpha virt. eigenvalues --   22.52850  22.52904  22.54259  22.55528  22.56679
 Alpha virt. eigenvalues --   22.57947  22.58397  22.59702  22.60929  22.61609
 Alpha virt. eigenvalues --   22.72881  22.73046  22.73186  22.73979  22.75871
 Alpha virt. eigenvalues --   22.77209  22.77758  22.78534  22.79791  22.80138
 Alpha virt. eigenvalues --   22.80512  22.80823  22.83825  22.86490  22.87372
 Alpha virt. eigenvalues --   22.88208  22.88426  22.89658  22.91077  22.91540
 Alpha virt. eigenvalues --   22.92225  22.94450  22.95363  22.95781  22.96118
 Alpha virt. eigenvalues --   22.96573  22.97121  22.97471  22.98052  22.99625
 Alpha virt. eigenvalues --   23.06446  23.09518  23.09949  23.15676  23.15705
 Alpha virt. eigenvalues --   23.16727  23.16889  23.17442  23.17817  23.18787
 Alpha virt. eigenvalues --   23.18980  23.19187  23.24640  23.25021  23.25580
 Alpha virt. eigenvalues --   23.52954  23.53883  23.54904  32.19398  32.28327
 Alpha virt. eigenvalues --   32.31234  32.80502  32.81616  32.85264  32.91736
 Alpha virt. eigenvalues --   32.93639  32.94920  32.95419  32.96676  32.97055
          Condensed to atoms (all electrons):
 Mulliken charges:
               1
     1  C    0.423315
     2  C   -0.282225
     3  C   -0.372610
     4  C    0.413927
     5  H    0.135377
     6  C   -0.377559
     7  C    0.369360
     8  H    0.134555
     9  C   -0.355314
    10  C   -0.213301
    11  H    0.140850
    12  C   -0.190684
    13  H    0.103710
    14  H    0.116344
    15  H    0.091191
    16  C    0.427221
    17  C   -0.267353
    18  C   -0.375810
    19  C    0.417902
    20  H    0.136514
    21  C   -0.380253
    22  C    0.359716
    23  H    0.131986
    24  C   -0.359549
    25  C   -0.200520
    26  H    0.148960
    27  C   -0.194175
    28  H    0.105786
    29  H    0.097715
    30  H    0.090757
    31  C    0.438918
    32  C   -0.283987
    33  C   -0.373720
    34  C    0.410416
    35  H    0.151633
    36  C   -0.381457
    37  C    0.363382
    38  H    0.134052
    39  C   -0.344136
    40  C   -0.197663
    41  H    0.129346
    42  C   -0.189479
    43  H    0.105023
    44  H    0.108907
    45  H    0.091708
    46  C    0.069285
    47  C    0.087032
    48  N   -0.578374
    49  H    0.112337
    50  C   -0.052147
    51  N   -0.245384
    52  H    0.086628
    53  C    0.043549
    54  H    0.089787
    55  C   -0.401068
    56  C   -0.425858
    57  H    0.092195
    58  C   -0.419766
    59  C   -0.489019
    60  H    0.124890
    61  H    0.129431
    62  H    0.132057
    63  H    0.125944
    64  H    0.126273
    65  H    0.120969
    66  H    0.140889
    67  H    0.131304
    68  H    0.132300
    69  H    0.122363
    70  H    0.122149
    71  H    0.135044
    72  C    0.037854
    73  C    0.035762
    74  N   -0.511993
    75  H    0.094677
    76  C   -0.027044
    77  N   -0.229621
    78  H    0.074345
    79  C    0.077336
    80  H    0.073209
    81  C   -0.393194
    82  C   -0.391615
    83  H    0.084544
    84  C   -0.454675
    85  C   -0.488084
    86  H    0.122406
    87  H    0.137292
    88  H    0.110074
    89  H    0.116023
    90  H    0.128759
    91  H    0.126407
    92  H    0.138352
    93  H    0.129235
    94  H    0.132088
    95  H    0.126001
    96  H    0.147069
    97  H    0.128815
    98  C    0.102458
    99  C   -0.043084
   100  N   -0.559857
   101  H    0.113730
   102  C    0.061391
   103  N   -0.218722
   104  H    0.081773
   105  C   -0.005537
   106  H    0.069096
   107  C   -0.420321
   108  C   -0.451916
   109  H    0.073352
   110  C   -0.470853
   111  C   -0.403386
   112  H    0.119704
   113  H    0.130981
   114  H    0.129399
   115  H    0.131374
   116  H    0.126730
   117  H    0.123109
   118  H    0.126874
   119  H    0.137466
   120  H    0.131980
   121  H    0.123362
   122  H    0.132044
   123  H    0.149352
   124  C    0.085692
   125  C    0.110198
   126  N   -0.251996
   127  H    0.090046
   128  C   -0.022225
   129  N   -0.255852
   130  H    0.086455
   131  C   -0.011172
   132  H    0.092181
   133  C   -0.426110
   134  C   -0.397575
   135  H    0.090938
   136  C   -0.426926
   137  C   -0.400884
   138  H    0.126621
   139  H    0.120519
   140  H    0.130731
   141  H    0.129306
   142  H    0.132284
   143  H    0.125887
   144  H    0.127469
   145  H    0.120340
   146  H    0.129188
   147  H    0.125189
   148  H    0.128512
   149  H    0.132571
   150  C    0.105213
   151  C    0.085070
   152  N   -0.256532
   153  H    0.087408
   154  C   -0.003801
   155  N   -0.255752
   156  H    0.089975
   157  C   -0.016782
   158  H    0.089388
   159  C   -0.427992
   160  C   -0.403753
   161  H    0.090282
   162  C   -0.433207
   163  C   -0.397479
   164  H    0.126970
   165  H    0.120895
   166  H    0.128894
   167  H    0.132545
   168  H    0.124920
   169  H    0.128213
   170  H    0.130095
   171  H    0.126221
   172  H    0.120411
   173  H    0.139499
   174  H    0.125199
   175  H    0.128158
   176  C    0.088999
   177  C    0.097823
   178  N   -0.250587
   179  H    0.090458
   180  C   -0.023679
   181  N   -0.255278
   182  H    0.088141
   183  C   -0.008428
   184  H    0.092467
   185  C   -0.426704
   186  C   -0.396950
   187  H    0.091351
   188  C   -0.427211
   189  C   -0.402087
   190  H    0.130346
   191  H    0.126404
   192  H    0.120449
   193  H    0.126147
   194  H    0.129382
   195  H    0.133205
   196  H    0.127772
   197  H    0.120456
   198  H    0.129038
   199  H    0.128528
   200  H    0.133004
   201  H    0.125121
   202  H    0.238557
   203  H    0.226563
   204  H    0.229941
   205  H    0.227420
   206  H    0.224647
   207  H    0.223150
 Sum of Mulliken charges =  -0.00000
 Mulliken charges with hydrogens summed into heavy atoms:
               1
     1  C    0.423315
     2  C   -0.165881
     3  C   -0.237233
     4  C    0.413927
     6  C   -0.243004
     7  C    0.369360
     9  C   -0.214464
    10  C   -0.109592
    12  C   -0.099494
    16  C    0.427221
    17  C   -0.169638
    18  C   -0.239296
    19  C    0.417902
    21  C   -0.248268
    22  C    0.359716
    24  C   -0.210590
    25  C   -0.094734
    27  C   -0.103417
    31  C    0.438918
    32  C   -0.175080
    33  C   -0.222087
    34  C    0.410416
    36  C   -0.247405
    37  C    0.363382
    39  C   -0.214790
    40  C   -0.092640
    42  C   -0.097771
    46  C    0.181622
    47  C    0.173660
    48  N   -0.121013
    50  C    0.037640
    51  N   -0.245384
    53  C    0.135743
    55  C   -0.027882
    56  C   -0.039480
    58  C   -0.040210
    59  C   -0.084525
    72  C    0.132531
    73  C    0.110107
    74  N   -0.064196
    76  C    0.046165
    77  N   -0.229621
    79  C    0.161880
    81  C   -0.022006
    82  C   -0.021842
    84  C   -0.052789
    85  C   -0.088409
    98  C    0.216188
    99  C    0.038689
   100  N   -0.094737
   102  C    0.130487
   103  N   -0.218722
   105  C    0.067815
   107  C   -0.039108
   108  C   -0.071833
   110  C   -0.066095
   111  C   -0.007067
   124  C    0.175738
   125  C    0.196653
   126  N   -0.251996
   128  C    0.069956
   129  N   -0.255852
   131  C    0.079766
   133  C   -0.038633
   134  C   -0.019703
   136  C   -0.040654
   137  C   -0.023887
   150  C    0.192622
   151  C    0.175044
   152  N   -0.256532
   154  C    0.085587
   155  N   -0.255752
   157  C    0.073501
   159  C   -0.042313
   160  C   -0.026993
   162  C   -0.040352
   163  C   -0.020752
   176  C    0.179457
   177  C    0.185964
   178  N   -0.250587
   180  C    0.068788
   181  N   -0.255278
   183  C    0.082923
   185  C   -0.037969
   186  C   -0.019751
   188  C   -0.040558
   189  C   -0.024822
 Electronic spatial extent (au):  <R**2>=          93645.5550
 Charge=             -0.0000 electrons
 Dipole moment (field-independent basis, Debye):
    X=             -0.5607    Y=              2.4784    Z=             -0.2181  Tot=              2.5503
 Quadrupole moment (field-independent basis, Debye-Ang):
   XX=           -570.9695   YY=           -532.5729   ZZ=           -519.7064
   XY=            -11.1414   XZ=             10.7029   YZ=             -8.7963
 Traceless Quadrupole moment (field-independent basis, Debye-Ang):
   XX=            -29.8866   YY=              8.5100   ZZ=             21.3765
   XY=            -11.1414   XZ=             10.7029   YZ=             -8.7963
 Octapole moment (field-independent basis, Debye-Ang**2):
  XXX=            125.5248  YYY=             59.5519  ZZZ=             10.9276  XYY=            -49.8608
  XXY=            108.9673  XXZ=            128.9643  XZZ=            -43.3248  YZZ=              6.3127
  YYZ=             69.3177  XYZ=             12.9361
 Hexadecapole moment (field-independent basis, Debye-Ang**3):
 XXXX=         -48790.1324 YYYY=         -44487.1938 ZZZZ=         -36305.7650 XXXY=           -833.0235
 XXXZ=            538.5333 YYYX=            147.0723 YYYZ=           -141.3507 ZZZX=             29.6174
 ZZZY=            430.4001 XXYY=         -15554.3499 XXZZ=         -14395.1084 YYZZ=         -13596.1755
 XXYZ=           -613.7724 YYXZ=           -150.5606 ZZXY=           -155.2795
 N-N= 1.724614551688D+04 E-N=-4.281472207290D+04  KE= 3.567193667954D+03
 Leave Link  601 at Mon Oct 18 16:55:28 2021, MaxMem=  7864320000 cpu:             131.2 elap:               5.0
 (Enter /apps/gaussian/g16-c01-avx/g16/l9999.exe)
 Unable to Open any file for archive entry.
 1\1\GINC-CX3-5-0\SP\RPBE1PBE\def2TZVP\C75H120N12\ROOT\18-Oct-2021\0\\#
 P PBE1PBE/Def2TZVP SP SCF=(YQC,MaxCycle=900) int=(Grid=Superfinegrid) 
 EmpiricalDispersion=GD3 SCRF=(PCM,Solvent=Dichloromethane)\\_3_alde1_6
 _ami1_2_opt_dcm\\0,1\C,0,-1.2202,-0.1559,-3.184\C,0,-0.0295,0.0051,-4.
 008\C,0,-1.6376,-1.4241,-2.7909\C,0,-2.7747,-1.5864,-2.0053\H,0,-1.071
 2,-2.2891,-3.0939\C,0,-3.5133,-0.4679,-1.6346\C,0,-3.1246,0.8065,-2.04
 26\H,0,-4.4084,-0.5635,-1.0391\C,0,-1.9652,0.9565,-2.7986\C,0,-3.9233,
 1.9719,-1.6939\H,0,-1.6452,1.9459,-3.0952\C,0,-3.1767,-2.9172,-1.5681\
 H,0,-3.4759,2.9477,-1.9372\H,0,0.2009,1.0334,-4.3259\H,0,-3.8549,-2.95
 42,-0.7008\C,0,2.413,-2.1944,0.907\C,0,3.6827,-1.57,0.5646\C,0,1.8661,
 -2.0177,2.1738\C,0,0.6403,-2.586,2.506\H,0,2.3913,-1.4259,2.9051\C,0,-
 0.028,-3.3626,1.5659\C,0,0.52,-3.5735,0.3018\H,0,-0.9744,-3.8268,1.797
 7\C,0,1.7307,-2.9702,-0.0277\C,0,-0.1547,-4.427,-0.6653\H,0,2.1494,-3.
 1142,-1.0143\C,0,0.0628,-2.3374,3.8204\H,0,0.2615,-4.418,-1.6845\H,0,4
 .0488,-1.7494,-0.4578\H,0,-1.0163,-2.5337,3.9206\C,0,0.025,2.9845,0.98
 24\C,0,0.8372,3.7038,0.0114\C,0,-1.362,2.997,0.8724\C,0,-2.1576,2.3444
 ,1.8085\H,0,-1.829,3.5193,0.0544\C,0,-1.5552,1.6797,2.8702\C,0,-0.168,
 1.6744,3.0077\H,0,-2.1453,1.1742,3.6192\C,0,0.6162,2.3178,2.0538\C,0,0
 .4553,1.0264,4.1526\H,0,1.693,2.3092,2.1513\C,0,-3.6071,2.3622,1.659\H
 ,0,1.5539,0.9588,4.1273\H,0,1.9117,3.7809,0.24\H,0,-4.1604,1.5713,2.18
 94\C,0,1.4076,-1.4047,-6.5761\C,0,1.8137,-0.8245,-5.1972\N,0,0.4125,-0
 .4991,-7.1412\H,0,0.99,-2.4104,-6.3904\C,0,2.5805,-1.5503,-7.565\N,0,0
 .6779,-0.9838,-4.3411\H,0,2.0544,0.242,-5.3542\C,0,3.0156,-1.5211,-4.5
 293\H,0,3.3294,-2.2021,-7.1059\C,0,3.2148,-0.2007,-7.89\C,0,2.1179,-2.
 2336,-8.8539\H,0,3.8738,-1.457,-5.2042\C,0,2.7176,-2.9872,-4.2263\C,0,
 3.3797,-0.7799,-3.2431\H,0,1.4844,-1.5717,-9.439\H,0,1.5661,-3.1457,-8
 .6332\H,0,2.9797,-2.4967,-9.4633\H,0,3.9425,-0.3112,-8.6907\H,0,3.7221
 ,0.2131,-7.0226\H,0,2.443,0.4955,-8.2057\H,0,2.5517,-0.8105,-2.5375\H,
 0,3.6143,0.2621,-3.45\H,0,4.2531,-1.2389,-2.7835\H,0,1.7971,-3.0583,-3
 .6534\H,0,3.5323,-3.4261,-3.6528\H,0,2.6008,-3.5606,-5.142\C,0,6.6349,
 -0.6697,2.0945\C,0,5.546,-0.237,1.0605\N,0,6.1032,-1.1258,3.3663\H,0,7
 .2514,0.2107,2.3175\C,0,7.592,-1.7535,1.554\N,0,4.3115,-0.8667,1.399\H
 ,0,5.8789,-0.5176,0.045\C,0,5.3375,1.2962,1.0494\H,0,8.1632,-2.087,2.4
 271\C,0,8.5713,-1.1756,0.5343\C,0,6.8763,-2.9708,0.9708\H,0,6.3178,1.7
 513,0.865\C,0,4.7887,1.8155,2.3757\C,0,4.4039,1.6873,-0.0954\H,0,6.134
 ,-3.36,1.6633\H,0,7.598,-3.7597,0.7699\H,0,6.379,-2.7261,0.0353\H,0,8.
 0493,-0.803,-0.3446\H,0,9.2718,-1.9426,0.2117\H,0,9.138,-0.355,0.9683\
 H,0,3.4127,1.263,0.0561\H,0,4.7865,1.3274,-1.0485\H,0,4.3137,2.7703,-0
 .1512\H,0,4.5524,2.8753,2.2933\H,0,5.5161,1.6968,3.1748\H,0,3.8843,1.2
 706,2.6363\C,0,0.3474,6.3312,-2.2118\C,0,1.0991,4.9955,-1.9286\N,0,-0.
 9624,6.1273,-2.8006\H,0,0.9563,6.8865,-2.9342\C,0,0.1944,7.2651,-0.985
 3\N,0,0.3175,4.2347,-1.0083\H,0,2.1057,5.2214,-1.5345\C,0,1.2896,4.151
 9,-3.2147\H,0,-0.0866,8.2369,-1.4076\C,0,1.5079,7.4445,-0.2268\C,0,-0.
 9228,6.8565,-0.0268\H,0,0.301,3.8239,-3.5551\C,0,2.1192,2.9085,-2.8975
 \C,0,1.9737,4.9358,-4.3334\H,0,-0.9557,7.5543,0.8076\H,0,-0.7635,5.857
 2,0.366\H,0,-1.8831,6.8869,-0.5328\H,0,1.4189,8.2714,0.4743\H,0,2.3261
 ,7.6642,-0.91\H,0,1.7523,6.5503,0.3417\H,0,2.9037,5.3734,-3.9757\H,0,1
 .3432,5.7313,-4.7218\H,0,2.2076,4.2652,-5.1581\H,0,3.1076,3.193,-2.541
 4\H,0,2.2419,2.3043,-3.7938\H,0,1.6393,2.2958,-2.137\C,0,-3.1221,-5.25
 07,-1.6641\C,0,-1.7786,-5.9548,-1.3416\N,0,-2.7647,-3.9535,-2.1518\H,0
 ,-3.705,-5.176,-0.7293\C,0,-3.9766,-5.9807,-2.7199\N,0,-1.1356,-5.1505
 ,-0.3452\H,0,-1.1876,-5.9692,-2.2737\C,0,-1.9209,-7.3943,-0.8144\H,0,-
 4.1956,-6.9838,-2.3409\C,0,-3.2587,-6.0922,-4.0618\C,0,-5.3035,-5.2413
 ,-2.8938\H,0,-2.4221,-7.9915,-1.5826\C,0,-2.7277,-7.4527,0.4792\C,0,-0
 .527,-7.9812,-0.5902\H,0,-5.1308,-4.2439,-3.2922\H,0,-5.8224,-5.1483,-
 1.9416\H,0,-5.948,-5.7823,-3.583\H,0,-2.4051,-6.7617,-3.9966\H,0,-2.91
 21,-5.1108,-4.3738\H,0,-3.9387,-6.4826,-4.8159\H,0,-0.005,-7.4186,0.18
 06\H,0,0.061,-7.9404,-1.5051\H,0,-0.5997,-9.0195,-0.2746\H,0,-2.6878,-
 8.4556,0.8987\H,0,-3.7702,-7.1994,0.305\H,0,-2.3112,-6.7537,1.199\C,0,
 -5.773,3.0559,-0.7907\C,0,-5.5894,3.1994,0.7444\N,0,-5.0632,1.8685,-1.
 1656\H,0,-5.3153,3.9462,-1.2546\C,0,-7.2366,2.9444,-1.2517\N,0,-4.1753
 ,3.2368,0.9547\H,0,-6.0396,2.316,1.23\C,0,-6.2325,4.4704,1.3343\H,0,-7
 .7633,3.8524,-0.9416\C,0,-7.9347,1.7256,-0.6555\C,0,-7.2686,2.872,-2.7
 786\H,0,-7.3011,4.4486,1.0981\C,0,-5.6136,5.7445,0.766\C,0,-6.0825,4.4
 483,2.8556\H,0,-6.758,1.9738,-3.1187\H,0,-6.7744,3.7371,-3.2164\H,0,-8
 .2956,2.8458,-3.1357\H,0,-7.3346,0.8384,-0.837\H,0,-8.9104,1.5915,-1.1
 174\H,0,-8.0803,1.8398,0.4156\H,0,-6.5882,5.3045,3.2961\H,0,-5.0307,4.
 4889,3.1308\H,0,-6.5155,3.542,3.2748\H,0,-4.5327,5.7058,0.8708\H,0,-5.
 9889,6.6116,1.3051\H,0,-5.8605,5.8679,-0.285\C,0,0.172,-1.5785,6.0287\
 C,0,0.4317,-0.0596,6.2157\N,0,0.7677,-1.9087,4.7713\H,0,-0.9203,-1.739
 8,6.0064\C,0,0.7813,-2.4616,7.1355\N,0,-0.2237,0.596,5.1233\H,0,1.5239
 ,0.0896,6.1643\C,0,-0.0945,0.5204,7.5408\H,0,0.339,-2.1599,8.0901\C,0,
 2.2987,-2.32,7.2127\C,0,0.4023,-3.9203,6.8783\H,0,0.4082,0.0034,8.3641
 \C,0,-1.604,0.3483,7.6807\C,0,0.2736,2.0026,7.614\H,0,0.7641,-4.5513,7
 .6868\H,0,0.8438,-4.2653,5.9458\H,0,-0.6782,-4.0338,6.8122\H,0,2.7059,
 -3.0553,7.9033\H,0,2.5847,-1.332,7.5635\H,0,2.7329,-2.4828,6.2302\H,0,
 -0.2202,2.5492,6.8136\H,0,1.3486,2.1388,7.513\H,0,-0.0379,2.4235,8.567
 3\H,0,-1.8718,-0.6986,7.7971\H,0,-2.098,0.7417,6.7969\H,0,-1.9617,0.88
 92,8.5541\H,0,-1.4681,5.4573,-2.231\H,0,-0.8776,5.7392,-3.7331\H,0,0.0
 131,-0.9048,-7.9796\H,0,-0.3465,-0.3676,-6.4804\H,0,5.5317,-1.952,3.22
 16\H,0,5.4893,-0.4211,3.7575\\Version=ES64L-G16RevC.01\State=1-A\HF=-3
 584.3745007\RMSD=1.128e-09\Dipole=0.2423853,-0.4756367,-0.849585\Quadr
 upole=5.4924614,-7.2290648,1.7366034,13.175317,-17.2063215,7.4502102\P
 G=C01 [X(C75H120N12)]\\@
 The archive entry for this job was punched.


  THE LARGE PRINT GIVETH,
  AND THE SMALL PRINT TAKETH AWAY.

                     -- TOM WAITS
 Job cpu time:       6 days  8 hours 17 minutes 56.4 seconds.
 Elapsed time:       0 days  4 hours 50 minutes 15.3 seconds.
 File lengths (MBytes):  RWF=   8824 Int=      0 D2E=      0 Chk=    688 Scr=     16
 Normal termination of Gaussian 16 at Mon Oct 18 16:55:28 2021.
