 Entering Gaussian System, Link 0=g16
 Initial command:
 /apps/gaussian/g16-c01-avx/g16/l1.exe "/rds/general/ephemeral/user/atarzia/ephemeral/Gau-1123714.inp" -scrdir="/rds/general/ephemeral/user/atarzia/ephemeral/"
 Entering Link 1 = /apps/gaussian/g16-c01-avx/g16/l1.exe PID=   1123715.
  
 Copyright (c) 1988-2019, Gaussian, Inc.  All Rights Reserved.
  
 This is part of the Gaussian(R) 16 program.  It is based on
 the Gaussian(R) 09 system (copyright 2009, Gaussian, Inc.),
 the Gaussian(R) 03 system (copyright 2003, Gaussian, Inc.),
 the Gaussian(R) 98 system (copyright 1998, Gaussian, Inc.),
 the Gaussian(R) 94 system (copyright 1995, Gaussian, Inc.),
 the Gaussian 92(TM) system (copyright 1992, Gaussian, Inc.),
 the Gaussian 90(TM) system (copyright 1990, Gaussian, Inc.),
 the Gaussian 88(TM) system (copyright 1988, Gaussian, Inc.),
 the Gaussian 86(TM) system (copyright 1986, Carnegie Mellon
 University), and the Gaussian 82(TM) system (copyright 1983,
 Carnegie Mellon University). Gaussian is a federally registered
 trademark of Gaussian, Inc.
  
 This software contains proprietary and confidential information,
 including trade secrets, belonging to Gaussian, Inc.
  
 This software is provided under written license and may be
 used, copied, transmitted, or stored only in accord with that
 written license.
  
 The following legend is applicable only to US Government
 contracts under FAR:
  
                    RESTRICTED RIGHTS LEGEND
  
 Use, reproduction and disclosure by the US Government is
 subject to restrictions as set forth in subparagraphs (a)
 and (c) of the Commercial Computer Software - Restricted
 Rights clause in FAR 52.227-19.
  
 Gaussian, Inc.
 340 Quinnipiac St., Bldg. 40, Wallingford CT 06492
  
  
 ---------------------------------------------------------------
 Warning -- This program may not be used in any manner that
 competes with the business of Gaussian, Inc. or will provide
 assistance to any competitor of Gaussian, Inc.  The licensee
 of this program is prohibited from giving any competitor of
 Gaussian, Inc. access to this program.  By using this program,
 the user acknowledges that Gaussian, Inc. is engaged in the
 business of creating and licensing software in the field of
 computational chemistry and represents and warrants to the
 licensee that it is not a competitor of Gaussian, Inc. and that
 it will not use this program in any manner prohibited above.
 ---------------------------------------------------------------
  

 Cite this work as:
 Gaussian 16, Revision C.01,
 M. J. Frisch, G. W. Trucks, H. B. Schlegel, G. E. Scuseria, 
 M. A. Robb, J. R. Cheeseman, G. Scalmani, V. Barone, 
 G. A. Petersson, H. Nakatsuji, X. Li, M. Caricato, A. V. Marenich, 
 J. Bloino, B. G. Janesko, R. Gomperts, B. Mennucci, H. P. Hratchian, 
 J. V. Ortiz, A. F. Izmaylov, J. L. Sonnenberg, D. Williams-Young, 
 F. Ding, F. Lipparini, F. Egidi, J. Goings, B. Peng, A. Petrone, 
 T. Henderson, D. Ranasinghe, V. G. Zakrzewski, J. Gao, N. Rega, 
 G. Zheng, W. Liang, M. Hada, M. Ehara, K. Toyota, R. Fukuda, 
 J. Hasegawa, M. Ishida, T. Nakajima, Y. Honda, O. Kitao, H. Nakai, 
 T. Vreven, K. Throssell, J. A. Montgomery, Jr., J. E. Peralta, 
 F. Ogliaro, M. J. Bearpark, J. J. Heyd, E. N. Brothers, K. N. Kudin, 
 V. N. Staroverov, T. A. Keith, R. Kobayashi, J. Normand, 
 K. Raghavachari, A. P. Rendell, J. C. Burant, S. S. Iyengar, 
 J. Tomasi, M. Cossi, J. M. Millam, M. Klene, C. Adamo, R. Cammi, 
 J. W. Ochterski, R. L. Martin, K. Morokuma, O. Farkas, 
 J. B. Foresman, and D. J. Fox, Gaussian, Inc., Wallingford CT, 2019.
 
 ******************************************
 Gaussian 16:  ES64L-G16RevC.01  3-Jul-2019
                18-Oct-2021 
 ******************************************
 %chk=_3_alde1_6_ami3_1_opt_cfm.chk
 %mem=60000mb
 %nprocshared=32
 Will use up to   32 processors via shared memory.
 ----------------------------------------------------------------------
 #P PBE1PBE/Def2TZVP SP SCF=(YQC,MaxCycle=900) int=(Grid=Superfinegrid)
  EmpiricalDispersion=GD3 SCRF=(PCM,Solvent=Chloroform)
 ----------------------------------------------------------------------
 1/38=1,172=1/1;
 2/12=2,17=6,18=5,40=1/2;
 3/5=44,7=101,11=2,25=1,30=1,70=2201,72=7,74=-13,75=-7,124=31/1,2,3;
 4//1;
 5/5=2,7=900,8=4,13=1,38=1,53=7/8,2,8;
 6/7=2,8=2,9=2,10=2,28=1/1;
 99/5=1,9=1/99;
 Leave Link    1 at Mon Oct 18 08:44:11 2021, MaxMem=  7864320000 cpu:               6.1 elap:               0.2
 (Enter /apps/gaussian/g16-c01-avx/g16/l101.exe)
 -------------------------
 _3_alde1_6_ami3_1_opt_cfm
 -------------------------
 Symbolic Z-matrix:
 Charge =  0 Multiplicity = 1
 C                    -4.2028   -0.7465   -0.1872 
 C                    -5.0591   -0.3318    0.9818 
 C                    -3.216    -1.7105   -0.0464 
 C                    -2.4341   -2.0884   -1.1366 
 H                    -3.0927   -2.1904    0.9124 
 C                    -2.6132   -1.4456   -2.3589 
 C                    -3.6002   -0.4797   -2.5118 
 H                    -1.9939   -1.7442   -3.1907 
 C                    -4.4028   -0.1467   -1.4209 
 C                    -3.7822    0.1673   -3.8029 
 H                    -5.1826    0.5863   -1.5533 
 C                    -1.5067   -3.2056   -1.0244 
 H                    -2.9169    0.1095   -4.4827 
 H                    -1.3631   -3.6199   -0.014 
 C                     3.9293   -1.483     1.3463 
 C                     4.3869   -2.1332    2.6329 
 C                     4.2222   -0.1564    1.0618 
 C                     3.8592    0.404    -0.1615 
 H                     4.7533    0.4311    1.7959 
 C                     3.1735   -0.3679   -1.0946 
 C                     2.8464   -1.6884   -0.8061 
 H                     2.9001    0.0819   -2.0369 
 C                     3.2315   -2.2384    0.4175 
 C                     2.145    -2.513    -1.7806 
 H                     2.9834   -3.2686    0.6196 
 C                     4.2137    1.7877   -0.4515 
 H                     1.8726   -2.0232   -2.7275 
 H                     4.3612    2.4344    0.4287 
 C                    -1.2058    2.9168   -0.2001 
 C                    -1.3017    2.577     1.2662 
 C                    -2.3618    2.8905   -0.9691 
 C                    -2.3051    3.1238   -2.3413 
 H                    -3.3107    2.6735   -0.4989 
 C                    -1.0725    3.3618   -2.9448 
 C                     0.0842    3.4106   -2.1774 
 H                    -1.0445    3.5238   -4.0116 
 C                     0.0094    3.1944   -0.8004 
 C                     1.3793    3.637    -2.8038 
 H                     0.9113    3.2397   -0.2123 
 C                    -3.5327    3.076    -3.1151 
 H                     1.4388    3.3976   -3.8782 
 H                    -4.4472    2.9192   -2.5245 
 C                    -4.4854   -0.4939    3.2414 
 C                    -4.9474    0.9294    2.8857 
 N                    -4.9613   -1.2872    2.114 
 H                    -3.3867   -0.5125    3.2009 
 C                    -4.939    -0.8696    4.6374 
 N                    -4.6672    1.0013    1.4595 
 H                    -6.0411    0.9845    2.9981 
 C                    -4.3047    1.9463    3.8052 
 C                    -4.3295    0.1491    5.6059 
 C                    -4.7017    1.5893    5.2413 
 C                     6.523    -1.5501    3.2693 
 C                     6.4587   -3.0812    3.1357 
 N                     5.1282   -1.1864    3.4776 
 H                     6.8169   -1.1275    2.2977 
 C                     7.5414   -1.151     4.3165 
 N                     5.2603   -3.2963    2.3379 
 H                     6.2592   -3.5107    4.1298 
 C                     7.7788   -3.6191    2.6224 
 C                     8.8989   -1.7022    3.8676 
 C                     8.862    -3.2146    3.6279 
 C                     0.5195    1.6354    2.3718 
 C                    -0.6992    0.7078    2.509 
 N                    -0.0735    2.9127    2.0021 
 H                     1.1259    1.2954    1.5193 
 C                     1.3524    1.5759    3.6362 
 N                    -1.5684    1.1238    1.4172 
 H                    -1.2234    0.9658    3.4432 
 C                    -0.2505   -0.7362    2.5843 
 C                     1.7978    0.1233    3.83 
 C                     0.6268   -0.8643    3.8344 
 C                    -0.1626   -4.885    -1.9627 
 C                     1.2453   -4.5561   -2.5025 
 N                    -0.966    -3.7069   -2.0472 
 H                    -0.0581   -5.2511   -0.9254 
 C                    -0.8341   -5.9513   -2.836 
 N                     1.8996   -3.726    -1.5425 
 H                     1.1239   -4.0554   -3.4795 
 C                     2.0782   -5.8326   -2.6514 
 C                     0.0182   -7.208    -2.9485 
 C                     1.3826   -6.8614   -3.5322 
 C                    -4.9041    1.4584   -5.3707 
 C                    -4.8128    2.9736   -5.0342 
 N                    -4.8534    0.7466   -4.1348 
 H                    -4.0467    1.2102   -6.0231 
 C                    -6.2174    1.181    -6.0986 
 N                    -3.5632    3.1895   -4.3739 
 H                    -5.667     3.2084   -4.3757 
 C                    -4.8944    3.7895   -6.3204 
 C                    -6.3118    2.0096   -7.375 
 C                    -6.1951    3.4981   -7.0606 
 C                     4.6982    3.5825   -1.8472 
 C                     3.6423    4.1925   -2.787 
 N                     4.3654    2.2085   -1.6291 
 H                     4.6872    4.154    -0.9011 
 C                     6.0797    3.6961   -2.4954 
 N                     2.3688    4.0615   -2.1503 
 H                     3.6711    3.6533   -3.7511 
 C                     3.9743    5.6676   -3.0273 
 C                     6.4184    5.1581   -2.7658 
 C                     5.3581    5.8034   -3.6535 
 H                     4.8863   -1.3288    4.4535 
 H                     3.5063   -2.501     3.1776 
 H                     5.4951   -3.3023    1.349 
 H                    -1.3001    0.6394    0.5628 
 H                    -0.2961    3.447     2.8352 
 H                    -2.1552    3.1204    1.6974 
 H                    -3.6568    1.1068    1.3373 
 H                    -5.8738   -1.68      2.319 
 H                    -6.1049   -0.2658    0.6419 
 H                    -0.4896   -7.9379   -3.5823 
 H                     0.1481   -7.6527   -1.9593 
 H                     2.0007   -7.7585   -3.6059 
 H                     1.2552   -6.4564   -4.5388 
 H                    -1.8102   -6.1872   -2.4065 
 H                    -1.       -5.5219   -3.8257 
 H                     3.0513   -5.5664   -3.0696 
 H                     2.2445   -6.2447   -1.6545 
 H                    -3.242     0.0437    5.5859 
 H                    -4.6656   -0.0633    6.6229 
 H                    -5.7813    1.7169    5.3507 
 H                    -4.2152    2.2742    5.9391 
 H                    -3.2206    1.9063    3.6909 
 H                    -4.6382    2.956     3.5599 
 H                    -4.6132   -1.8789    4.8965 
 H                    -6.0302   -0.8373    4.6972 
 H                    -6.2314    4.0783   -7.9849 
 H                    -7.0404    3.8038   -6.4395 
 H                    -4.828     4.8502   -6.0705 
 H                    -4.0371    3.5386   -6.9471 
 H                    -7.2613    1.8071   -7.8748 
 H                    -5.5067    1.7194   -8.0543 
 H                    -6.2735    0.1157   -6.3321 
 H                    -7.0439    1.4212   -5.4278 
 H                     3.2153    6.1005   -3.6827 
 H                     3.9349    6.1957   -2.073 
 H                     5.5912    6.8596   -3.8037 
 H                     5.3611    5.3169   -4.6318 
 H                     7.397     5.2261   -3.2458 
 H                     6.4719    5.6974   -1.8171 
 H                     6.8238    3.25     -1.8317 
 H                     6.0772    3.1277   -3.4271 
 H                     9.6542   -1.4765    4.6227 
 H                     9.1928   -1.2008    2.9425 
 H                     9.8381   -3.5446    3.2677 
 H                     8.6685   -3.7224    4.5758 
 H                     7.9968   -3.1908    1.6407 
 H                     7.7433   -4.7049    2.5213 
 H                     7.2648   -1.5751    5.2851 
 H                     7.5892   -0.0658    4.4205 
 H                     0.3218   -0.9976    1.6902 
 H                    -1.1067   -1.4101    2.6519 
 H                     2.3466    0.0334    4.7694 
 H                     2.4801   -0.1377    3.0212 
 H                     1.0179   -1.8811    3.9026 
 H                     0.0074   -0.6873    4.718 
 H                     0.7542    1.9085    4.4895 
 H                     2.2249    2.2259    3.5582 
 
 ITRead=  0  0  0  0  0  0  0  0  0  0  0  0  0  0  0  0  0  0  0  0
 ITRead=  0  0  0  0  0  0  0  0  0  0  0  0  0  0  0  0  0  0  0  0
 ITRead=  0  0  0  0  0  0  0  0  0  0  0  0  0  0  0  0  0  0  0  0
 ITRead=  0  0  0  0  0  0  0  0  0  0  0  0  0  0  0  0  0  0  0  0
 ITRead=  0  0  0  0  0  0  0  0  0  0  0  0  0  0  0  0  0  0  0  0
 ITRead=  0  0  0  0  0  0  0  0  0  0  0  0  0  0  0  0  0  0  0  0
 ITRead=  0  0  0  0  0  0  0  0  0  0  0  0  0  0  0  0  0  0  0  0
 ITRead=  0  0  0  0  0  0  0  0  0  0  0  0  0  0  0  0  0  0  0
 MicOpt= -1 -1 -1 -1 -1 -1 -1 -1 -1 -1 -1 -1 -1 -1 -1 -1 -1 -1 -1 -1
 MicOpt= -1 -1 -1 -1 -1 -1 -1 -1 -1 -1 -1 -1 -1 -1 -1 -1 -1 -1 -1 -1
 MicOpt= -1 -1 -1 -1 -1 -1 -1 -1 -1 -1 -1 -1 -1 -1 -1 -1 -1 -1 -1 -1
 MicOpt= -1 -1 -1 -1 -1 -1 -1 -1 -1 -1 -1 -1 -1 -1 -1 -1 -1 -1 -1 -1
 MicOpt= -1 -1 -1 -1 -1 -1 -1 -1 -1 -1 -1 -1 -1 -1 -1 -1 -1 -1 -1 -1
 MicOpt= -1 -1 -1 -1 -1 -1 -1 -1 -1 -1 -1 -1 -1 -1 -1 -1 -1 -1 -1 -1
 MicOpt= -1 -1 -1 -1 -1 -1 -1 -1 -1 -1 -1 -1 -1 -1 -1 -1 -1 -1 -1 -1
 MicOpt= -1 -1 -1 -1 -1 -1 -1 -1 -1 -1 -1 -1 -1 -1 -1 -1 -1 -1 -1
 NAtoms=    159 NQM=      159 NQMF=       0 NMMI=      0 NMMIF=      0
                NMic=       0 NMicF=      0.
                    Isotopes and Nuclear Properties:
 (Nuclear quadrupole moments (NQMom) in fm**2, nuclear magnetic moments (NMagM)
  in nuclear magnetons)

  Atom         1           2           3           4           5           6           7           8           9          10
 IAtWgt=          12          12          12          12           1          12          12           1          12          12
 AtmWgt=  12.0000000  12.0000000  12.0000000  12.0000000   1.0078250  12.0000000  12.0000000   1.0078250  12.0000000  12.0000000
 NucSpn=           0           0           0           0           1           0           0           1           0           0
 AtZEff=  -0.0000000  -0.0000000  -0.0000000  -0.0000000  -0.0000000  -0.0000000  -0.0000000  -0.0000000  -0.0000000  -0.0000000
 NQMom=    0.0000000   0.0000000   0.0000000   0.0000000   0.0000000   0.0000000   0.0000000   0.0000000   0.0000000   0.0000000
 NMagM=    0.0000000   0.0000000   0.0000000   0.0000000   2.7928460   0.0000000   0.0000000   2.7928460   0.0000000   0.0000000
 AtZNuc=   6.0000000   6.0000000   6.0000000   6.0000000   1.0000000   6.0000000   6.0000000   1.0000000   6.0000000   6.0000000

  Atom        11          12          13          14          15          16          17          18          19          20
 IAtWgt=           1          12           1           1          12          12          12          12           1          12
 AtmWgt=   1.0078250  12.0000000   1.0078250   1.0078250  12.0000000  12.0000000  12.0000000  12.0000000   1.0078250  12.0000000
 NucSpn=           1           0           1           1           0           0           0           0           1           0
 AtZEff=  -0.0000000  -0.0000000  -0.0000000  -0.0000000  -0.0000000  -0.0000000  -0.0000000  -0.0000000  -0.0000000  -0.0000000
 NQMom=    0.0000000   0.0000000   0.0000000   0.0000000   0.0000000   0.0000000   0.0000000   0.0000000   0.0000000   0.0000000
 NMagM=    2.7928460   0.0000000   2.7928460   2.7928460   0.0000000   0.0000000   0.0000000   0.0000000   2.7928460   0.0000000
 AtZNuc=   1.0000000   6.0000000   1.0000000   1.0000000   6.0000000   6.0000000   6.0000000   6.0000000   1.0000000   6.0000000

  Atom        21          22          23          24          25          26          27          28          29          30
 IAtWgt=          12           1          12          12           1          12           1           1          12          12
 AtmWgt=  12.0000000   1.0078250  12.0000000  12.0000000   1.0078250  12.0000000   1.0078250   1.0078250  12.0000000  12.0000000
 NucSpn=           0           1           0           0           1           0           1           1           0           0
 AtZEff=  -0.0000000  -0.0000000  -0.0000000  -0.0000000  -0.0000000  -0.0000000  -0.0000000  -0.0000000  -0.0000000  -0.0000000
 NQMom=    0.0000000   0.0000000   0.0000000   0.0000000   0.0000000   0.0000000   0.0000000   0.0000000   0.0000000   0.0000000
 NMagM=    0.0000000   2.7928460   0.0000000   0.0000000   2.7928460   0.0000000   2.7928460   2.7928460   0.0000000   0.0000000
 AtZNuc=   6.0000000   1.0000000   6.0000000   6.0000000   1.0000000   6.0000000   1.0000000   1.0000000   6.0000000   6.0000000

  Atom        31          32          33          34          35          36          37          38          39          40
 IAtWgt=          12          12           1          12          12           1          12          12           1          12
 AtmWgt=  12.0000000  12.0000000   1.0078250  12.0000000  12.0000000   1.0078250  12.0000000  12.0000000   1.0078250  12.0000000
 NucSpn=           0           0           1           0           0           1           0           0           1           0
 AtZEff=  -0.0000000  -0.0000000  -0.0000000  -0.0000000  -0.0000000  -0.0000000  -0.0000000  -0.0000000  -0.0000000  -0.0000000
 NQMom=    0.0000000   0.0000000   0.0000000   0.0000000   0.0000000   0.0000000   0.0000000   0.0000000   0.0000000   0.0000000
 NMagM=    0.0000000   0.0000000   2.7928460   0.0000000   0.0000000   2.7928460   0.0000000   0.0000000   2.7928460   0.0000000
 AtZNuc=   6.0000000   6.0000000   1.0000000   6.0000000   6.0000000   1.0000000   6.0000000   6.0000000   1.0000000   6.0000000

  Atom        41          42          43          44          45          46          47          48          49          50
 IAtWgt=           1           1          12          12          14           1          12          14           1          12
 AtmWgt=   1.0078250   1.0078250  12.0000000  12.0000000  14.0030740   1.0078250  12.0000000  14.0030740   1.0078250  12.0000000
 NucSpn=           1           1           0           0           2           1           0           2           1           0
 AtZEff=  -0.0000000  -0.0000000  -0.0000000  -0.0000000  -0.0000000  -0.0000000  -0.0000000  -0.0000000  -0.0000000  -0.0000000
 NQMom=    0.0000000   0.0000000   0.0000000   0.0000000   2.0440000   0.0000000   0.0000000   2.0440000   0.0000000   0.0000000
 NMagM=    2.7928460   2.7928460   0.0000000   0.0000000   0.4037610   2.7928460   0.0000000   0.4037610   2.7928460   0.0000000
 AtZNuc=   1.0000000   1.0000000   6.0000000   6.0000000   7.0000000   1.0000000   6.0000000   7.0000000   1.0000000   6.0000000

  Atom        51          52          53          54          55          56          57          58          59          60
 IAtWgt=          12          12          12          12          14           1          12          14           1          12
 AtmWgt=  12.0000000  12.0000000  12.0000000  12.0000000  14.0030740   1.0078250  12.0000000  14.0030740   1.0078250  12.0000000
 NucSpn=           0           0           0           0           2           1           0           2           1           0
 AtZEff=  -0.0000000  -0.0000000  -0.0000000  -0.0000000  -0.0000000  -0.0000000  -0.0000000  -0.0000000  -0.0000000  -0.0000000
 NQMom=    0.0000000   0.0000000   0.0000000   0.0000000   2.0440000   0.0000000   0.0000000   2.0440000   0.0000000   0.0000000
 NMagM=    0.0000000   0.0000000   0.0000000   0.0000000   0.4037610   2.7928460   0.0000000   0.4037610   2.7928460   0.0000000
 AtZNuc=   6.0000000   6.0000000   6.0000000   6.0000000   7.0000000   1.0000000   6.0000000   7.0000000   1.0000000   6.0000000

  Atom        61          62          63          64          65          66          67          68          69          70
 IAtWgt=          12          12          12          12          14           1          12          14           1          12
 AtmWgt=  12.0000000  12.0000000  12.0000000  12.0000000  14.0030740   1.0078250  12.0000000  14.0030740   1.0078250  12.0000000
 NucSpn=           0           0           0           0           2           1           0           2           1           0
 AtZEff=  -0.0000000  -0.0000000  -0.0000000  -0.0000000  -0.0000000  -0.0000000  -0.0000000  -0.0000000  -0.0000000  -0.0000000
 NQMom=    0.0000000   0.0000000   0.0000000   0.0000000   2.0440000   0.0000000   0.0000000   2.0440000   0.0000000   0.0000000
 NMagM=    0.0000000   0.0000000   0.0000000   0.0000000   0.4037610   2.7928460   0.0000000   0.4037610   2.7928460   0.0000000
 AtZNuc=   6.0000000   6.0000000   6.0000000   6.0000000   7.0000000   1.0000000   6.0000000   7.0000000   1.0000000   6.0000000

  Atom        71          72          73          74          75          76          77          78          79          80
 IAtWgt=          12          12          12          12          14           1          12          14           1          12
 AtmWgt=  12.0000000  12.0000000  12.0000000  12.0000000  14.0030740   1.0078250  12.0000000  14.0030740   1.0078250  12.0000000
 NucSpn=           0           0           0           0           2           1           0           2           1           0
 AtZEff=  -0.0000000  -0.0000000  -0.0000000  -0.0000000  -0.0000000  -0.0000000  -0.0000000  -0.0000000  -0.0000000  -0.0000000
 NQMom=    0.0000000   0.0000000   0.0000000   0.0000000   2.0440000   0.0000000   0.0000000   2.0440000   0.0000000   0.0000000
 NMagM=    0.0000000   0.0000000   0.0000000   0.0000000   0.4037610   2.7928460   0.0000000   0.4037610   2.7928460   0.0000000
 AtZNuc=   6.0000000   6.0000000   6.0000000   6.0000000   7.0000000   1.0000000   6.0000000   7.0000000   1.0000000   6.0000000

  Atom        81          82          83          84          85          86          87          88          89          90
 IAtWgt=          12          12          12          12          14           1          12          14           1          12
 AtmWgt=  12.0000000  12.0000000  12.0000000  12.0000000  14.0030740   1.0078250  12.0000000  14.0030740   1.0078250  12.0000000
 NucSpn=           0           0           0           0           2           1           0           2           1           0
 AtZEff=  -0.0000000  -0.0000000  -0.0000000  -0.0000000  -0.0000000  -0.0000000  -0.0000000  -0.0000000  -0.0000000  -0.0000000
 NQMom=    0.0000000   0.0000000   0.0000000   0.0000000   2.0440000   0.0000000   0.0000000   2.0440000   0.0000000   0.0000000
 NMagM=    0.0000000   0.0000000   0.0000000   0.0000000   0.4037610   2.7928460   0.0000000   0.4037610   2.7928460   0.0000000
 AtZNuc=   6.0000000   6.0000000   6.0000000   6.0000000   7.0000000   1.0000000   6.0000000   7.0000000   1.0000000   6.0000000

  Atom        91          92          93          94          95          96          97          98          99         100
 IAtWgt=          12          12          12          12          14           1          12          14           1          12
 AtmWgt=  12.0000000  12.0000000  12.0000000  12.0000000  14.0030740   1.0078250  12.0000000  14.0030740   1.0078250  12.0000000
 NucSpn=           0           0           0           0           2           1           0           2           1           0
 AtZEff=  -0.0000000  -0.0000000  -0.0000000  -0.0000000  -0.0000000  -0.0000000  -0.0000000  -0.0000000  -0.0000000  -0.0000000
 NQMom=    0.0000000   0.0000000   0.0000000   0.0000000   2.0440000   0.0000000   0.0000000   2.0440000   0.0000000   0.0000000
 NMagM=    0.0000000   0.0000000   0.0000000   0.0000000   0.4037610   2.7928460   0.0000000   0.4037610   2.7928460   0.0000000
 AtZNuc=   6.0000000   6.0000000   6.0000000   6.0000000   7.0000000   1.0000000   6.0000000   7.0000000   1.0000000   6.0000000

  Atom       101         102         103         104         105         106         107         108         109         110
 IAtWgt=          12          12           1           1           1           1           1           1           1           1
 AtmWgt=  12.0000000  12.0000000   1.0078250   1.0078250   1.0078250   1.0078250   1.0078250   1.0078250   1.0078250   1.0078250
 NucSpn=           0           0           1           1           1           1           1           1           1           1
 AtZEff=  -0.0000000  -0.0000000  -0.0000000  -0.0000000  -0.0000000  -0.0000000  -0.0000000  -0.0000000  -0.0000000  -0.0000000
 NQMom=    0.0000000   0.0000000   0.0000000   0.0000000   0.0000000   0.0000000   0.0000000   0.0000000   0.0000000   0.0000000
 NMagM=    0.0000000   0.0000000   2.7928460   2.7928460   2.7928460   2.7928460   2.7928460   2.7928460   2.7928460   2.7928460
 AtZNuc=   6.0000000   6.0000000   1.0000000   1.0000000   1.0000000   1.0000000   1.0000000   1.0000000   1.0000000   1.0000000

  Atom       111         112         113         114         115         116         117         118         119         120
 IAtWgt=           1           1           1           1           1           1           1           1           1           1
 AtmWgt=   1.0078250   1.0078250   1.0078250   1.0078250   1.0078250   1.0078250   1.0078250   1.0078250   1.0078250   1.0078250
 NucSpn=           1           1           1           1           1           1           1           1           1           1
 AtZEff=  -0.0000000  -0.0000000  -0.0000000  -0.0000000  -0.0000000  -0.0000000  -0.0000000  -0.0000000  -0.0000000  -0.0000000
 NQMom=    0.0000000   0.0000000   0.0000000   0.0000000   0.0000000   0.0000000   0.0000000   0.0000000   0.0000000   0.0000000
 NMagM=    2.7928460   2.7928460   2.7928460   2.7928460   2.7928460   2.7928460   2.7928460   2.7928460   2.7928460   2.7928460
 AtZNuc=   1.0000000   1.0000000   1.0000000   1.0000000   1.0000000   1.0000000   1.0000000   1.0000000   1.0000000   1.0000000

  Atom       121         122         123         124         125         126         127         128         129         130
 IAtWgt=           1           1           1           1           1           1           1           1           1           1
 AtmWgt=   1.0078250   1.0078250   1.0078250   1.0078250   1.0078250   1.0078250   1.0078250   1.0078250   1.0078250   1.0078250
 NucSpn=           1           1           1           1           1           1           1           1           1           1
 AtZEff=  -0.0000000  -0.0000000  -0.0000000  -0.0000000  -0.0000000  -0.0000000  -0.0000000  -0.0000000  -0.0000000  -0.0000000
 NQMom=    0.0000000   0.0000000   0.0000000   0.0000000   0.0000000   0.0000000   0.0000000   0.0000000   0.0000000   0.0000000
 NMagM=    2.7928460   2.7928460   2.7928460   2.7928460   2.7928460   2.7928460   2.7928460   2.7928460   2.7928460   2.7928460
 AtZNuc=   1.0000000   1.0000000   1.0000000   1.0000000   1.0000000   1.0000000   1.0000000   1.0000000   1.0000000   1.0000000

  Atom       131         132         133         134         135         136         137         138         139         140
 IAtWgt=           1           1           1           1           1           1           1           1           1           1
 AtmWgt=   1.0078250   1.0078250   1.0078250   1.0078250   1.0078250   1.0078250   1.0078250   1.0078250   1.0078250   1.0078250
 NucSpn=           1           1           1           1           1           1           1           1           1           1
 AtZEff=  -0.0000000  -0.0000000  -0.0000000  -0.0000000  -0.0000000  -0.0000000  -0.0000000  -0.0000000  -0.0000000  -0.0000000
 NQMom=    0.0000000   0.0000000   0.0000000   0.0000000   0.0000000   0.0000000   0.0000000   0.0000000   0.0000000   0.0000000
 NMagM=    2.7928460   2.7928460   2.7928460   2.7928460   2.7928460   2.7928460   2.7928460   2.7928460   2.7928460   2.7928460
 AtZNuc=   1.0000000   1.0000000   1.0000000   1.0000000   1.0000000   1.0000000   1.0000000   1.0000000   1.0000000   1.0000000

  Atom       141         142         143         144         145         146         147         148         149         150
 IAtWgt=           1           1           1           1           1           1           1           1           1           1
 AtmWgt=   1.0078250   1.0078250   1.0078250   1.0078250   1.0078250   1.0078250   1.0078250   1.0078250   1.0078250   1.0078250
 NucSpn=           1           1           1           1           1           1           1           1           1           1
 AtZEff=  -0.0000000  -0.0000000  -0.0000000  -0.0000000  -0.0000000  -0.0000000  -0.0000000  -0.0000000  -0.0000000  -0.0000000
 NQMom=    0.0000000   0.0000000   0.0000000   0.0000000   0.0000000   0.0000000   0.0000000   0.0000000   0.0000000   0.0000000
 NMagM=    2.7928460   2.7928460   2.7928460   2.7928460   2.7928460   2.7928460   2.7928460   2.7928460   2.7928460   2.7928460
 AtZNuc=   1.0000000   1.0000000   1.0000000   1.0000000   1.0000000   1.0000000   1.0000000   1.0000000   1.0000000   1.0000000

  Atom       151         152         153         154         155         156         157         158         159
 IAtWgt=           1           1           1           1           1           1           1           1           1
 AtmWgt=   1.0078250   1.0078250   1.0078250   1.0078250   1.0078250   1.0078250   1.0078250   1.0078250   1.0078250
 NucSpn=           1           1           1           1           1           1           1           1           1
 AtZEff=  -0.0000000  -0.0000000  -0.0000000  -0.0000000  -0.0000000  -0.0000000  -0.0000000  -0.0000000  -0.0000000
 NQMom=    0.0000000   0.0000000   0.0000000   0.0000000   0.0000000   0.0000000   0.0000000   0.0000000   0.0000000
 NMagM=    2.7928460   2.7928460   2.7928460   2.7928460   2.7928460   2.7928460   2.7928460   2.7928460   2.7928460
 AtZNuc=   1.0000000   1.0000000   1.0000000   1.0000000   1.0000000   1.0000000   1.0000000   1.0000000   1.0000000
 Leave Link  101 at Mon Oct 18 08:44:11 2021, MaxMem=  7864320000 cpu:               2.9 elap:               0.1
 (Enter /apps/gaussian/g16-c01-avx/g16/l202.exe)
 Stoichiometry    C63H84N12
 Framework group  C1[X(C63H84N12)]
 Deg. of freedom   471
 Full point group                 C1      NOp   1
 Largest Abelian subgroup         C1      NOp   1
 Largest concise Abelian subgroup C1      NOp   1
                         Standard orientation:                         
 ---------------------------------------------------------------------
 Center     Atomic      Atomic             Coordinates (Angstroms)
 Number     Number       Type             X           Y           Z
 ---------------------------------------------------------------------
      1          6           0        3.588087   -2.685244    0.002047
      2          6           0        3.972831   -3.523376   -1.190134
      3          6           0        2.428371   -2.945078    0.716497
      4          6           0        2.086416   -2.165321    1.820017
      5          1           0        1.817867   -3.786433    0.426304
      6          6           0        2.891501   -1.082684    2.165012
      7          6           0        4.056726   -0.814300    1.457388
      8          1           0        2.608059   -0.484035    3.016989
      9          6           0        4.405898   -1.632917    0.383581
     10          6           0        4.893105    0.311883    1.845786
     11          1           0        5.323947   -1.433234   -0.145777
     12          6           0        0.953895   -2.533647    2.658187
     13          1           0        4.388982    1.084959    2.447804
     14          1           0        0.320422   -3.354994    2.287681
     15          6           0       -4.388567   -0.398632    0.413754
     16          6           0       -5.467296   -1.398663    0.061936
     17          6           0       -4.214033    0.766062   -0.320838
     18          6           0       -3.265921    1.712360    0.063719
     19          1           0       -4.837817    0.937613   -1.185470
     20          6           0       -2.469691    1.473224    1.179748
     21          6           0       -2.614168    0.294452    1.903329
     22          1           0       -1.740504    2.216693    1.463539
     23          6           0       -3.579421   -0.635251    1.513535
     24          6           0       -1.800044    0.039488    3.083911
     25          1           0       -3.689139   -1.537576    2.094467
     26          6           0       -3.129861    2.945355   -0.701531
     27          1           0       -1.060281    0.812072    3.341960
     28          1           0       -3.459529    2.891011   -1.751815
     29          6           0        1.826177    1.053652   -2.304091
     30          6           0        1.238391   -0.107918   -3.065643
     31          6           0        3.150666    0.981571   -1.893090
     32          6           0        3.709577    1.998837   -1.122788
     33          1           0        3.747096    0.121324   -2.162968
     34          6           0        2.921357    3.083472   -0.745380
     35          6           0        1.602298    3.171388   -1.171516
     36          1           0        3.365424    3.854495   -0.134300
     37          6           0        1.061544    2.153988   -1.959520
     38          6           0        0.765325    4.291011   -0.763058
     39          1           0        0.038923    2.233505   -2.290066
     40          6           0        5.094070    1.883213   -0.701053
     41          1           0        1.088246    4.821706    0.147586
     42          1           0        5.626058    1.003750   -1.092510
     43          6           0        2.516683   -4.751366   -2.543970
     44          6           0        3.409816   -3.824231   -3.385683
     45          7           0        3.200788   -4.789775   -1.256585
     46          1           0        1.558224   -4.238406   -2.378571
     47          6           0        2.264507   -6.055893   -3.272213
     48          7           0        3.754347   -2.776407   -2.436424
     49          1           0        4.343650   -4.355386   -3.625845
     50          6           0        2.715874   -3.438056   -4.674847
     51          6           0        1.580572   -5.713690   -4.599753
     52          6           0        2.402044   -4.729304   -5.437494
     53          6           0       -7.470216   -0.439449   -0.551377
     54          6           0       -7.727261   -1.376028    0.641518
     55          7           0       -6.235007   -0.967061   -1.114420
     56          1           0       -7.236762    0.562651   -0.163733
     57          6           0       -8.695771   -0.359612   -1.437205
     58          7           0       -6.399058   -1.571739    1.204092
     59          1           0       -8.054808   -2.353398    0.254263
     60          6           0       -8.815423   -0.808093    1.529679
     61          6           0       -9.846108    0.177299   -0.578957
     62          6           0      -10.080104   -0.669720    0.675626
     63          6           0       -1.041633   -0.564558   -2.928896
     64          6           0       -0.243379   -1.802682   -2.488064
     65          7           0       -0.062225    0.217198   -3.670139
     66          1           0       -1.315282    0.014156   -2.034310
     67          6           0       -2.301015   -0.998519   -3.651118
     68          7           0        1.064115   -1.260680   -2.145595
     69          1           0       -0.094938   -2.447008   -3.369477
     70          6           0       -1.016743   -2.577447   -1.442222
     71          6           0       -3.121282   -1.852947   -2.679984
     72          6           0       -2.326047   -3.026754   -2.099992
     73          6           0       -0.258311   -2.431857    4.665073
     74          6           0       -1.205187   -1.247723    4.953159
     75          7           0        0.768162   -1.984709    3.777985
     76          1           0       -0.856518   -3.256345    4.236929
     77          6           0        0.430586   -2.891364    5.955359
     78          7           0       -1.970550   -1.001763    3.773119
     79          1           0       -0.584032   -0.380915    5.240871
     80          6           0       -2.187286   -1.602011    6.073564
     81          6           0       -0.578561   -3.246330    7.038866
     82          6           0       -1.465079   -2.043666    7.339049
     83          6           0        6.825727    1.595844    1.849218
     84          6           0        6.973345    2.410128    0.532955
     85          7           0        6.111988    0.401846    1.530435
     86          1           0        6.271817    2.225529    2.569666
     87          6           0        8.212276    1.264752    2.396400
     88          7           0        5.655526    2.713908    0.069080
     89          1           0        7.518753    1.769506   -0.181569
     90          6           0        7.759641    3.688131    0.807013
     91          6           0        9.008976    2.539129    2.653145
     92          6           0        9.136656    3.361266    1.374127
     93          6           0       -2.564322    5.180569   -0.998190
     94          6           0       -1.106611    5.669785   -0.920760
     95          7           0       -2.688243    4.007772   -0.188628
     96          1           0       -2.798626    4.965113   -2.056735
     97          6           0       -3.495902    6.280007   -0.483401
     98          7           0       -0.269956    4.615317   -1.402896
     99          1           0       -0.873018    5.925240    0.128636
    100          6           0       -0.948760    6.921135   -1.788569
    101          6           0       -3.334984    7.544386   -1.320497
    102          6           0       -1.885905    8.022483   -1.304562
    103          1           0       -6.448832   -1.767102   -1.702117
    104          1           0       -4.997419   -2.370888   -0.141599
    105          1           0       -6.209360   -0.862839    1.907345
    106          1           0        1.055148   -0.928005   -1.183372
    107          1           0       -0.073052   -0.049385   -4.648862
    108          1           0        1.948882   -0.409587   -3.849146
    109          1           0        2.936593   -2.173413   -2.315392
    110          1           0        3.829725   -5.584541   -1.214666
    111          1           0        5.049245   -3.748565   -1.125264
    112          1           0       -0.049967   -3.560724    7.941120
    113          1           0       -1.198691   -4.080565    6.703248
    114          1           0       -2.196676   -2.296702    8.109119
    115          1           0       -0.849678   -1.223281    7.715545
    116          1           0        1.062900   -3.751267    5.723766
    117          1           0        1.079037   -2.083096    6.298326
    118          1           0       -2.814229   -0.730821    6.275181
    119          1           0       -2.834838   -2.403331    5.713212
    120          1           0        0.602900   -5.274466   -4.386669
    121          1           0        1.416568   -6.627018   -5.175340
    122          1           0        3.342044   -5.205364   -5.726548
    123          1           0        1.855665   -4.492890   -6.353067
    124          1           0        1.794910   -2.900351   -4.445421
    125          1           0        3.351716   -2.787269   -5.277400
    126          1           0        1.630001   -6.718382   -2.680203
    127          1           0        3.211855   -6.568412   -3.459811
    128          1           0        9.680509    4.285886    1.578043
    129          1           0        9.706301    2.793415    0.634668
    130          1           0        7.855006    4.250510   -0.123889
    131          1           0        7.194814    4.300280    1.511933
    132          1           0       10.000303    2.282285    3.032167
    133          1           0        8.502009    3.134352    3.416391
    134          1           0        8.100101    0.694042    3.320652
    135          1           0        8.729561    0.632692    1.672737
    136          1           0        0.089611    7.256845   -1.742565
    137          1           0       -1.171709    6.659687   -2.824460
    138          1           0       -1.777611    8.902978   -1.941315
    139          1           0       -1.611149    8.308940   -0.286616
    140          1           0       -3.989474    8.327897   -0.932637
    141          1           0       -3.635030    7.335896   -2.350177
    142          1           0       -4.527628    5.923901   -0.527171
    143          1           0       -3.254734    6.482498    0.561580
    144          1           0      -10.763236    0.204306   -1.170345
    145          1           0       -9.612470    1.201818   -0.280020
    146          1           0      -10.876236   -0.217874    1.270121
    147          1           0      -10.413135   -1.666638    0.377191
    148          1           0       -8.509500    0.169326    1.911468
    149          1           0       -9.004067   -1.463789    2.381101
    150          1           0       -8.943654   -1.352968   -1.819764
    151          1           0       -8.519302    0.299518   -2.288771
    152          1           0       -1.224639   -1.937990   -0.580163
    153          1           0       -0.449660   -3.444005   -1.096847
    154          1           0       -4.006096   -2.236755   -3.191386
    155          1           0       -3.460602   -1.215418   -1.863754
    156          1           0       -2.943096   -3.547400   -1.365369
    157          1           0       -2.092591   -3.735746   -2.899094
    158          1           0       -2.036707   -1.578771   -4.539958
    159          1           0       -2.884041   -0.133610   -3.970261
 ---------------------------------------------------------------------
 Rotational constants (GHZ):           0.0294119           0.0186277           0.0170677
 Leave Link  202 at Mon Oct 18 08:44:11 2021, MaxMem=  7864320000 cpu:               0.2 elap:               0.0
 (Enter /apps/gaussian/g16-c01-avx/g16/l301.exe)
 Standard basis: def2TZVP (5D, 7F)
 Ernie: Thresh=  0.10000D-02 Tol=  0.10000D-05 Strict=F.
 There are  3204 symmetry adapted cartesian basis functions of A   symmetry.
 There are  2829 symmetry adapted basis functions of A   symmetry.
  2829 basis functions,  4497 primitive gaussians,  3204 cartesian basis functions
   273 alpha electrons      273 beta electrons
       nuclear repulsion energy     12881.5571502955 Hartrees.
 IExCor= 1009 DFT=T Ex+Corr=PBE1PBE ExCW=0 ScaHFX=  0.250000
 ScaDFX=  0.750000  0.750000  1.000000  1.000000 ScalE2=  1.000000  1.000000
 IRadAn=      7 IRanWt=     -1 IRanGd=            0 ICorTp=0 IEmpDi=131
 NAtoms=  159 NActive=  159 NUniq=  159 SFac= 1.00D+00 NAtFMM=   60 NAOKFM=T Big=T
 Integral buffers will be    131072 words long.
 Raffenetti 2 integral format.
 Two-electron integral symmetry is turned on.
 R6Disp:  Grimme-D3 Dispersion energy=       -0.1443452486 Hartrees.
 Nuclear repulsion after empirical dispersion term =    12881.4128050469 Hartrees.
 ------------------------------------------------------------------------------
 Polarizable Continuum Model (PCM)
 =================================
 Model                : PCM.
 Atomic radii         : UFF (Universal Force Field).
 Polarization charges : Total charges.
 Charge compensation  : None.
 Solution method      : On-the-fly selection.
 Cavity type          : Scaled VdW (van der Waals Surface) (Alpha=1.100).
 Cavity algorithm     : GePol (No added spheres)
                        Default sphere list used, NSphG=  159.
                        Lebedev-Laikov grids with approx.  5.0 points / Ang**2.
                        Smoothing algorithm: York/Karplus (Gamma=1.0000).
                        Polarization charges: spherical gaussians, with
                                              point-specific exponents (IZeta= 3).
                        Self-potential: point-specific (ISelfS= 7).
                        Self-field    : sphere-specific E.n sum rule (ISelfD= 2).
 Solvent              : Chloroform, Eps=   4.711300 Eps(inf)=   2.090627
 ------------------------------------------------------------------------------
 GePol: Number of generator spheres                  =     159
 GePol: Total number of spheres                      =     159
 GePol: Number of exposed spheres                    =     159 (100.00%)
 GePol: Number of points                             =    8871
 GePol: Average weight of points                     =       0.13
 GePol: Minimum weight of points                     =   0.36D-11
 GePol: Maximum weight of points                     =    0.20577
 GePol: Number of points with low weight             =     768
 GePol: Fraction of low-weight points (<1% of avg)   =       8.66%
 GePol: Cavity surface area                          =   1125.136 Ang**2
 GePol: Cavity volume                                =   1421.969 Ang**3
 Leave Link  301 at Mon Oct 18 08:44:11 2021, MaxMem=  7864320000 cpu:               2.1 elap:               0.1
 (Enter /apps/gaussian/g16-c01-avx/g16/l302.exe)
 NPDir=0 NMtPBC=     1 NCelOv=     1 NCel=       1 NClECP=     1 NCelD=      1
         NCelK=      1 NCelE2=     1 NClLst=     1 CellRange=     0.0.
 One-electron integrals computed using PRISM.
 One-electron integral symmetry used in STVInt
   1 Symmetry operations used in ECPInt.
 ECPInt:  NShTT=  674541 NPrTT= 2010912 LenC2=  407594 LenP2D=  765449.
 LDataN:  DoStor=T MaxTD1= 6 Len=  172
 Number of processors reduced to  26 by ecpmxn.
 NBasis=  2829 RedAO= T EigKep=  4.31D-06  NBF=  2829
 NBsUse=  2829 1.00D-06 EigRej= -1.00D+00 NBFU=  2829
 Precomputing XC quadrature grid using
 IXCGrd= 4 IRadAn=           7 IRanWt=          -1 IRanGd=           0 AccXCQ= 0.00D+00.
 Generated NRdTot=       0 NPtTot=           0 NUsed=           0 NTot=          32
 NSgBfM=  2601  2594  2597  2597  2601 MxSgAt=   159 MxSgA2=   159.
 Leave Link  302 at Mon Oct 18 08:44:34 2021, MaxMem=  7864320000 cpu:             738.5 elap:              23.2
 (Enter /apps/gaussian/g16-c01-avx/g16/l303.exe)
 DipDrv:  MaxL=1.
 Leave Link  303 at Mon Oct 18 08:44:36 2021, MaxMem=  7864320000 cpu:              28.0 elap:               1.1
 (Enter /apps/gaussian/g16-c01-avx/g16/l401.exe)
 ExpMin= 9.52D-02 ExpMax= 1.97D+04 ExpMxC= 6.73D+02 IAcc=3 IRadAn=         7 AccDes= 0.00D+00
 Harris functional with IExCor= 1009 and IRadAn=       7 diagonalized for initial guess.
 HarFok:  IExCor= 1009 AccDes= 0.00D+00 IRadAn=         7 IDoV= 1 UseB2=F ITyADJ=14
 ICtDFT=  3500011 ScaDFX=  1.000000  1.000000  1.000000  1.000000
 FoFCou: FMM=F IPFlag=           0 FMFlag=      100000 FMFlg1=        2001
         NFxFlg=           0 DoJE=T BraDBF=F KetDBF=T FulRan=T
         wScrn=  0.000000 ICntrl=       500 IOpCl=  0 I1Cent=   200000004 NGrid=           0
         NMat0=    1 NMatS0=      1 NMatT0=    0 NMatD0=    1 NMtDS0=    0 NMtDT0=    0
 Petite list used in FoFCou.
 Harris En= -3106.76856821434    
 JPrj=0 DoOrth=F DoCkMO=F.
 Leave Link  401 at Mon Oct 18 08:45:31 2021, MaxMem=  7864320000 cpu:            1752.4 elap:              55.1
 (Enter /apps/gaussian/g16-c01-avx/g16/l508.exe)
 Integral symmetry usage will be decided dynamically.
 Tight linear equation convergence will be used.
 RPBE1PBE wavefunction.
 Linear searches until partial convergence.
 Full line searches.
 Fock matrices will be formed incrementally for  20 cycles.
 Inv3:  Mode=1 IEnd=   236083923.
 Iteration    1 A*A^-1 deviation from unit magnitude is 2.12D-14 for   8865.
 Iteration    1 A*A^-1 deviation from orthogonality  is 5.14D-15 for   8865   8345.
 Iteration    1 A^-1*A deviation from unit magnitude is 2.12D-14 for   8865.
 Iteration    1 A^-1*A deviation from orthogonality  is 2.98D-15 for   8861   8821.
 FoFJK:  IHMeth= 1 ICntrl=       0 DoSepK=F KAlg= 0 I1Cent=           0 FoldK=F
 IRaf= 550000000 NMat=       1 IRICut=       1 DoRegI=T DoRafI=F ISym2E= 1 IDoP0=0 IntGTp=1.
 Iteration   1 EE= -3104.17746335281                                    Grad=1.920D+00 Max rot=    2.0950 deg.
 Gradient too large for Newton-Raphson -- use scaled steepest descent instead.
 Alpha Gap=     0.174 HL deriv= 1.98D-03
     ILin= 1 X=0.000D+00 Y=-3.104177463353D+03 DE= 0.00D+00 F= -7.12D+00
 RMSU=  4.73D-04    CP:  1.00D+00
     ILin= 2 X=3.000D-01 Y=-3.105603137525D+03 DE=-1.43D+00 F= -2.36D+00 OKLS=F
 RMSU=  8.12D-05    CP:  1.01D+00  1.74D+00
     ILin= 3 X=5.000D-01 Y=-3.105751364687D+03 DE=-1.57D+00 F=  8.79D-01
     Accept linear search using points  2 and  3.
     An  expanding polynomial of degree  3 produced  0.3903
 RMSU=  3.31D-08    CP:  1.00D+00  1.33D+00  3.53D-01
 Iteration   2 EE= -3105.75024102753     Delta-E=       -1.572777674719 Grad=6.217D-01 Max rot=    1.5502 deg.
 Gradient too large for Newton-Raphson -- use scaled steepest descent instead.
 Alpha Gap=     0.193 HL deriv= 1.30D-04
     ILin= 1 X=0.000D+00 Y=-3.105750241028D+03 DE= 0.00D+00 F= -3.54D-01
 RMSU=  8.51D-05    CP:  1.01D+00  1.64D+00  9.30D-01 -3.00D+00
     ILin= 2 X=3.000D-01 Y=-3.105832427144D+03 DE=-8.22D-02 F= -1.94D-01 OKLS=F
 RMSU=  1.43D-05    CP:  1.01D+00  2.07D+00  2.05D+00 -3.00D+00  2.35D+00
     ILin= 3 X=7.000D-01 Y=-3.105866867445D+03 DE=-1.17D-01 F=  2.14D-02
     Accept linear search using points  2 and  3.
     An  expanding polynomial of degree  3 produced  0.5230
 RMSU=  2.38D-08    CP:  1.01D+00  1.88D+00  1.50D+00 -3.00D+00  1.75D+00
                    CP:  4.17D-01
 Iteration   3 EE= -3105.86223360726     Delta-E=       -0.111992579727 Grad=2.517D-01 Max rot=    0.7407 deg.
 Gradient too large for Newton-Raphson -- use scaled steepest descent instead.
 Alpha Gap=     0.185 HL deriv= 2.66D-04
     ILin= 1 X=0.000D+00 Y=-3.105862233607D+03 DE= 0.00D+00 F= -4.17D-02
 RMSU=  4.88D-05    CP:  1.01D+00  2.11D+00  2.25D+00 -3.00D+00  2.59D+00
                    CP:  1.22D+00 -3.00D+00
     ILin= 2 X=5.000D-01 Y=-3.105875294880D+03 DE=-1.31D-02 F= -1.05D-02 OKLS=F
 RMSU=  2.26D-05    CP:  1.01D+00  2.30D+00  2.95D+00 -3.00D+00  3.00D+00
                    CP:  2.16D+00 -3.00D+00  1.81D+00
     ILin= 3 X=9.000D-01 Y=-3.105874507087D+03 DE=-1.23D-02 F=  1.45D-02
     An  expanding polynomial of degree  3 produced  0.6685
 RMSU=  7.53D-07    CP:  1.01D+00  2.18D+00  2.54D+00 -3.00D+00  2.87D+00
                    CP:  1.58D+00 -3.00D+00  1.34D+00  3.57D-03
 Iteration   4 EE= -3105.87618114976     Delta-E=       -0.013947542506 Grad=9.612D-02 Max rot=    0.2360 deg.
 Gradient too large for Newton-Raphson -- use scaled steepest descent instead.
 Alpha Gap=     0.185 HL deriv= 2.84D-04
     ILin= 1 X=0.000D+00 Y=-3.105876181150D+03 DE= 0.00D+00 F= -1.29D-02
 RMSU=  4.09D-05    CP:  1.01D+00  2.26D+00  2.88D+00 -3.00D+00  3.00D+00
                    CP:  1.87D+00 -3.00D+00  1.44D+00  1.02D+00 -3.00D+00
     ILin= 2 X=6.000D-01 Y=-3.105877465141D+03 DE=-1.28D-03 F=  8.59D-03 OKLS=T
     Accept linear search using points  1 and  2.
     An  expanding polynomial of degree  2 produced  0.3241
 RMSU=  1.76D-06    CP:  1.01D+00  2.23D+00  2.72D+00 -3.00D+00  3.00D+00
                    CP:  1.73D+00 -3.00D+00  1.40D+00  3.35D-01 -2.82D+00
                    CP:  5.35D-01
 Iteration   5 EE= -3105.87847602843     Delta-E=       -0.002294878666 Grad=5.083D-02 Max rot=    0.1468 deg.
 Gradient too large for Newton-Raphson -- use scaled steepest descent instead.
 Alpha Gap=     0.186 HL deriv= 8.77D-06
     ILin= 1 X=0.000D+00 Y=-3.105878476028D+03 DE= 0.00D+00 F= -1.34D-03
 RMSU=  8.73D-06    CP:  1.01D+00  2.30D+00  3.00D+00 -3.00D+00  3.00D+00
                    CP:  2.12D+00 -3.00D+00  1.70D+00  1.27D+00 -3.00D+00
                    CP:  7.67D-01  4.51D-01
     ILin= 2 X=5.000D-01 Y=-3.105878959956D+03 DE=-4.84D-04 F= -6.00D-04 OKLS=F
 RMSU=  1.86D-05    CP:  1.01D+00  2.36D+00  3.00D+00 -3.00D+00  3.00D+00
                    CP:  2.47D+00 -3.00D+00  1.94D+00  2.03D+00 -3.00D+00
                    CP:  9.54D-01  4.33D-02  2.32D+00
     ILin= 3 X=9.000D-01 Y=-3.105879082051D+03 DE=-6.06D-04 F= -1.07D-05
 RMSU=  3.45D-05    CP:  1.02D+00  2.50D+00  3.00D+00 -3.00D+00  3.00D+00
                    CP:  3.00D+00 -3.00D+00  2.55D+00  3.00D+00 -3.00D+00
                    CP:  1.43D+00 -6.08D-01  3.00D+00  3.00D+00
     ILin= 4 X=1.900D+00 Y=-3.105878356354D+03 DE= 1.20D-04 F=  1.46D-03
     An  expanding polynomial of degree  4 produced  0.9073
     Minimum is close to point  3 DX=  7.28D-03 DF= -3.90D-08 DXR=  8.02D-03 DFR=  6.43D-05 which will be used.
 Iteration   6 EE= -3105.87908205063     Delta-E=       -0.000606022200 Grad=1.113D-02 Max rot=    0.0291 deg.
 Gradient too large for Newton-Raphson -- use scaled steepest descent instead.
 Alpha Gap=     0.186 HL deriv= 2.38D-05
     ILin= 1 X=0.000D+00 Y=-3.105879082051D+03 DE= 0.00D+00 F= -2.82D-04
 RMSU=  3.13D-06    CP:  1.01D+00  2.36D+00  3.00D+00 -3.00D+00  3.00D+00
                    CP:  2.53D+00 -3.00D+00  2.00D+00  2.20D+00 -3.00D+00
                    CP:  1.13D+00 -9.13D-02  2.58D+00  1.22D+00  3.04D-04
     ILin= 2 X=5.000D-01 Y=-3.105879119002D+03 DE=-3.70D-05 F=  1.34D-04 OKLS=T
     Accept linear search using points  1 and  2.
     An  expanding polynomial of degree  2 produced  0.2733
 RMSU=  6.48D-09    CP:  1.01D+00  2.36D+00  3.00D+00 -3.00D+00  3.00D+00
                    CP:  2.50D+00 -3.00D+00  1.97D+00  2.12D+00 -3.00D+00
                    CP:  1.05D+00 -3.08D-02  2.47D+00  1.12D+00  1.62D-04
                    CP:  5.46D-01
 Iteration   7 EE= -3105.87912805694     Delta-E=       -0.000046006309 Grad=4.468D-03 Max rot=    0.0054 deg.
 SCF Done:  E(RPBE1PBE) =  -3105.87912806     a.u. after    7 cycles
            Convg  =    0.4468D-02                    17 Fock formations.
              S**2 =  0.0000                  -V/T =  2.0048
 Leave Link  508 at Mon Oct 18 10:29:00 2021, MaxMem=  7864320000 cpu:          196839.3 elap:            6209.0
 (Enter /apps/gaussian/g16-c01-avx/g16/l502.exe)
 Integral symmetry usage will be decided dynamically.
 Closed shell SCF:
 Using DIIS extrapolation, IDIIS=  1040.
 NGot=  7864320000 LenX=  7843654274 LenY=  7833385454
 Requested convergence on RMS density matrix=1.00D-08 within 128 cycles.
 Requested convergence on MAX density matrix=1.00D-06.
 Requested convergence on             energy=1.00D-06.
 No special actions if energy rises.
 Fock matrices will be formed incrementally for  20 cycles.

 Cycle   1  Pass 1  IDiag  1:
 FoFJK:  IHMeth= 1 ICntrl=       0 DoSepK=F KAlg= 0 I1Cent=           0 FoldK=F
 IRaf= 550000000 NMat=       1 IRICut=       1 DoRegI=T DoRafI=F ISym2E= 0 IDoP0=0 IntGTp=1.
 FoFCou: FMM=T IPFlag=           0 FMFlag=      100000 FMFlg1=        2001
         NFxFlg=           0 DoJE=F BraDBF=F KetDBF=F FulRan=T
         wScrn=  0.000000 ICntrl=         0 IOpCl=  0 I1Cent=           0 NGrid=           0
         NMat0=    1 NMatS0=      1 NMatT0=    0 NMatD0=    1 NMtDS0=    0 NMtDT0=    0
 Symmetry not used in FoFCou.
 FMM levels:  10  Number of levels for PrismC:   9
 E= -3105.87912805696    
 DIIS: error= 1.86D-05 at cycle   1 NSaved=   1.
 NSaved= 1 IEnMin= 1 EnMin= -3105.87912805696     IErMin= 1 ErrMin= 1.86D-05
 ErrMax= 1.86D-05  0.00D+00 EMaxC= 1.00D-01 BMatC= 9.98D-06 BMatP= 9.98D-06
 IDIUse=1 WtCom= 1.00D+00 WtEn= 0.00D+00
 Coeff-Com:  0.100D+01
 Coeff:      0.100D+01
 Gap=     0.186 Goal=   None    Shift=    0.000
 RMSDP=2.39D-05 MaxDP=6.16D-03              OVMax= 5.20D-04

 Cycle   2  Pass 1  IDiag  1:
 RMSU=  2.23D-05    CP:  1.00D+00
 E= -3105.87913791130     Delta-E=       -0.000009854339 Rises=F Damp=F
 DIIS: error= 1.05D-05 at cycle   2 NSaved=   2.
 NSaved= 2 IEnMin= 2 EnMin= -3105.87913791130     IErMin= 2 ErrMin= 1.05D-05
 ErrMax= 1.05D-05  0.00D+00 EMaxC= 1.00D-01 BMatC= 2.68D-06 BMatP= 9.98D-06
 IDIUse=1 WtCom= 1.00D+00 WtEn= 0.00D+00
 Coeff-Com:  0.257D+00 0.743D+00
 Coeff:      0.257D+00 0.743D+00
 Gap=     0.178 Goal=   None    Shift=    0.000
 RMSDP=4.47D-06 MaxDP=1.61D-03 DE=-9.85D-06 OVMax= 4.24D-04

 Cycle   3  Pass 1  IDiag  1:
 RMSU=  2.53D-06    CP:  1.00D+00  1.14D+00
 E= -3105.87913759517     Delta-E=        0.000000316126 Rises=F Damp=F
 DIIS: error= 1.26D-05 at cycle   3 NSaved=   3.
 NSaved= 3 IEnMin= 2 EnMin= -3105.87913791130     IErMin= 2 ErrMin= 1.05D-05
 ErrMax= 1.26D-05  0.00D+00 EMaxC= 1.00D-01 BMatC= 3.02D-06 BMatP= 2.68D-06
 IDIUse=1 WtCom= 1.00D+00 WtEn= 0.00D+00
 Coeff-Com: -0.136D-01 0.519D+00 0.495D+00
 Coeff:     -0.136D-01 0.519D+00 0.495D+00
 Gap=     0.178 Goal=   None    Shift=    0.000
 RMSDP=1.59D-06 MaxDP=6.09D-04 DE= 3.16D-07 OVMax= 2.75D-04

 Cycle   4  Pass 1  IDiag  1:
 RMSU=  4.95D-07    CP:  1.00D+00  1.13D+00  4.40D-01
 E= -3105.87914014980     Delta-E=       -0.000002554627 Rises=F Damp=F
 DIIS: error= 4.17D-06 at cycle   4 NSaved=   4.
 NSaved= 4 IEnMin= 4 EnMin= -3105.87914014980     IErMin= 4 ErrMin= 4.17D-06
 ErrMax= 4.17D-06  0.00D+00 EMaxC= 1.00D-01 BMatC= 1.33D-07 BMatP= 2.68D-06
 IDIUse=1 WtCom= 1.00D+00 WtEn= 0.00D+00
 Coeff-Com: -0.190D-01 0.269D+00 0.296D+00 0.454D+00
 Coeff:     -0.190D-01 0.269D+00 0.296D+00 0.454D+00
 Gap=     0.178 Goal=   None    Shift=    0.000
 RMSDP=2.35D-07 MaxDP=5.59D-05 DE=-2.55D-06 OVMax= 5.15D-05

 Cycle   5  Pass 1  IDiag  1:
 RMSU=  1.91D-07    CP:  1.00D+00  1.13D+00  4.66D-01  8.26D-01
 E= -3105.87914027482     Delta-E=       -0.000000125021 Rises=F Damp=F
 DIIS: error= 6.74D-07 at cycle   5 NSaved=   5.
 NSaved= 5 IEnMin= 5 EnMin= -3105.87914027482     IErMin= 5 ErrMin= 6.74D-07
 ErrMax= 6.74D-07  0.00D+00 EMaxC= 1.00D-01 BMatC= 4.61D-09 BMatP= 1.33D-07
 IDIUse=1 WtCom= 1.00D+00 WtEn= 0.00D+00
 Coeff-Com: -0.639D-02 0.531D-01 0.728D-01 0.195D+00 0.686D+00
 Coeff:     -0.639D-02 0.531D-01 0.728D-01 0.195D+00 0.686D+00
 Gap=     0.178 Goal=   None    Shift=    0.000
 RMSDP=6.66D-08 MaxDP=1.70D-05 DE=-1.25D-07 OVMax= 1.01D-05

 Cycle   6  Pass 1  IDiag  1:
 RMSU=  4.00D-08    CP:  1.00D+00  1.14D+00  4.61D-01  8.88D-01  1.00D+00
 E= -3105.87914027933     Delta-E=       -0.000000004507 Rises=F Damp=F
 DIIS: error= 2.24D-07 at cycle   6 NSaved=   6.
 NSaved= 6 IEnMin= 6 EnMin= -3105.87914027933     IErMin= 6 ErrMin= 2.24D-07
 ErrMax= 2.24D-07  0.00D+00 EMaxC= 1.00D-01 BMatC= 4.73D-10 BMatP= 4.61D-09
 IDIUse=1 WtCom= 1.00D+00 WtEn= 0.00D+00
 Coeff-Com: -0.711D-03-0.311D-02 0.411D-02 0.436D-01 0.309D+00 0.647D+00
 Coeff:     -0.711D-03-0.311D-02 0.411D-02 0.436D-01 0.309D+00 0.647D+00
 Gap=     0.178 Goal=   None    Shift=    0.000
 RMSDP=2.81D-08 MaxDP=9.36D-06 DE=-4.51D-09 OVMax= 3.40D-06

 Cycle   7  Pass 1  IDiag  1:
 RMSU=  1.21D-08    CP:  1.00D+00  1.14D+00  4.63D-01  9.06D-01  1.01D+00
                    CP:  8.20D-01
 E= -3105.87914027934     Delta-E=       -0.000000000009 Rises=F Damp=F
 DIIS: error= 4.33D-08 at cycle   7 NSaved=   7.
 NSaved= 7 IEnMin= 7 EnMin= -3105.87914027934     IErMin= 7 ErrMin= 4.33D-08
 ErrMax= 4.33D-08  0.00D+00 EMaxC= 1.00D-01 BMatC= 3.00D-11 BMatP= 4.73D-10
 IDIUse=1 WtCom= 1.00D+00 WtEn= 0.00D+00
 Coeff-Com:  0.227D-04-0.461D-02-0.269D-02 0.515D-02 0.820D-01 0.271D+00
 Coeff-Com:  0.650D+00
 Coeff:      0.227D-04-0.461D-02-0.269D-02 0.515D-02 0.820D-01 0.271D+00
 Coeff:      0.650D+00
 Gap=     0.178 Goal=   None    Shift=    0.000
 RMSDP=6.99D-09 MaxDP=1.59D-06 DE=-9.09D-12 OVMax= 1.28D-06

 Cycle   8  Pass 1  IDiag  1:
 RMSU=  4.09D-09    CP:  1.00D+00  1.14D+00  4.63D-01  9.11D-01  1.02D+00
                    CP:  8.92D-01  9.52D-01
 E= -3105.87914027958     Delta-E=       -0.000000000244 Rises=F Damp=F
 DIIS: error= 2.33D-08 at cycle   8 NSaved=   8.
 NSaved= 8 IEnMin= 8 EnMin= -3105.87914027958     IErMin= 8 ErrMin= 2.33D-08
 ErrMax= 2.33D-08  0.00D+00 EMaxC= 1.00D-01 BMatC= 5.06D-12 BMatP= 3.00D-11
 IDIUse=1 WtCom= 1.00D+00 WtEn= 0.00D+00
 Coeff-Com:  0.765D-04-0.191D-02-0.168D-02-0.212D-02 0.726D-02 0.671D-01
 Coeff-Com:  0.325D+00 0.606D+00
 Coeff:      0.765D-04-0.191D-02-0.168D-02-0.212D-02 0.726D-02 0.671D-01
 Coeff:      0.325D+00 0.606D+00
 Gap=     0.178 Goal=   None    Shift=    0.000
 RMSDP=2.29D-09 MaxDP=6.10D-07 DE=-2.44D-10 OVMax= 5.69D-07

 Error on total polarization charges =  0.02435
 SCF Done:  E(RPBE1PBE) =  -3105.87914028     A.U. after    8 cycles
            NFock=  8  Conv=0.23D-08     -V/T= 2.0048
 KE= 3.091010218446D+03 PE=-3.298297611106D+04 EE= 1.390467394728D+04
 Leave Link  502 at Mon Oct 18 11:15:18 2021, MaxMem=  7864320000 cpu:           88172.7 elap:            2777.8
 (Enter /apps/gaussian/g16-c01-avx/g16/l508.exe)
 QCSCF skips out because SCF is already converged.
 Leave Link  508 at Mon Oct 18 11:15:18 2021, MaxMem=  7864320000 cpu:               0.0 elap:               0.0
 (Enter /apps/gaussian/g16-c01-avx/g16/l601.exe)
 Copying SCF densities to generalized density rwf, IOpCl= 0 IROHF=0.
 Hyperfine terms turned off by default for NAtoms > 100.

 **********************************************************************

            Population analysis using the SCF Density.

 **********************************************************************

 Orbital symmetries:
       Occupied  (A) (A) (A) (A) (A) (A) (A) (A) (A) (A) (A) (A)
                 (A) (A) (A) (A) (A) (A) (A) (A) (A) (A) (A) (A)
                 (A) (A) (A) (A) (A) (A) (A) (A) (A) (A) (A) (A)
                 (A) (A) (A) (A) (A) (A) (A) (A) (A) (A) (A) (A)
                 (A) (A) (A) (A) (A) (A) (A) (A) (A) (A) (A) (A)
                 (A) (A) (A) (A) (A) (A) (A) (A) (A) (A) (A) (A)
                 (A) (A) (A) (A) (A) (A) (A) (A) (A) (A) (A) (A)
                 (A) (A) (A) (A) (A) (A) (A) (A) (A) (A) (A) (A)
                 (A) (A) (A) (A) (A) (A) (A) (A) (A) (A) (A) (A)
                 (A) (A) (A) (A) (A) (A) (A) (A) (A) (A) (A) (A)
                 (A) (A) (A) (A) (A) (A) (A) (A) (A) (A) (A) (A)
                 (A) (A) (A) (A) (A) (A) (A) (A) (A) (A) (A) (A)
                 (A) (A) (A) (A) (A) (A) (A) (A) (A) (A) (A) (A)
                 (A) (A) (A) (A) (A) (A) (A) (A) (A) (A) (A) (A)
                 (A) (A) (A) (A) (A) (A) (A) (A) (A) (A) (A) (A)
                 (A) (A) (A) (A) (A) (A) (A) (A) (A) (A) (A) (A)
                 (A) (A) (A) (A) (A) (A) (A) (A) (A) (A) (A) (A)
                 (A) (A) (A) (A) (A) (A) (A) (A) (A) (A) (A) (A)
                 (A) (A) (A) (A) (A) (A) (A) (A) (A) (A) (A) (A)
                 (A) (A) (A) (A) (A) (A) (A) (A) (A) (A) (A) (A)
                 (A) (A) (A) (A) (A) (A) (A) (A) (A) (A) (A) (A)
                 (A) (A) (A) (A) (A) (A) (A) (A) (A) (A) (A) (A)
                 (A) (A) (A) (A) (A) (A) (A) (A) (A)
       Virtual   (A) (A) (A) (A) (A) (A) (A) (A) (A) (A) (A) (A)
                 (A) (A) (A) (A) (A) (A) (A) (A) (A) (A) (A) (A)
                 (A) (A) (A) (A) (A) (A) (A) (A) (A) (A) (A) (A)
                 (A) (A) (A) (A) (A) (A) (A) (A) (A) (A) (A) (A)
                 (A) (A) (A) (A) (A) (A) (A) (A) (A) (A) (A) (A)
                 (A) (A) (A) (A) (A) (A) (A) (A) (A) (A) (A) (A)
                 (A) (A) (A) (A) (A) (A) (A) (A) (A) (A) (A) (A)
                 (A) (A) (A) (A) (A) (A) (A) (A) (A) (A) (A) (A)
                 (A) (A) (A) (A) (A) (A) (A) (A) (A) (A) (A) (A)
                 (A) (A) (A) (A) (A) (A) (A) (A) (A) (A) (A) (A)
                 (A) (A) (A) (A) (A) (A) (A) (A) (A) (A) (A) (A)
                 (A) (A) (A) (A) (A) (A) (A) (A) (A) (A) (A) (A)
                 (A) (A) (A) (A) (A) (A) (A) (A) (A) (A) (A) (A)
                 (A) (A) (A) (A) (A) (A) (A) (A) (A) (A) (A) (A)
                 (A) (A) (A) (A) (A) (A) (A) (A) (A) (A) (A) (A)
                 (A) (A) (A) (A) (A) (A) (A) (A) (A) (A) (A) (A)
                 (A) (A) (A) (A) (A) (A) (A) (A) (A) (A) (A) (A)
                 (A) (A) (A) (A) (A) (A) (A) (A) (A) (A) (A) (A)
                 (A) (A) (A) (A) (A) (A) (A) (A) (A) (A) (A) (A)
                 (A) (A) (A) (A) (A) (A) (A) (A) (A) (A) (A) (A)
                 (A) (A) (A) (A) (A) (A) (A) (A) (A) (A) (A) (A)
                 (A) (A) (A) (A) (A) (A) (A) (A) (A) (A) (A) (A)
                 (A) (A) (A) (A) (A) (A) (A) (A) (A) (A) (A) (A)
                 (A) (A) (A) (A) (A) (A) (A) (A) (A) (A) (A) (A)
                 (A) (A) (A) (A) (A) (A) (A) (A) (A) (A) (A) (A)
                 (A) (A) (A) (A) (A) (A) (A) (A) (A) (A) (A) (A)
                 (A) (A) (A) (A) (A) (A) (A) (A) (A) (A) (A) (A)
                 (A) (A) (A) (A) (A) (A) (A) (A) (A) (A) (A) (A)
                 (A) (A) (A) (A) (A) (A) (A) (A) (A) (A) (A) (A)
                 (A) (A) (A) (A) (A) (A) (A) (A) (A) (A) (A) (A)
                 (A) (A) (A) (A) (A) (A) (A) (A) (A) (A) (A) (A)
                 (A) (A) (A) (A) (A) (A) (A) (A) (A) (A) (A) (A)
                 (A) (A) (A) (A) (A) (A) (A) (A) (A) (A) (A) (A)
                 (A) (A) (A) (A) (A) (A) (A) (A) (A) (A) (A) (A)
                 (A) (A) (A) (A) (A) (A) (A) (A) (A) (A) (A) (A)
                 (A) (A) (A) (A) (A) (A) (A) (A) (A) (A) (A) (A)
                 (A) (A) (A) (A) (A) (A) (A) (A) (A) (A) (A) (A)
                 (A) (A) (A) (A) (A) (A) (A) (A) (A) (A) (A) (A)
                 (A) (A) (A) (A) (A) (A) (A) (A) (A) (A) (A) (A)
                 (A) (A) (A) (A) (A) (A) (A) (A) (A) (A) (A) (A)
                 (A) (A) (A) (A) (A) (A) (A) (A) (A) (A) (A) (A)
                 (A) (A) (A) (A) (A) (A) (A) (A) (A) (A) (A) (A)
                 (A) (A) (A) (A) (A) (A) (A) (A) (A) (A) (A) (A)
                 (A) (A) (A) (A) (A) (A) (A) (A) (A) (A) (A) (A)
                 (A) (A) (A) (A) (A) (A) (A) (A) (A) (A) (A) (A)
                 (A) (A) (A) (A) (A) (A) (A) (A) (A) (A) (A) (A)
                 (A) (A) (A) (A) (A) (A) (A) (A) (A) (A) (A) (A)
                 (A) (A) (A) (A) (A) (A) (A) (A) (A) (A) (A) (A)
                 (A) (A) (A) (A) (A) (A) (A) (A) (A) (A) (A) (A)
                 (A) (A) (A) (A) (A) (A) (A) (A) (A) (A) (A) (A)
                 (A) (A) (A) (A) (A) (A) (A) (A) (A) (A) (A) (A)
                 (A) (A) (A) (A) (A) (A) (A) (A) (A) (A) (A) (A)
                 (A) (A) (A) (A) (A) (A) (A) (A) (A) (A) (A) (A)
                 (A) (A) (A) (A) (A) (A) (A) (A) (A) (A) (A) (A)
                 (A) (A) (A) (A) (A) (A) (A) (A) (A) (A) (A) (A)
                 (A) (A) (A) (A) (A) (A) (A) (A) (A) (A) (A) (A)
                 (A) (A) (A) (A) (A) (A) (A) (A) (A) (A) (A) (A)
                 (A) (A) (A) (A) (A) (A) (A) (A) (A) (A) (A) (A)
                 (A) (A) (A) (A) (A) (A) (A) (A) (A) (A) (A) (A)
                 (A) (A) (A) (A) (A) (A) (A) (A) (A) (A) (A) (A)
                 (A) (A) (A) (A) (A) (A) (A) (A) (A) (A) (A) (A)
                 (A) (A) (A) (A) (A) (A) (A) (A) (A) (A) (A) (A)
                 (A) (A) (A) (A) (A) (A) (A) (A) (A) (A) (A) (A)
                 (A) (A) (A) (A) (A) (A) (A) (A) (A) (A) (A) (A)
                 (A) (A) (A) (A) (A) (A) (A) (A) (A) (A) (A) (A)
                 (A) (A) (A) (A) (A) (A) (A) (A) (A) (A) (A) (A)
                 (A) (A) (A) (A) (A) (A) (A) (A) (A) (A) (A) (A)
                 (A) (A) (A) (A) (A) (A) (A) (A) (A) (A) (A) (A)
                 (A) (A) (A) (A) (A) (A) (A) (A) (A) (A) (A) (A)
                 (A) (A) (A) (A) (A) (A) (A) (A) (A) (A) (A) (A)
                 (A) (A) (A) (A) (A) (A) (A) (A) (A) (A) (A) (A)
                 (A) (A) (A) (A) (A) (A) (A) (A) (A) (A) (A) (A)
                 (A) (A) (A) (A) (A) (A) (A) (A) (A) (A) (A) (A)
                 (A) (A) (A) (A) (A) (A) (A) (A) (A) (A) (A) (A)
                 (A) (A) (A) (A) (A) (A) (A) (A) (A) (A) (A) (A)
                 (A) (A) (A) (A) (A) (A) (A) (A) (A) (A) (A) (A)
                 (A) (A) (A) (A) (A) (A) (A) (A) (A) (A) (A) (A)
                 (A) (A) (A) (A) (A) (A) (A) (A) (A) (A) (A) (A)
                 (A) (A) (A) (A) (A) (A) (A) (A) (A) (A) (A) (A)
                 (A) (A) (A) (A) (A) (A) (A) (A) (A) (A) (A) (A)
                 (A) (A) (A) (A) (A) (A) (A) (A) (A) (A) (A) (A)
                 (A) (A) (A) (A) (A) (A) (A) (A) (A) (A) (A) (A)
                 (A) (A) (A) (A) (A) (A) (A) (A) (A) (A) (A) (A)
                 (A) (A) (A) (A) (A) (A) (A) (A) (A) (A) (A) (A)
                 (A) (A) (A) (A) (A) (A) (A) (A) (A) (A) (A) (A)
                 (A) (A) (A) (A) (A) (A) (A) (A) (A) (A) (A) (A)
                 (A) (A) (A) (A) (A) (A) (A) (A) (A) (A) (A) (A)
                 (A) (A) (A) (A) (A) (A) (A) (A) (A) (A) (A) (A)
                 (A) (A) (A) (A) (A) (A) (A) (A) (A) (A) (A) (A)
                 (A) (A) (A) (A) (A) (A) (A) (A) (A) (A) (A) (A)
                 (A) (A) (A) (A) (A) (A) (A) (A) (A) (A) (A) (A)
                 (A) (A) (A) (A) (A) (A) (A) (A) (A) (A) (A) (A)
                 (A) (A) (A) (A) (A) (A) (A) (A) (A) (A) (A) (A)
                 (A) (A) (A) (A) (A) (A) (A) (A) (A) (A) (A) (A)
                 (A) (A) (A) (A) (A) (A) (A) (A) (A) (A) (A) (A)
                 (A) (A) (A) (A) (A) (A) (A) (A) (A) (A) (A) (A)
                 (A) (A) (A) (A) (A) (A) (A) (A) (A) (A) (A) (A)
                 (A) (A) (A) (A) (A) (A) (A) (A) (A) (A) (A) (A)
                 (A) (A) (A) (A) (A) (A) (A) (A) (A) (A) (A) (A)
                 (A) (A) (A) (A) (A) (A) (A) (A) (A) (A) (A) (A)
                 (A) (A) (A) (A) (A) (A) (A) (A) (A) (A) (A) (A)
                 (A) (A) (A) (A) (A) (A) (A) (A) (A) (A) (A) (A)
                 (A) (A) (A) (A) (A) (A) (A) (A) (A) (A) (A) (A)
                 (A) (A) (A) (A) (A) (A) (A) (A) (A) (A) (A) (A)
                 (A) (A) (A) (A) (A) (A) (A) (A) (A) (A) (A) (A)
                 (A) (A) (A) (A) (A) (A) (A) (A) (A) (A) (A) (A)
                 (A) (A) (A) (A) (A) (A) (A) (A) (A) (A) (A) (A)
                 (A) (A) (A) (A) (A) (A) (A) (A) (A) (A) (A) (A)
                 (A) (A) (A) (A) (A) (A) (A) (A) (A) (A) (A) (A)
                 (A) (A) (A) (A) (A) (A) (A) (A) (A) (A) (A) (A)
                 (A) (A) (A) (A) (A) (A) (A) (A) (A) (A) (A) (A)
                 (A) (A) (A) (A) (A) (A) (A) (A) (A) (A) (A) (A)
                 (A) (A) (A) (A) (A) (A) (A) (A) (A) (A) (A) (A)
                 (A) (A) (A) (A) (A) (A) (A) (A) (A) (A) (A) (A)
                 (A) (A) (A) (A) (A) (A) (A) (A) (A) (A) (A) (A)
                 (A) (A) (A) (A) (A) (A) (A) (A) (A) (A) (A) (A)
                 (A) (A) (A) (A) (A) (A) (A) (A) (A) (A) (A) (A)
                 (A) (A) (A) (A) (A) (A) (A) (A) (A) (A) (A) (A)
                 (A) (A) (A) (A) (A) (A) (A) (A) (A) (A) (A) (A)
                 (A) (A) (A) (A) (A) (A) (A) (A) (A) (A) (A) (A)
                 (A) (A) (A) (A) (A) (A) (A) (A) (A) (A) (A) (A)
                 (A) (A) (A) (A) (A) (A) (A) (A) (A) (A) (A) (A)
                 (A) (A) (A) (A) (A) (A) (A) (A) (A) (A) (A) (A)
                 (A) (A) (A) (A) (A) (A) (A) (A) (A) (A) (A) (A)
                 (A) (A) (A) (A) (A) (A) (A) (A) (A) (A) (A) (A)
                 (A) (A) (A) (A) (A) (A) (A) (A) (A) (A) (A) (A)
                 (A) (A) (A) (A) (A) (A) (A) (A) (A) (A) (A) (A)
                 (A) (A) (A) (A) (A) (A) (A) (A) (A) (A) (A) (A)
                 (A) (A) (A) (A) (A) (A) (A) (A) (A) (A) (A) (A)
                 (A) (A) (A) (A) (A) (A) (A) (A) (A) (A) (A) (A)
                 (A) (A) (A) (A) (A) (A) (A) (A) (A) (A) (A) (A)
                 (A) (A) (A) (A) (A) (A) (A) (A) (A) (A) (A) (A)
                 (A) (A) (A) (A) (A) (A) (A) (A) (A) (A) (A) (A)
                 (A) (A) (A) (A) (A) (A) (A) (A) (A) (A) (A) (A)
                 (A) (A) (A) (A) (A) (A) (A) (A) (A) (A) (A) (A)
                 (A) (A) (A) (A) (A) (A) (A) (A) (A) (A) (A) (A)
                 (A) (A) (A) (A) (A) (A) (A) (A) (A) (A) (A) (A)
                 (A) (A) (A) (A) (A) (A) (A) (A) (A) (A) (A) (A)
                 (A) (A) (A) (A) (A) (A) (A) (A) (A) (A) (A) (A)
                 (A) (A) (A) (A) (A) (A) (A) (A) (A) (A) (A) (A)
                 (A) (A) (A) (A) (A) (A) (A) (A) (A) (A) (A) (A)
                 (A) (A) (A) (A) (A) (A) (A) (A) (A) (A) (A) (A)
                 (A) (A) (A) (A) (A) (A) (A) (A) (A) (A) (A) (A)
                 (A) (A) (A) (A) (A) (A) (A) (A) (A) (A) (A) (A)
                 (A) (A) (A) (A) (A) (A) (A) (A) (A) (A) (A) (A)
                 (A) (A) (A) (A) (A) (A) (A) (A) (A) (A) (A) (A)
                 (A) (A) (A) (A) (A) (A) (A) (A) (A) (A) (A) (A)
                 (A) (A) (A) (A) (A) (A) (A) (A) (A) (A) (A) (A)
                 (A) (A) (A) (A) (A) (A) (A) (A) (A) (A) (A) (A)
                 (A) (A) (A) (A) (A) (A) (A) (A) (A) (A) (A) (A)
                 (A) (A) (A) (A) (A) (A) (A) (A) (A) (A) (A) (A)
                 (A) (A) (A) (A) (A) (A) (A) (A) (A) (A) (A) (A)
                 (A) (A) (A) (A) (A) (A) (A) (A) (A) (A) (A) (A)
                 (A) (A) (A) (A) (A) (A) (A) (A) (A) (A) (A) (A)
                 (A) (A) (A) (A) (A) (A) (A) (A) (A) (A) (A) (A)
                 (A) (A) (A) (A) (A) (A) (A) (A) (A) (A) (A) (A)
                 (A) (A) (A) (A) (A) (A) (A) (A) (A) (A) (A) (A)
                 (A) (A) (A) (A) (A) (A) (A) (A) (A) (A) (A) (A)
                 (A) (A) (A) (A) (A) (A) (A) (A) (A) (A) (A) (A)
                 (A) (A) (A) (A) (A) (A) (A) (A) (A) (A) (A) (A)
                 (A) (A) (A) (A) (A) (A) (A) (A) (A) (A) (A) (A)
                 (A) (A) (A) (A) (A) (A) (A) (A) (A) (A) (A) (A)
                 (A) (A) (A) (A) (A) (A) (A) (A) (A) (A) (A) (A)
                 (A) (A) (A) (A) (A) (A) (A) (A) (A) (A) (A) (A)
                 (A) (A) (A) (A) (A) (A) (A) (A) (A) (A) (A) (A)
                 (A) (A) (A) (A) (A) (A) (A) (A) (A) (A) (A) (A)
                 (A) (A) (A) (A) (A) (A) (A) (A) (A) (A) (A) (A)
                 (A) (A) (A) (A) (A) (A) (A) (A) (A) (A) (A) (A)
                 (A) (A) (A) (A) (A) (A) (A) (A) (A) (A) (A) (A)
                 (A) (A) (A) (A) (A) (A) (A) (A) (A) (A) (A) (A)
                 (A) (A) (A) (A) (A) (A) (A) (A) (A) (A) (A) (A)
                 (A) (A) (A) (A) (A) (A) (A) (A) (A) (A) (A) (A)
                 (A) (A) (A) (A) (A) (A) (A) (A) (A) (A) (A) (A)
                 (A) (A) (A) (A) (A) (A) (A) (A) (A) (A) (A) (A)
                 (A) (A) (A) (A) (A) (A) (A) (A) (A) (A) (A) (A)
                 (A) (A) (A) (A) (A) (A) (A) (A) (A) (A) (A) (A)
                 (A) (A) (A) (A) (A) (A) (A) (A) (A) (A) (A) (A)
                 (A) (A) (A) (A) (A) (A) (A) (A) (A) (A) (A) (A)
                 (A) (A) (A) (A) (A) (A) (A) (A) (A) (A) (A) (A)
                 (A) (A) (A) (A) (A) (A) (A) (A) (A) (A) (A) (A)
                 (A) (A) (A) (A) (A) (A) (A) (A) (A) (A) (A) (A)
                 (A) (A) (A) (A) (A) (A) (A) (A) (A) (A) (A) (A)
                 (A) (A) (A) (A) (A) (A) (A) (A) (A) (A) (A) (A)
                 (A) (A) (A) (A) (A) (A) (A) (A) (A) (A) (A) (A)
                 (A) (A) (A) (A) (A) (A) (A) (A) (A) (A) (A) (A)
                 (A) (A) (A) (A) (A) (A) (A) (A) (A) (A) (A) (A)
                 (A) (A) (A) (A) (A) (A) (A) (A) (A) (A) (A) (A)
                 (A) (A) (A) (A) (A) (A) (A) (A) (A) (A) (A) (A)
                 (A) (A) (A) (A) (A) (A) (A) (A) (A) (A) (A) (A)
                 (A) (A) (A) (A) (A) (A) (A) (A) (A) (A) (A) (A)
                 (A) (A) (A) (A) (A) (A) (A) (A) (A) (A) (A) (A)
                 (A) (A) (A) (A) (A) (A) (A) (A) (A) (A) (A) (A)
                 (A) (A) (A) (A) (A) (A) (A) (A) (A) (A) (A) (A)
                 (A) (A) (A) (A) (A) (A) (A) (A) (A) (A) (A) (A)
                 (A) (A) (A) (A) (A) (A) (A) (A) (A) (A) (A) (A)
                 (A) (A) (A) (A) (A) (A) (A) (A) (A) (A) (A) (A)
                 (A) (A) (A) (A) (A) (A) (A) (A) (A) (A) (A) (A)
                 (A) (A) (A) (A) (A) (A) (A) (A) (A) (A) (A) (A)
                 (A) (A) (A) (A) (A) (A) (A) (A) (A) (A) (A) (A)
                 (A) (A) (A) (A) (A) (A) (A) (A) (A) (A) (A) (A)
                 (A) (A) (A) (A) (A) (A) (A) (A) (A) (A) (A) (A)
                 (A) (A) (A) (A) (A) (A) (A) (A) (A) (A) (A) (A)
                 (A) (A) (A) (A) (A) (A) (A) (A) (A) (A) (A) (A)
                 (A) (A) (A) (A) (A) (A) (A) (A) (A) (A) (A) (A)
                 (A) (A) (A) (A) (A) (A) (A) (A) (A) (A) (A) (A)
                 (A) (A) (A) (A) (A) (A) (A) (A) (A) (A) (A) (A)
                 (A) (A) (A) (A) (A) (A) (A) (A) (A) (A) (A) (A)
                 (A) (A) (A) (A) (A) (A) (A) (A) (A) (A) (A) (A)
                 (A) (A) (A) (A) (A) (A) (A) (A) (A) (A) (A) (A)
                 (A) (A) (A) (A) (A) (A) (A) (A) (A) (A) (A) (A)
                 (A) (A) (A) (A) (A) (A) (A) (A) (A) (A) (A) (A)
                 (A) (A) (A) (A) (A) (A) (A) (A) (A) (A) (A) (A)
                 (A) (A) (A) (A) (A) (A) (A) (A) (A) (A) (A) (A)
 The electronic state is 1-A.
 Alpha  occ. eigenvalues --  -14.37690 -14.37468 -14.37339 -14.37311 -14.37308
 Alpha  occ. eigenvalues --  -14.37264 -14.37258 -14.36995 -14.36994 -14.36857
 Alpha  occ. eigenvalues --  -14.36373 -14.35792 -10.28073 -10.27999 -10.27286
 Alpha  occ. eigenvalues --  -10.26257 -10.26257 -10.26236 -10.26225 -10.26126
 Alpha  occ. eigenvalues --  -10.25980 -10.24883 -10.24879 -10.24797 -10.24745
 Alpha  occ. eigenvalues --  -10.24725 -10.24662 -10.24425 -10.24251 -10.24175
 Alpha  occ. eigenvalues --  -10.24155 -10.23817 -10.23810 -10.23712 -10.23709
 Alpha  occ. eigenvalues --  -10.23657 -10.23585 -10.23582 -10.23576 -10.23533
 Alpha  occ. eigenvalues --  -10.23410 -10.23213 -10.23163 -10.23046 -10.23013
 Alpha  occ. eigenvalues --  -10.22939 -10.22810 -10.22783 -10.22729 -10.22704
 Alpha  occ. eigenvalues --  -10.22508 -10.21796 -10.21745 -10.21713 -10.21703
 Alpha  occ. eigenvalues --  -10.21672 -10.21670 -10.21649 -10.21615 -10.21564
 Alpha  occ. eigenvalues --  -10.21551 -10.21439 -10.21397 -10.21393 -10.21332
 Alpha  occ. eigenvalues --  -10.21308 -10.21277 -10.21247 -10.21206 -10.21187
 Alpha  occ. eigenvalues --  -10.21152 -10.21151 -10.21122 -10.21107 -10.21044
 Alpha  occ. eigenvalues --   -0.99408  -0.99335  -0.98556  -0.97629  -0.97295
 Alpha  occ. eigenvalues --   -0.97238  -0.95015  -0.94884  -0.94350  -0.89856
 Alpha  occ. eigenvalues --   -0.89464  -0.89260  -0.88428  -0.88197  -0.87269
 Alpha  occ. eigenvalues --   -0.85608  -0.85578  -0.85450  -0.85175  -0.85047
 Alpha  occ. eigenvalues --   -0.84733  -0.80470  -0.80421  -0.80244  -0.80149
 Alpha  occ. eigenvalues --   -0.79982  -0.79914  -0.76466  -0.76435  -0.76191
 Alpha  occ. eigenvalues --   -0.76163  -0.76091  -0.75904  -0.75802  -0.75199
 Alpha  occ. eigenvalues --   -0.75032  -0.74294  -0.74227  -0.73859  -0.68050
 Alpha  occ. eigenvalues --   -0.67970  -0.67892  -0.66972  -0.66803  -0.66459
 Alpha  occ. eigenvalues --   -0.66010  -0.65803  -0.65270  -0.62925  -0.62764
 Alpha  occ. eigenvalues --   -0.62606  -0.62500  -0.62346  -0.62153  -0.62124
 Alpha  occ. eigenvalues --   -0.61933  -0.61747  -0.61555  -0.61053  -0.60970
 Alpha  occ. eigenvalues --   -0.59410  -0.59168  -0.58865  -0.58134  -0.58076
 Alpha  occ. eigenvalues --   -0.57950  -0.57474  -0.57296  -0.56776  -0.55845
 Alpha  occ. eigenvalues --   -0.55605  -0.55530  -0.53570  -0.52943  -0.52870
 Alpha  occ. eigenvalues --   -0.52626  -0.52407  -0.52211  -0.51426  -0.51280
 Alpha  occ. eigenvalues --   -0.50947  -0.50651  -0.50347  -0.50077  -0.49907
 Alpha  occ. eigenvalues --   -0.49655  -0.49332  -0.48418  -0.48176  -0.48111
 Alpha  occ. eigenvalues --   -0.48023  -0.47887  -0.47600  -0.47508  -0.47374
 Alpha  occ. eigenvalues --   -0.47089  -0.47050  -0.47015  -0.46910  -0.46712
 Alpha  occ. eigenvalues --   -0.46072  -0.45887  -0.45725  -0.45361  -0.45189
[...]
 Alpha virt. eigenvalues --    4.11462   4.11602   4.11981   4.12473   4.12782
 Alpha virt. eigenvalues --    4.13160   4.13268   4.13482   4.13844   4.14663
 Alpha virt. eigenvalues --    4.14767   4.14942   4.15240   4.15632   4.16055
 Alpha virt. eigenvalues --    4.16445   4.16643   4.16992   4.17231   4.17373
 Alpha virt. eigenvalues --    4.17488   4.17887   4.18177   4.18236   4.18521
 Alpha virt. eigenvalues --    4.18708   4.18939   4.19123   4.19209   4.19410
 Alpha virt. eigenvalues --    4.19612   4.19808   4.19930   4.20662   4.20731
 Alpha virt. eigenvalues --    4.20950   4.21280   4.21623   4.21815   4.22019
 Alpha virt. eigenvalues --    4.22651   4.22750   4.23140   4.23335   4.23436
 Alpha virt. eigenvalues --    4.23753   4.24276   4.24458   4.24625   4.24912
 Alpha virt. eigenvalues --    4.25175   4.25384   4.25577   4.25845   4.25986
 Alpha virt. eigenvalues --    4.26082   4.26324   4.26399   4.26485   4.26872
 Alpha virt. eigenvalues --    4.26956   4.27206   4.27369   4.27563   4.27900
 Alpha virt. eigenvalues --    4.28210   4.28263   4.28559   4.29023   4.29115
 Alpha virt. eigenvalues --    4.29479   4.29755   4.30041   4.30094   4.30357
 Alpha virt. eigenvalues --    4.30683   4.30821   4.31038   4.31399   4.31715
 Alpha virt. eigenvalues --    4.32143   4.32415   4.32644   4.33119   4.33274
 Alpha virt. eigenvalues --    4.33878   4.34238   4.34441   4.34860   4.35129
 Alpha virt. eigenvalues --    4.35296   4.35451   4.35891   4.36802   4.37186
 Alpha virt. eigenvalues --    4.37415   4.37784   4.38316   4.38454   4.38713
 Alpha virt. eigenvalues --    4.39104   4.39579   4.39703   4.39934   4.40069
 Alpha virt. eigenvalues --    4.40370   4.40542   4.40856   4.41432   4.41973
 Alpha virt. eigenvalues --    4.41986   4.42442   4.42882   4.42971   4.43608
 Alpha virt. eigenvalues --    4.43712   4.44026   4.44097   4.44648   4.45060
 Alpha virt. eigenvalues --    4.45492   4.46036   4.46179   4.46622   4.46909
 Alpha virt. eigenvalues --    4.46982   4.47688   4.49078   4.49245   4.49821
 Alpha virt. eigenvalues --    4.51265   4.52716   4.52832   4.53311   4.53828
 Alpha virt. eigenvalues --    4.54019   4.54595   4.54744   4.55153   4.55546
 Alpha virt. eigenvalues --    4.55743   4.56099   4.56562   4.56834   4.57397
 Alpha virt. eigenvalues --    4.58694   4.59198   4.59494   4.60070   4.60527
 Alpha virt. eigenvalues --    4.61011   4.61448   4.61791   4.62715   4.62891
 Alpha virt. eigenvalues --    4.63563   4.63918   4.64235   4.64299   4.64414
 Alpha virt. eigenvalues --    4.64854   4.65293   4.65861   4.66043   4.66335
 Alpha virt. eigenvalues --    4.66467   4.66772   4.67356   4.67770   4.68118
 Alpha virt. eigenvalues --    4.68334   4.68577   4.68899   4.68935   4.69649
 Alpha virt. eigenvalues --    4.70173   4.70711   4.70741   4.71410   4.71596
 Alpha virt. eigenvalues --    4.72497   4.72623   4.73161   4.73347   4.73930
 Alpha virt. eigenvalues --    4.74441   4.74594   4.74916   4.75315   4.75570
 Alpha virt. eigenvalues --    4.75927   4.76108   4.76940   4.77564   4.78266
 Alpha virt. eigenvalues --    4.78452   4.78840   4.79685   4.80486   4.80614
 Alpha virt. eigenvalues --    4.80946   4.81154   4.81611   4.81985   4.82468
 Alpha virt. eigenvalues --    4.83142   4.83392   4.83749   4.84456   4.84482
 Alpha virt. eigenvalues --    4.84803   4.85244   4.85669   4.86225   4.86407
 Alpha virt. eigenvalues --    4.86946   4.87135   4.87733   4.88371   4.88401
 Alpha virt. eigenvalues --    4.88630   4.89272   4.89572   4.89929   4.90770
 Alpha virt. eigenvalues --    4.91094   4.91229   4.91923   4.92047   4.92735
 Alpha virt. eigenvalues --    4.92898   4.93439   4.93928   4.94252   4.94696
 Alpha virt. eigenvalues --    4.94776   4.95341   4.95593   4.96310   4.96885
 Alpha virt. eigenvalues --    4.97123   4.97637   4.98314   4.98851   4.98931
 Alpha virt. eigenvalues --    4.99155   4.99638   5.00482   5.01346   5.01891
 Alpha virt. eigenvalues --    5.02339   5.02619   5.02833   5.03158   5.03957
 Alpha virt. eigenvalues --    5.04028   5.04522   5.05131   5.05404   5.05610
 Alpha virt. eigenvalues --    5.05800   5.06079   5.06254   5.06537   5.07047
 Alpha virt. eigenvalues --    5.07226   5.07606   5.07764   5.08415   5.08734
 Alpha virt. eigenvalues --    5.08862   5.08976   5.09375   5.10003   5.10328
 Alpha virt. eigenvalues --    5.10667   5.11038   5.11672   5.12043   5.12610
 Alpha virt. eigenvalues --    5.12750   5.13322   5.13585   5.13899   5.14444
 Alpha virt. eigenvalues --    5.15302   5.15649   5.16138   5.16522   5.17221
 Alpha virt. eigenvalues --    5.17855   5.18119   5.18725   5.19567   5.20023
 Alpha virt. eigenvalues --    5.20924   5.21311   5.21455   5.22885   5.23652
 Alpha virt. eigenvalues --    5.24265   5.25496   5.25928   5.26110   5.27752
 Alpha virt. eigenvalues --    5.27989   5.28076   5.28589   5.28894   5.29404
 Alpha virt. eigenvalues --    5.30053   5.30768   5.30954   5.32340   5.32877
 Alpha virt. eigenvalues --    5.33333   5.34092   5.35116   5.35480   5.36126
 Alpha virt. eigenvalues --    5.36353   5.37969   5.38398   5.38625   5.38726
 Alpha virt. eigenvalues --    5.38939   5.39866   5.40429   5.40620   5.40886
 Alpha virt. eigenvalues --    5.41169   5.41550   5.42338   5.42779   5.43439
 Alpha virt. eigenvalues --    5.43798   5.44085   5.45258   5.45793   5.46156
 Alpha virt. eigenvalues --    5.46535   5.47262   5.47670   5.48253   5.48699
 Alpha virt. eigenvalues --    5.49092   5.49589   5.50321   5.50607   5.51796
 Alpha virt. eigenvalues --    5.52175   5.53031   5.53642   5.54456   5.54785
 Alpha virt. eigenvalues --    5.56579   5.57573   5.57711   5.58391   5.58886
 Alpha virt. eigenvalues --    5.60326   5.60540   5.61295   5.62327   5.65454
 Alpha virt. eigenvalues --    5.66095   5.67856   5.68792   5.69955   5.70627
 Alpha virt. eigenvalues --    5.71366   5.72107   5.72451   5.72530   5.72680
 Alpha virt. eigenvalues --    5.74060   5.74703   5.75457   5.76429   5.77287
 Alpha virt. eigenvalues --    5.78146   5.79279   5.79743   5.80716   5.81135
 Alpha virt. eigenvalues --    5.82668   5.83409   5.83578   5.84203   5.84483
 Alpha virt. eigenvalues --    5.85038   5.87007   5.88917   5.95396   5.97346
 Alpha virt. eigenvalues --    5.98219   5.99876   6.00159   6.00579   6.02059
 Alpha virt. eigenvalues --    6.02821   6.03318   6.05370   6.06266   6.07601
 Alpha virt. eigenvalues --    6.08286   6.09393   6.11467   6.12730   6.12788
 Alpha virt. eigenvalues --    6.14651  22.48224  22.50081  22.52861  22.55964
 Alpha virt. eigenvalues --   22.56349  22.56993  22.57402  22.58417  22.58583
 Alpha virt. eigenvalues --   22.59389  22.59820  22.59921  22.60667  22.62254
 Alpha virt. eigenvalues --   22.62942  22.63676  22.64254  22.64654  22.66037
 Alpha virt. eigenvalues --   22.67693  22.68091  22.68526  22.68651  22.68884
 Alpha virt. eigenvalues --   22.72281  22.72494  22.73369  22.74452  22.76072
 Alpha virt. eigenvalues --   22.76840  22.83941  22.85001  22.85329  22.89669
 Alpha virt. eigenvalues --   22.90417  22.92284  22.92532  22.93227  22.93753
 Alpha virt. eigenvalues --   22.94113  22.94843  22.96023  22.96542  22.98826
 Alpha virt. eigenvalues --   22.99356  23.00708  23.02742  23.05695  23.09848
 Alpha virt. eigenvalues --   23.11732  23.12995  23.16476  23.17236  23.17707
 Alpha virt. eigenvalues --   23.18132  23.18786  23.19751  23.20981  23.21542
 Alpha virt. eigenvalues --   23.25145  23.51937  23.53333  23.53614  32.58231
 Alpha virt. eigenvalues --   32.64007  32.65103  32.72081  32.78059  32.79432
 Alpha virt. eigenvalues --   32.80642  32.81301  32.86006  32.88198  32.89882
 Alpha virt. eigenvalues --   32.90156
          Condensed to atoms (all electrons):
 Mulliken charges:
               1
     1  C    0.291466
     2  C   -0.007824
     3  C   -0.377010
     4  C    0.380960
     5  H    0.129648
     6  C   -0.361161
     7  C    0.408173
     8  H    0.117593
     9  C   -0.477953
    10  C   -0.179975
    11  H    0.121563
    12  C   -0.174401
    13  H    0.084724
    14  H    0.088814
    15  C    0.107964
    16  C    0.091552
    17  C   -0.355444
    18  C    0.412883
    19  H    0.142743
    20  C   -0.393881
    21  C    0.418530
    22  H    0.124500
    23  C   -0.418799
    24  C   -0.193094
    25  H    0.122956
    26  C   -0.191076
    27  H    0.094350
    28  H    0.086983
    29  C    0.119980
    30  C    0.072573
    31  C   -0.313393
    32  C    0.329880
    33  H    0.130972
    34  C   -0.404039
    35  C    0.393557
    36  H    0.116959
    37  C   -0.346426
    38  C   -0.193618
    39  H    0.150425
    40  C   -0.165028
    41  H    0.084784
    42  H    0.097097
    43  C   -0.076333
    44  C   -0.000673
    45  N   -0.282610
    46  H    0.037803
    47  C   -0.150201
    48  N   -0.286829
    49  H    0.056746
    50  C   -0.167166
    51  C   -0.192541
    52  C   -0.192113
    53  C   -0.059502
    54  C   -0.097504
    55  N   -0.294645
    56  H    0.070768
    57  C   -0.149131
    58  N   -0.271671
    59  H    0.063231
    60  C   -0.171920
    61  C   -0.198584
    62  C   -0.197222
    63  C   -0.079012
    64  C   -0.077032
    65  N   -0.247390
    66  H    0.069338
    67  C   -0.153279
    68  N   -0.330665
    69  H    0.046405
    70  C   -0.190545
    71  C   -0.111024
    72  C   -0.209933
    73  C    0.042259
    74  C    0.036332
    75  N   -0.199127
    76  H    0.051351
    77  C   -0.200447
    78  N   -0.193885
    79  H    0.054553
    80  C   -0.192533
    81  C   -0.172057
    82  C   -0.177201
    83  C    0.046906
    84  C    0.004898
    85  N   -0.191961
    86  H    0.054722
    87  C   -0.174630
    88  N   -0.201848
    89  H    0.065721
    90  C   -0.162360
    91  C   -0.186087
    92  C   -0.189158
    93  C    0.076791
    94  C    0.021607
    95  N   -0.197301
    96  H    0.046842
    97  C   -0.188115
    98  N   -0.188998
    99  H    0.051893
   100  C   -0.198811
   101  C   -0.184301
   102  C   -0.176879
   103  H    0.202578
   104  H    0.104700
   105  H    0.211570
   106  H    0.225444
   107  H    0.201973
   108  H    0.111619
   109  H    0.169617
   110  H    0.203004
   111  H    0.088932
   112  H    0.111858
   113  H    0.090970
   114  H    0.111630
   115  H    0.091263
   116  H    0.112482
   117  H    0.102024
   118  H    0.109835
   119  H    0.102758
   120  H    0.095735
   121  H    0.113922
   122  H    0.099877
   123  H    0.112835
   124  H    0.091897
   125  H    0.102834
   126  H    0.108332
   127  H    0.093272
   128  H    0.111260
   129  H    0.092757
   130  H    0.107276
   131  H    0.099193
   132  H    0.111874
   133  H    0.092185
   134  H    0.109012
   135  H    0.102312
   136  H    0.112424
   137  H    0.104718
   138  H    0.112109
   139  H    0.092507
   140  H    0.111745
   141  H    0.092674
   142  H    0.109467
   143  H    0.101880
   144  H    0.115490
   145  H    0.100121
   146  H    0.115272
   147  H    0.099235
   148  H    0.099834
   149  H    0.111509
   150  H    0.097392
   151  H    0.108251
   152  H    0.116878
   153  H    0.116566
   154  H    0.094394
   155  H    0.066951
   156  H    0.115573
   157  H    0.101704
   158  H    0.095066
   159  H    0.107963
 Sum of Mulliken charges =   0.00000
 Mulliken charges with hydrogens summed into heavy atoms:
               1
     1  C    0.291466
     2  C    0.081108
     3  C   -0.247362
     4  C    0.380960
     6  C   -0.243568
     7  C    0.408173
     9  C   -0.356391
    10  C   -0.095251
    12  C   -0.085587
    15  C    0.107964
    16  C    0.196252
    17  C   -0.212701
    18  C    0.412883
    20  C   -0.269381
    21  C    0.418530
    23  C   -0.295843
    24  C   -0.098745
    26  C   -0.104093
    29  C    0.119980
    30  C    0.184192
    31  C   -0.182421
    32  C    0.329880
    34  C   -0.287080
    35  C    0.393557
    37  C   -0.196001
    38  C   -0.108834
    40  C   -0.067931
    43  C   -0.038531
    44  C    0.056073
    45  N   -0.079606
    47  C    0.051403
    48  N   -0.117212
    50  C    0.027565
    51  C    0.017116
    52  C    0.020599
    53  C    0.011265
    54  C   -0.034273
    55  N   -0.092068
    57  C    0.056513
    58  N   -0.060100
    60  C    0.039422
    61  C    0.017028
    62  C    0.017285
    63  C   -0.009674
    64  C   -0.030627
    65  N   -0.045418
    67  C    0.049750
    68  N   -0.105221
    70  C    0.042899
    71  C    0.050322
    72  C    0.007344
    73  C    0.093611
    74  C    0.090884
    75  N   -0.199127
    77  C    0.014059
    78  N   -0.193885
    80  C    0.020060
    81  C    0.030771
    82  C    0.025691
    83  C    0.101628
    84  C    0.070619
    85  N   -0.191961
    87  C    0.036694
    88  N   -0.201848
    90  C    0.044109
    91  C    0.017973
    92  C    0.014859
    93  C    0.123633
    94  C    0.073501
    95  N   -0.197301
    97  C    0.023232
    98  N   -0.188998
   100  C    0.018331
   101  C    0.020118
   102  C    0.027736
 Electronic spatial extent (au):  <R**2>=          74341.7813
 Charge=              0.0000 electrons
 Dipole moment (field-independent basis, Debye):
    X=             -5.3253    Y=             -2.5006    Z=             -2.3557  Tot=              6.3373
 Quadrupole moment (field-independent basis, Debye-Ang):
   XX=           -417.4663   YY=           -428.2808   ZZ=           -432.8919
   XY=             -2.6359   XZ=              9.4899   YZ=             20.9665
 Traceless Quadrupole moment (field-independent basis, Debye-Ang):
   XX=              8.7467   YY=             -2.0678   ZZ=             -6.6789
   XY=             -2.6359   XZ=              9.4899   YZ=             20.9665
 Octapole moment (field-independent basis, Debye-Ang**2):
  XXX=           -298.2769  YYY=             -2.8624  ZZZ=              4.3283  XYY=             -2.7974
  XXY=             10.5941  XXZ=            -56.3351  XZZ=             -9.2361  YZZ=            -70.1165
  YYZ=            -51.3117  XYZ=             48.2194
 Hexadecapole moment (field-independent basis, Debye-Ang**3):
 XXXX=         -50258.3005 YYYY=         -26098.4683 ZZZZ=         -19951.3152 XXXY=            371.2062
 XXXZ=            404.2496 YYYX=           -607.5146 YYYZ=            247.4395 ZZZX=            -52.8471
 ZZZY=            158.6484 XXYY=         -13335.4801 XXZZ=         -12464.0579 YYZZ=          -7808.6982
 XXYZ=            407.3705 YYXZ=             51.2214 ZZXY=            -22.9631
 N-N= 1.288141280505D+04 E-N=-3.298297617599D+04  KE= 3.091010218446D+03
 Leave Link  601 at Mon Oct 18 11:15:22 2021, MaxMem=  7864320000 cpu:              68.2 elap:               2.6
 (Enter /apps/gaussian/g16-c01-avx/g16/l9999.exe)
 Unable to Open any file for archive entry.
 1\1\GINC-CX3-5-11\SP\RPBE1PBE\def2TZVP\C63H84N12\ATARZIA\18-Oct-2021\0
 \\#P PBE1PBE/Def2TZVP SP SCF=(YQC,MaxCycle=900) int=(Grid=Superfinegri
 d) EmpiricalDispersion=GD3 SCRF=(PCM,Solvent=Chloroform)\\_3_alde1_6_a
 mi3_1_opt_cfm\\0,1\C,0,-4.2028,-0.7465,-0.1872\C,0,-5.0591,-0.3318,0.9
 818\C,0,-3.216,-1.7105,-0.0464\C,0,-2.4341,-2.0884,-1.1366\H,0,-3.0927
 ,-2.1904,0.9124\C,0,-2.6132,-1.4456,-2.3589\C,0,-3.6002,-0.4797,-2.511
 8\H,0,-1.9939,-1.7442,-3.1907\C,0,-4.4028,-0.1467,-1.4209\C,0,-3.7822,
 0.1673,-3.8029\H,0,-5.1826,0.5863,-1.5533\C,0,-1.5067,-3.2056,-1.0244\
 H,0,-2.9169,0.1095,-4.4827\H,0,-1.3631,-3.6199,-0.014\C,0,3.9293,-1.48
 3,1.3463\C,0,4.3869,-2.1332,2.6329\C,0,4.2222,-0.1564,1.0618\C,0,3.859
 2,0.404,-0.1615\H,0,4.7533,0.4311,1.7959\C,0,3.1735,-0.3679,-1.0946\C,
 0,2.8464,-1.6884,-0.8061\H,0,2.9001,0.0819,-2.0369\C,0,3.2315,-2.2384,
 0.4175\C,0,2.145,-2.513,-1.7806\H,0,2.9834,-3.2686,0.6196\C,0,4.2137,1
 .7877,-0.4515\H,0,1.8726,-2.0232,-2.7275\H,0,4.3612,2.4344,0.4287\C,0,
 -1.2058,2.9168,-0.2001\C,0,-1.3017,2.577,1.2662\C,0,-2.3618,2.8905,-0.
 9691\C,0,-2.3051,3.1238,-2.3413\H,0,-3.3107,2.6735,-0.4989\C,0,-1.0725
 ,3.3618,-2.9448\C,0,0.0842,3.4106,-2.1774\H,0,-1.0445,3.5238,-4.0116\C
 ,0,0.0094,3.1944,-0.8004\C,0,1.3793,3.637,-2.8038\H,0,0.9113,3.2397,-0
 .2123\C,0,-3.5327,3.076,-3.1151\H,0,1.4388,3.3976,-3.8782\H,0,-4.4472,
 2.9192,-2.5245\C,0,-4.4854,-0.4939,3.2414\C,0,-4.9474,0.9294,2.8857\N,
 0,-4.9613,-1.2872,2.114\H,0,-3.3867,-0.5125,3.2009\C,0,-4.939,-0.8696,
 4.6374\N,0,-4.6672,1.0013,1.4595\H,0,-6.0411,0.9845,2.9981\C,0,-4.3047
 ,1.9463,3.8052\C,0,-4.3295,0.1491,5.6059\C,0,-4.7017,1.5893,5.2413\C,0
 ,6.523,-1.5501,3.2693\C,0,6.4587,-3.0812,3.1357\N,0,5.1282,-1.1864,3.4
 776\H,0,6.8169,-1.1275,2.2977\C,0,7.5414,-1.151,4.3165\N,0,5.2603,-3.2
 963,2.3379\H,0,6.2592,-3.5107,4.1298\C,0,7.7788,-3.6191,2.6224\C,0,8.8
 989,-1.7022,3.8676\C,0,8.862,-3.2146,3.6279\C,0,0.5195,1.6354,2.3718\C
 ,0,-0.6992,0.7078,2.509\N,0,-0.0735,2.9127,2.0021\H,0,1.1259,1.2954,1.
 5193\C,0,1.3524,1.5759,3.6362\N,0,-1.5684,1.1238,1.4172\H,0,-1.2234,0.
 9658,3.4432\C,0,-0.2505,-0.7362,2.5843\C,0,1.7978,0.1233,3.83\C,0,0.62
 68,-0.8643,3.8344\C,0,-0.1626,-4.885,-1.9627\C,0,1.2453,-4.5561,-2.502
 5\N,0,-0.966,-3.7069,-2.0472\H,0,-0.0581,-5.2511,-0.9254\C,0,-0.8341,-
 5.9513,-2.836\N,0,1.8996,-3.726,-1.5425\H,0,1.1239,-4.0554,-3.4795\C,0
 ,2.0782,-5.8326,-2.6514\C,0,0.0182,-7.208,-2.9485\C,0,1.3826,-6.8614,-
 3.5322\C,0,-4.9041,1.4584,-5.3707\C,0,-4.8128,2.9736,-5.0342\N,0,-4.85
 34,0.7466,-4.1348\H,0,-4.0467,1.2102,-6.0231\C,0,-6.2174,1.181,-6.0986
 \N,0,-3.5632,3.1895,-4.3739\H,0,-5.667,3.2084,-4.3757\C,0,-4.8944,3.78
 95,-6.3204\C,0,-6.3118,2.0096,-7.375\C,0,-6.1951,3.4981,-7.0606\C,0,4.
 6982,3.5825,-1.8472\C,0,3.6423,4.1925,-2.787\N,0,4.3654,2.2085,-1.6291
 \H,0,4.6872,4.154,-0.9011\C,0,6.0797,3.6961,-2.4954\N,0,2.3688,4.0615,
 -2.1503\H,0,3.6711,3.6533,-3.7511\C,0,3.9743,5.6676,-3.0273\C,0,6.4184
 ,5.1581,-2.7658\C,0,5.3581,5.8034,-3.6535\H,0,4.8863,-1.3288,4.4535\H,
 0,3.5063,-2.501,3.1776\H,0,5.4951,-3.3023,1.349\H,0,-1.3001,0.6394,0.5
 628\H,0,-0.2961,3.447,2.8352\H,0,-2.1552,3.1204,1.6974\H,0,-3.6568,1.1
 068,1.3373\H,0,-5.8738,-1.68,2.319\H,0,-6.1049,-0.2658,0.6419\H,0,-0.4
 896,-7.9379,-3.5823\H,0,0.1481,-7.6527,-1.9593\H,0,2.0007,-7.7585,-3.6
 059\H,0,1.2552,-6.4564,-4.5388\H,0,-1.8102,-6.1872,-2.4065\H,0,-1.,-5.
 5219,-3.8257\H,0,3.0513,-5.5664,-3.0696\H,0,2.2445,-6.2447,-1.6545\H,0
 ,-3.242,0.0437,5.5859\H,0,-4.6656,-0.0633,6.6229\H,0,-5.7813,1.7169,5.
 3507\H,0,-4.2152,2.2742,5.9391\H,0,-3.2206,1.9063,3.6909\H,0,-4.6382,2
 .956,3.5599\H,0,-4.6132,-1.8789,4.8965\H,0,-6.0302,-0.8373,4.6972\H,0,
 -6.2314,4.0783,-7.9849\H,0,-7.0404,3.8038,-6.4395\H,0,-4.828,4.8502,-6
 .0705\H,0,-4.0371,3.5386,-6.9471\H,0,-7.2613,1.8071,-7.8748\H,0,-5.506
 7,1.7194,-8.0543\H,0,-6.2735,0.1157,-6.3321\H,0,-7.0439,1.4212,-5.4278
 \H,0,3.2153,6.1005,-3.6827\H,0,3.9349,6.1957,-2.073\H,0,5.5912,6.8596,
 -3.8037\H,0,5.3611,5.3169,-4.6318\H,0,7.397,5.2261,-3.2458\H,0,6.4719,
 5.6974,-1.8171\H,0,6.8238,3.25,-1.8317\H,0,6.0772,3.1277,-3.4271\H,0,9
 .6542,-1.4765,4.6227\H,0,9.1928,-1.2008,2.9425\H,0,9.8381,-3.5446,3.26
 77\H,0,8.6685,-3.7224,4.5758\H,0,7.9968,-3.1908,1.6407\H,0,7.7433,-4.7
 049,2.5213\H,0,7.2648,-1.5751,5.2851\H,0,7.5892,-0.0658,4.4205\H,0,0.3
 218,-0.9976,1.6902\H,0,-1.1067,-1.4101,2.6519\H,0,2.3466,0.0334,4.7694
 \H,0,2.4801,-0.1377,3.0212\H,0,1.0179,-1.8811,3.9026\H,0,0.0074,-0.687
 3,4.718\H,0,0.7542,1.9085,4.4895\H,0,2.2249,2.2259,3.5582\\Version=ES6
 4L-G16RevC.01\State=1-A\HF=-3105.8791403\RMSD=2.286e-09\Dipole=1.29749
 88,-0.4672097,2.0771611\Quadrupole=6.4613851,-20.5297271,14.0683419,0.
 1851195,0.4330891,-0.68701\PG=C01 [X(C63H84N12)]\\@
 The archive entry for this job was punched.


 WISDOM IS KNOWING WHAT TO DO,
 SKILL IS KNOWING HOW TO DO IT,
 AND VIRTUE IS NOT DOING IT.
 Job cpu time:       3 days  7 hours 53 minutes 39.5 seconds.
 Elapsed time:       0 days  2 hours 31 minutes  9.6 seconds.
 File lengths (MBytes):  RWF=   5912 Int=      0 D2E=      0 Chk=    472 Scr=     16
 Normal termination of Gaussian 16 at Mon Oct 18 11:15:22 2021.
