 Entering Gaussian System, Link 0=g16
 Initial command:
 /apps/gaussian/g16-c01-avx/g16/l1.exe "/rds/general/ephemeral/user/atarzia/ephemeral/Gau-1929264.inp" -scrdir="/rds/general/ephemeral/user/atarzia/ephemeral/"
 Entering Link 1 = /apps/gaussian/g16-c01-avx/g16/l1.exe PID=   1929265.
  
 Copyright (c) 1988-2019, Gaussian, Inc.  All Rights Reserved.
  
 This is part of the Gaussian(R) 16 program.  It is based on
 the Gaussian(R) 09 system (copyright 2009, Gaussian, Inc.),
 the Gaussian(R) 03 system (copyright 2003, Gaussian, Inc.),
 the Gaussian(R) 98 system (copyright 1998, Gaussian, Inc.),
 the Gaussian(R) 94 system (copyright 1995, Gaussian, Inc.),
 the Gaussian 92(TM) system (copyright 1992, Gaussian, Inc.),
 the Gaussian 90(TM) system (copyright 1990, Gaussian, Inc.),
 the Gaussian 88(TM) system (copyright 1988, Gaussian, Inc.),
 the Gaussian 86(TM) system (copyright 1986, Carnegie Mellon
 University), and the Gaussian 82(TM) system (copyright 1983,
 Carnegie Mellon University). Gaussian is a federally registered
 trademark of Gaussian, Inc.
  
 This software contains proprietary and confidential information,
 including trade secrets, belonging to Gaussian, Inc.
  
 This software is provided under written license and may be
 used, copied, transmitted, or stored only in accord with that
 written license.
  
 The following legend is applicable only to US Government
 contracts under FAR:
  
                    RESTRICTED RIGHTS LEGEND
  
 Use, reproduction and disclosure by the US Government is
 subject to restrictions as set forth in subparagraphs (a)
 and (c) of the Commercial Computer Software - Restricted
 Rights clause in FAR 52.227-19.
  
 Gaussian, Inc.
 340 Quinnipiac St., Bldg. 40, Wallingford CT 06492
  
  
 ---------------------------------------------------------------
 Warning -- This program may not be used in any manner that
 competes with the business of Gaussian, Inc. or will provide
 assistance to any competitor of Gaussian, Inc.  The licensee
 of this program is prohibited from giving any competitor of
 Gaussian, Inc. access to this program.  By using this program,
 the user acknowledges that Gaussian, Inc. is engaged in the
 business of creating and licensing software in the field of
 computational chemistry and represents and warrants to the
 licensee that it is not a competitor of Gaussian, Inc. and that
 it will not use this program in any manner prohibited above.
 ---------------------------------------------------------------
  

 Cite this work as:
 Gaussian 16, Revision C.01,
 M. J. Frisch, G. W. Trucks, H. B. Schlegel, G. E. Scuseria, 
 M. A. Robb, J. R. Cheeseman, G. Scalmani, V. Barone, 
 G. A. Petersson, H. Nakatsuji, X. Li, M. Caricato, A. V. Marenich, 
 J. Bloino, B. G. Janesko, R. Gomperts, B. Mennucci, H. P. Hratchian, 
 J. V. Ortiz, A. F. Izmaylov, J. L. Sonnenberg, D. Williams-Young, 
 F. Ding, F. Lipparini, F. Egidi, J. Goings, B. Peng, A. Petrone, 
 T. Henderson, D. Ranasinghe, V. G. Zakrzewski, J. Gao, N. Rega, 
 G. Zheng, W. Liang, M. Hada, M. Ehara, K. Toyota, R. Fukuda, 
 J. Hasegawa, M. Ishida, T. Nakajima, Y. Honda, O. Kitao, H. Nakai, 
 T. Vreven, K. Throssell, J. A. Montgomery, Jr., J. E. Peralta, 
 F. Ogliaro, M. J. Bearpark, J. J. Heyd, E. N. Brothers, K. N. Kudin, 
 V. N. Staroverov, T. A. Keith, R. Kobayashi, J. Normand, 
 K. Raghavachari, A. P. Rendell, J. C. Burant, S. S. Iyengar, 
 J. Tomasi, M. Cossi, J. M. Millam, M. Klene, C. Adamo, R. Cammi, 
 J. W. Ochterski, R. L. Martin, K. Morokuma, O. Farkas, 
 J. B. Foresman, and D. J. Fox, Gaussian, Inc., Wallingford CT, 2019.
 
 ******************************************
 Gaussian 16:  ES64L-G16RevC.01  3-Jul-2019
                17-Oct-2021 
 ******************************************
 %chk=_4_alde1_6_ami3_1_opt_cfm.chk
 %mem=60000mb
 %nprocshared=32
 Will use up to   32 processors via shared memory.
 ----------------------------------------------------------------------
 #P PBE1PBE/Def2TZVP SP SCF=(YQC,MaxCycle=900) int=(Grid=Superfinegrid)
  EmpiricalDispersion=GD3 SCRF=(PCM,Solvent=Chloroform)
 ----------------------------------------------------------------------
 1/38=1,172=1/1;
 2/12=2,17=6,18=5,40=1/2;
 3/5=44,7=101,11=2,25=1,30=1,70=2201,72=7,74=-13,75=-7,124=31/1,2,3;
 4//1;
 5/5=2,7=900,8=4,13=1,38=1,53=7/8,2,8;
 6/7=2,8=2,9=2,10=2,28=1/1;
 99/5=1,9=1/99;
 Leave Link    1 at Sun Oct 17 23:17:05 2021, MaxMem=  7864320000 cpu:               6.1 elap:               0.2
 (Enter /apps/gaussian/g16-c01-avx/g16/l101.exe)
 -------------------------
 _4_alde1_6_ami3_1_opt_cfm
 -------------------------
 Symbolic Z-matrix:
 Charge =  0 Multiplicity = 1
 C                    -1.3617   -0.3363    4.0772 
 C                    -2.7717   -0.698     4.1104 
 C                    -0.985     1.0014    4.069 
 C                     0.3628    1.3606    4.0764 
 H                    -1.7234    1.7885    4.0711 
 C                     1.333     0.3656    4.0819 
 C                     0.9701   -0.9813    4.0902 
 H                     2.3838    0.6116    4.0942 
 C                    -0.3767   -1.324     4.0827 
 C                     1.9883   -2.0211    4.137 
 H                    -0.6892   -2.357     4.0953 
 C                     0.754     2.7628    4.1088 
 H                     1.6278   -3.0508    3.9877 
 H                    -3.4816    0.1284    3.9507 
 H                     1.8262    2.964     3.9596 
 C                    -3.5094   -2.4793   -0.0849 
 C                    -3.7494   -3.0691    1.2245 
 C                    -2.7304   -3.1513   -1.0193 
 C                    -2.525    -2.616    -2.2909 
 H                    -2.2809   -4.1048   -0.7878 
 C                    -3.0996   -1.3931   -2.6161 
 C                    -3.8839   -0.707    -1.6887 
 H                    -2.9645   -0.9559   -3.5935 
 C                    -4.0799   -1.2528   -0.4257 
 C                    -4.5174    0.5543   -2.0464 
 H                    -4.6866   -0.7492    0.3113 
 C                    -1.7421   -3.3422   -3.2807 
 H                    -4.9882    1.1055   -1.2176 
 H                    -3.1434   -3.9557    1.4677 
 H                    -1.4986   -2.7868   -4.1997 
 C                     3.9091   -1.8151   -0.0566 
 C                     4.5371   -1.7139    1.2531 
 C                     4.1037   -0.8146   -1.0014 
 C                     3.5401   -0.918    -2.2731 
 H                     4.7043    0.0538   -0.778 
 C                     2.7691   -2.0305   -2.5881 
 C                     2.5649   -3.0427   -1.6502 
 H                     2.325    -2.1426   -3.5653 
 C                     3.1329   -2.926    -0.3871 
 C                     1.7901   -4.2259   -1.9967 
 H                     2.9984   -3.6953    0.3579 
 C                     3.7799    0.1125   -3.2735 
 H                     1.5466   -4.9002   -1.1611 
 H                     5.0016   -0.7433    1.4868 
 H                     3.1792    0.036    -4.1931 
 C                    -0.376     4.2769   -0.1037 
 C                    -0.7809    4.7842    1.1997 
 C                    -1.3373    3.9348   -1.0472 
 C                    -0.9626    3.4847   -2.3132 
 H                    -2.3902    4.0229   -0.8274 
 C                     0.3871    3.37     -2.6235 
 C                     1.3634    3.7095   -1.6867 
 H                     0.7087    3.0308   -3.5963 
 C                     0.9751    4.1566   -0.4294 
 C                     2.7763    3.6265   -2.0289 
 H                     1.7065    4.433     0.3145 
 C                    -1.9723    3.1661   -3.3128 
 H                     3.48      3.7615   -1.1928 
 H                    -1.8542    4.703     1.4319 
 H                    -1.6033    2.674    -4.226 
 C                    -4.5443   -2.1913    4.3828 
 C                    -4.8392   -3.2296    3.2814 
 N                    -3.1507   -1.8786    4.3373 
 N                    -4.6179   -2.6088    2.0135 
 C                    -6.3021   -3.6737    3.3641 
 H                    -4.1721   -4.0966    3.4387 
 C                    -6.6207   -4.2546    4.7363 
 H                    -6.4896   -4.4137    2.5831 
 H                    -6.9361   -2.8081    3.1644 
 C                    -6.3269   -3.23      5.8268 
 H                    -6.0128   -5.1468    4.9036 
 H                    -7.6707   -4.5516    4.7737 
 C                    -4.8717   -2.7837    5.7562 
 H                    -6.5311   -3.6594    6.8097 
 H                    -6.9798   -2.3639    5.6961 
 H                    -4.208    -3.632     5.9318 
 H                    -4.6651   -2.0324    6.5214 
 H                    -5.1736   -1.3025    4.195 
 C                     4.1671   -2.8067    4.4228 
 C                     5.2162   -2.5551    3.3208 
 N                     3.1997   -1.7567    4.3637 
 N                     4.5706   -2.6876    2.0529 
 C                     6.3318   -3.5993    3.4174 
 H                     5.6333   -1.5424    3.4681 
 C                     6.9912   -3.5699    4.7907 
 H                     7.0681   -3.4003    2.6357 
 H                     5.8994   -4.5832    3.2274 
 C                     5.9546   -3.8157    5.8818 
 H                     7.4598   -2.5957    4.9484 
 H                     7.7732   -4.3305    4.8381 
 C                     4.8409   -2.7793    5.7974 
 H                     6.4265   -3.7672    6.8652 
 H                     5.5311   -4.8154    5.7611 
 H                     5.2435   -1.7785    5.963 
 H                     4.0852   -2.9674    6.5631 
 H                     3.7123   -3.7981    4.2448 
 C                     0.3435    5.0454    4.369 
 C                    -0.397     5.8157    3.2571 
 N                    -0.0814    3.6818    4.3239 
 N                     0.0435    5.3093    1.9956 
 C                    -0.0517    7.3051    3.3382 
 H                    -1.4829    5.6715    3.4036 
 C                    -0.41      7.8761    4.7047 
 H                    -0.5909    7.8344    2.5497 
 H                     1.0169    7.4212    3.1492 
 C                     0.3194    7.1136    5.8056 
 H                    -1.4883    7.7958    4.861 
 H                    -0.1431    8.9342    4.7411 
 C                    -0.0202    5.6299    5.7366 
 H                     0.0392    7.5085    6.7842 
 H                     1.3971    7.2461    5.6856 
 H                    -1.0885    5.4793    5.9018 
 H                     0.5194    5.0782    6.5095 
 H                     1.4298    5.1457    4.1921 
 C                    -0.6426   -5.2277   -4.1067 
 C                     0.7047   -5.6543   -3.4895 
 N                    -1.3931   -4.5404   -3.1037 
 N                     1.4478   -4.4724   -3.1845 
 C                     1.4977   -6.4886   -4.4991 
 H                     0.4943   -6.2547   -2.5859 
 C                     0.706    -7.7144   -4.9377 
 H                     2.4433   -6.7881   -4.042 
 H                     1.7268   -5.8592   -5.3608 
 C                    -0.6279   -7.2943   -5.5457 
 H                     0.5242   -8.3581   -4.074 
 H                     1.2869   -8.2846   -5.6655 
 C                    -1.4276   -6.4663   -4.5474 
 H                    -1.2031   -8.1764   -5.834 
 H                    -0.4459   -6.7026   -6.4459 
 H                    -1.6568   -7.0613   -3.6617 
 H                    -2.3732   -6.1444   -4.9889 
 H                    -0.4325   -4.5835   -4.9797 
 C                    -5.1958    2.203    -3.5526 
 C                    -4.1459    3.154    -4.1623 
 N                    -4.5473    0.9697   -3.2361 
 N                    -3.1862    3.464    -3.1502 
 C                    -4.821     4.4515   -4.6154 
 H                    -3.6838    2.6464   -5.0284 
 C                    -5.9272    4.1692   -5.6245 
 H                    -4.0645    5.1076   -5.0513 
 H                    -5.231     4.951    -3.7359 
 C                    -6.9647    3.2267   -5.0239 
 H                    -5.4963    3.7122   -6.5183 
 H                    -6.4002    5.1074   -5.9216 
 C                    -6.3041    1.9298   -4.5731 
 H                    -7.7412    3.0061   -5.7591 
 H                    -7.4404    3.7095   -4.1671 
 H                    -5.8645    1.4132   -5.4281 
 H                    -7.0412    1.2626   -4.1212 
 H                    -5.6201    2.6889   -2.6553 
 C                     4.8653    1.9985   -4.1169 
 C                     4.5597    3.385    -3.5148 
 N                     4.6428    1.0155   -3.1041 
 N                     3.1639    3.4408   -3.2138 
 C                     4.8883    4.4784   -4.535 
 H                     5.1827    3.5123   -2.6109 
 C                     6.3467    4.4009   -4.9693 
 H                     4.6739    5.4517   -4.0884 
 H                     4.2308    4.3532   -5.397 
 C                     6.6512    3.0295   -5.5624 
 H                     6.9931    4.5742   -4.1057 
 H                     6.552     5.1815   -5.7046 
 C                     6.3314    1.9333   -4.5535 
 H                     7.7034    2.9693   -5.8476 
 H                     6.0499    2.882    -6.4625 
 H                     6.9592    2.0413   -3.6673 
 H                     6.5264    0.9489   -4.9844 
 H                     4.2043    1.8494   -4.9899 
 
 ITRead=  0  0  0  0  0  0  0  0  0  0  0  0  0  0  0  0  0  0  0  0
 ITRead=  0  0  0  0  0  0  0  0  0  0  0  0  0  0  0  0  0  0  0  0
 ITRead=  0  0  0  0  0  0  0  0  0  0  0  0  0  0  0  0  0  0  0  0
 ITRead=  0  0  0  0  0  0  0  0  0  0  0  0  0  0  0  0  0  0  0  0
 ITRead=  0  0  0  0  0  0  0  0  0  0  0  0  0  0  0  0  0  0  0  0
 ITRead=  0  0  0  0  0  0  0  0  0  0  0  0  0  0  0  0  0  0  0  0
 ITRead=  0  0  0  0  0  0  0  0  0  0  0  0  0  0  0  0  0  0  0  0
 ITRead=  0  0  0  0  0  0  0  0  0  0  0  0  0  0  0  0  0  0  0  0
 ITRead=  0  0  0  0  0  0  0  0
 MicOpt= -1 -1 -1 -1 -1 -1 -1 -1 -1 -1 -1 -1 -1 -1 -1 -1 -1 -1 -1 -1
 MicOpt= -1 -1 -1 -1 -1 -1 -1 -1 -1 -1 -1 -1 -1 -1 -1 -1 -1 -1 -1 -1
 MicOpt= -1 -1 -1 -1 -1 -1 -1 -1 -1 -1 -1 -1 -1 -1 -1 -1 -1 -1 -1 -1
 MicOpt= -1 -1 -1 -1 -1 -1 -1 -1 -1 -1 -1 -1 -1 -1 -1 -1 -1 -1 -1 -1
 MicOpt= -1 -1 -1 -1 -1 -1 -1 -1 -1 -1 -1 -1 -1 -1 -1 -1 -1 -1 -1 -1
 MicOpt= -1 -1 -1 -1 -1 -1 -1 -1 -1 -1 -1 -1 -1 -1 -1 -1 -1 -1 -1 -1
 MicOpt= -1 -1 -1 -1 -1 -1 -1 -1 -1 -1 -1 -1 -1 -1 -1 -1 -1 -1 -1 -1
 MicOpt= -1 -1 -1 -1 -1 -1 -1 -1 -1 -1 -1 -1 -1 -1 -1 -1 -1 -1 -1 -1
 MicOpt= -1 -1 -1 -1 -1 -1 -1 -1
 NAtoms=    168 NQM=      168 NQMF=       0 NMMI=      0 NMMIF=      0
                NMic=       0 NMicF=      0.
                    Isotopes and Nuclear Properties:
 (Nuclear quadrupole moments (NQMom) in fm**2, nuclear magnetic moments (NMagM)
  in nuclear magnetons)

  Atom         1           2           3           4           5           6           7           8           9          10
 IAtWgt=          12          12          12          12           1          12          12           1          12          12
 AtmWgt=  12.0000000  12.0000000  12.0000000  12.0000000   1.0078250  12.0000000  12.0000000   1.0078250  12.0000000  12.0000000
 NucSpn=           0           0           0           0           1           0           0           1           0           0
 AtZEff=  -0.0000000  -0.0000000  -0.0000000  -0.0000000  -0.0000000  -0.0000000  -0.0000000  -0.0000000  -0.0000000  -0.0000000
 NQMom=    0.0000000   0.0000000   0.0000000   0.0000000   0.0000000   0.0000000   0.0000000   0.0000000   0.0000000   0.0000000
 NMagM=    0.0000000   0.0000000   0.0000000   0.0000000   2.7928460   0.0000000   0.0000000   2.7928460   0.0000000   0.0000000
 AtZNuc=   6.0000000   6.0000000   6.0000000   6.0000000   1.0000000   6.0000000   6.0000000   1.0000000   6.0000000   6.0000000

  Atom        11          12          13          14          15          16          17          18          19          20
 IAtWgt=           1          12           1           1           1          12          12          12          12           1
 AtmWgt=   1.0078250  12.0000000   1.0078250   1.0078250   1.0078250  12.0000000  12.0000000  12.0000000  12.0000000   1.0078250
 NucSpn=           1           0           1           1           1           0           0           0           0           1
 AtZEff=  -0.0000000  -0.0000000  -0.0000000  -0.0000000  -0.0000000  -0.0000000  -0.0000000  -0.0000000  -0.0000000  -0.0000000
 NQMom=    0.0000000   0.0000000   0.0000000   0.0000000   0.0000000   0.0000000   0.0000000   0.0000000   0.0000000   0.0000000
 NMagM=    2.7928460   0.0000000   2.7928460   2.7928460   2.7928460   0.0000000   0.0000000   0.0000000   0.0000000   2.7928460
 AtZNuc=   1.0000000   6.0000000   1.0000000   1.0000000   1.0000000   6.0000000   6.0000000   6.0000000   6.0000000   1.0000000

  Atom        21          22          23          24          25          26          27          28          29          30
 IAtWgt=          12          12           1          12          12           1          12           1           1           1
 AtmWgt=  12.0000000  12.0000000   1.0078250  12.0000000  12.0000000   1.0078250  12.0000000   1.0078250   1.0078250   1.0078250
 NucSpn=           0           0           1           0           0           1           0           1           1           1
 AtZEff=  -0.0000000  -0.0000000  -0.0000000  -0.0000000  -0.0000000  -0.0000000  -0.0000000  -0.0000000  -0.0000000  -0.0000000
 NQMom=    0.0000000   0.0000000   0.0000000   0.0000000   0.0000000   0.0000000   0.0000000   0.0000000   0.0000000   0.0000000
 NMagM=    0.0000000   0.0000000   2.7928460   0.0000000   0.0000000   2.7928460   0.0000000   2.7928460   2.7928460   2.7928460
 AtZNuc=   6.0000000   6.0000000   1.0000000   6.0000000   6.0000000   1.0000000   6.0000000   1.0000000   1.0000000   1.0000000

  Atom        31          32          33          34          35          36          37          38          39          40
 IAtWgt=          12          12          12          12           1          12          12           1          12          12
 AtmWgt=  12.0000000  12.0000000  12.0000000  12.0000000   1.0078250  12.0000000  12.0000000   1.0078250  12.0000000  12.0000000
 NucSpn=           0           0           0           0           1           0           0           1           0           0
 AtZEff=  -0.0000000  -0.0000000  -0.0000000  -0.0000000  -0.0000000  -0.0000000  -0.0000000  -0.0000000  -0.0000000  -0.0000000
 NQMom=    0.0000000   0.0000000   0.0000000   0.0000000   0.0000000   0.0000000   0.0000000   0.0000000   0.0000000   0.0000000
 NMagM=    0.0000000   0.0000000   0.0000000   0.0000000   2.7928460   0.0000000   0.0000000   2.7928460   0.0000000   0.0000000
 AtZNuc=   6.0000000   6.0000000   6.0000000   6.0000000   1.0000000   6.0000000   6.0000000   1.0000000   6.0000000   6.0000000

  Atom        41          42          43          44          45          46          47          48          49          50
 IAtWgt=           1          12           1           1           1          12          12          12          12           1
 AtmWgt=   1.0078250  12.0000000   1.0078250   1.0078250   1.0078250  12.0000000  12.0000000  12.0000000  12.0000000   1.0078250
 NucSpn=           1           0           1           1           1           0           0           0           0           1
 AtZEff=  -0.0000000  -0.0000000  -0.0000000  -0.0000000  -0.0000000  -0.0000000  -0.0000000  -0.0000000  -0.0000000  -0.0000000
 NQMom=    0.0000000   0.0000000   0.0000000   0.0000000   0.0000000   0.0000000   0.0000000   0.0000000   0.0000000   0.0000000
 NMagM=    2.7928460   0.0000000   2.7928460   2.7928460   2.7928460   0.0000000   0.0000000   0.0000000   0.0000000   2.7928460
 AtZNuc=   1.0000000   6.0000000   1.0000000   1.0000000   1.0000000   6.0000000   6.0000000   6.0000000   6.0000000   1.0000000

  Atom        51          52          53          54          55          56          57          58          59          60
 IAtWgt=          12          12           1          12          12           1          12           1           1           1
 AtmWgt=  12.0000000  12.0000000   1.0078250  12.0000000  12.0000000   1.0078250  12.0000000   1.0078250   1.0078250   1.0078250
 NucSpn=           0           0           1           0           0           1           0           1           1           1
 AtZEff=  -0.0000000  -0.0000000  -0.0000000  -0.0000000  -0.0000000  -0.0000000  -0.0000000  -0.0000000  -0.0000000  -0.0000000
 NQMom=    0.0000000   0.0000000   0.0000000   0.0000000   0.0000000   0.0000000   0.0000000   0.0000000   0.0000000   0.0000000
 NMagM=    0.0000000   0.0000000   2.7928460   0.0000000   0.0000000   2.7928460   0.0000000   2.7928460   2.7928460   2.7928460
 AtZNuc=   6.0000000   6.0000000   1.0000000   6.0000000   6.0000000   1.0000000   6.0000000   1.0000000   1.0000000   1.0000000

  Atom        61          62          63          64          65          66          67          68          69          70
 IAtWgt=          12          12          14          14          12           1          12           1           1          12
 AtmWgt=  12.0000000  12.0000000  14.0030740  14.0030740  12.0000000   1.0078250  12.0000000   1.0078250   1.0078250  12.0000000
 NucSpn=           0           0           2           2           0           1           0           1           1           0
 AtZEff=  -0.0000000  -0.0000000  -0.0000000  -0.0000000  -0.0000000  -0.0000000  -0.0000000  -0.0000000  -0.0000000  -0.0000000
 NQMom=    0.0000000   0.0000000   2.0440000   2.0440000   0.0000000   0.0000000   0.0000000   0.0000000   0.0000000   0.0000000
 NMagM=    0.0000000   0.0000000   0.4037610   0.4037610   0.0000000   2.7928460   0.0000000   2.7928460   2.7928460   0.0000000
 AtZNuc=   6.0000000   6.0000000   7.0000000   7.0000000   6.0000000   1.0000000   6.0000000   1.0000000   1.0000000   6.0000000

  Atom        71          72          73          74          75          76          77          78          79          80
 IAtWgt=           1           1          12           1           1           1           1           1          12          12
 AtmWgt=   1.0078250   1.0078250  12.0000000   1.0078250   1.0078250   1.0078250   1.0078250   1.0078250  12.0000000  12.0000000
 NucSpn=           1           1           0           1           1           1           1           1           0           0
 AtZEff=  -0.0000000  -0.0000000  -0.0000000  -0.0000000  -0.0000000  -0.0000000  -0.0000000  -0.0000000  -0.0000000  -0.0000000
 NQMom=    0.0000000   0.0000000   0.0000000   0.0000000   0.0000000   0.0000000   0.0000000   0.0000000   0.0000000   0.0000000
 NMagM=    2.7928460   2.7928460   0.0000000   2.7928460   2.7928460   2.7928460   2.7928460   2.7928460   0.0000000   0.0000000
 AtZNuc=   1.0000000   1.0000000   6.0000000   1.0000000   1.0000000   1.0000000   1.0000000   1.0000000   6.0000000   6.0000000

  Atom        81          82          83          84          85          86          87          88          89          90
 IAtWgt=          14          14          12           1          12           1           1          12           1           1
 AtmWgt=  14.0030740  14.0030740  12.0000000   1.0078250  12.0000000   1.0078250   1.0078250  12.0000000   1.0078250   1.0078250
 NucSpn=           2           2           0           1           0           1           1           0           1           1
 AtZEff=  -0.0000000  -0.0000000  -0.0000000  -0.0000000  -0.0000000  -0.0000000  -0.0000000  -0.0000000  -0.0000000  -0.0000000
 NQMom=    2.0440000   2.0440000   0.0000000   0.0000000   0.0000000   0.0000000   0.0000000   0.0000000   0.0000000   0.0000000
 NMagM=    0.4037610   0.4037610   0.0000000   2.7928460   0.0000000   2.7928460   2.7928460   0.0000000   2.7928460   2.7928460
 AtZNuc=   7.0000000   7.0000000   6.0000000   1.0000000   6.0000000   1.0000000   1.0000000   6.0000000   1.0000000   1.0000000

  Atom        91          92          93          94          95          96          97          98          99         100
 IAtWgt=          12           1           1           1           1           1          12          12          14          14
 AtmWgt=  12.0000000   1.0078250   1.0078250   1.0078250   1.0078250   1.0078250  12.0000000  12.0000000  14.0030740  14.0030740
 NucSpn=           0           1           1           1           1           1           0           0           2           2
 AtZEff=  -0.0000000  -0.0000000  -0.0000000  -0.0000000  -0.0000000  -0.0000000  -0.0000000  -0.0000000  -0.0000000  -0.0000000
 NQMom=    0.0000000   0.0000000   0.0000000   0.0000000   0.0000000   0.0000000   0.0000000   0.0000000   2.0440000   2.0440000
 NMagM=    0.0000000   2.7928460   2.7928460   2.7928460   2.7928460   2.7928460   0.0000000   0.0000000   0.4037610   0.4037610
 AtZNuc=   6.0000000   1.0000000   1.0000000   1.0000000   1.0000000   1.0000000   6.0000000   6.0000000   7.0000000   7.0000000

  Atom       101         102         103         104         105         106         107         108         109         110
 IAtWgt=          12           1          12           1           1          12           1           1          12           1
 AtmWgt=  12.0000000   1.0078250  12.0000000   1.0078250   1.0078250  12.0000000   1.0078250   1.0078250  12.0000000   1.0078250
 NucSpn=           0           1           0           1           1           0           1           1           0           1
 AtZEff=  -0.0000000  -0.0000000  -0.0000000  -0.0000000  -0.0000000  -0.0000000  -0.0000000  -0.0000000  -0.0000000  -0.0000000
 NQMom=    0.0000000   0.0000000   0.0000000   0.0000000   0.0000000   0.0000000   0.0000000   0.0000000   0.0000000   0.0000000
 NMagM=    0.0000000   2.7928460   0.0000000   2.7928460   2.7928460   0.0000000   2.7928460   2.7928460   0.0000000   2.7928460
 AtZNuc=   6.0000000   1.0000000   6.0000000   1.0000000   1.0000000   6.0000000   1.0000000   1.0000000   6.0000000   1.0000000

  Atom       111         112         113         114         115         116         117         118         119         120
 IAtWgt=           1           1           1           1          12          12          14          14          12           1
 AtmWgt=   1.0078250   1.0078250   1.0078250   1.0078250  12.0000000  12.0000000  14.0030740  14.0030740  12.0000000   1.0078250
 NucSpn=           1           1           1           1           0           0           2           2           0           1
 AtZEff=  -0.0000000  -0.0000000  -0.0000000  -0.0000000  -0.0000000  -0.0000000  -0.0000000  -0.0000000  -0.0000000  -0.0000000
 NQMom=    0.0000000   0.0000000   0.0000000   0.0000000   0.0000000   0.0000000   2.0440000   2.0440000   0.0000000   0.0000000
 NMagM=    2.7928460   2.7928460   2.7928460   2.7928460   0.0000000   0.0000000   0.4037610   0.4037610   0.0000000   2.7928460
 AtZNuc=   1.0000000   1.0000000   1.0000000   1.0000000   6.0000000   6.0000000   7.0000000   7.0000000   6.0000000   1.0000000

  Atom       121         122         123         124         125         126         127         128         129         130
 IAtWgt=          12           1           1          12           1           1          12           1           1           1
 AtmWgt=  12.0000000   1.0078250   1.0078250  12.0000000   1.0078250   1.0078250  12.0000000   1.0078250   1.0078250   1.0078250
 NucSpn=           0           1           1           0           1           1           0           1           1           1
 AtZEff=  -0.0000000  -0.0000000  -0.0000000  -0.0000000  -0.0000000  -0.0000000  -0.0000000  -0.0000000  -0.0000000  -0.0000000
 NQMom=    0.0000000   0.0000000   0.0000000   0.0000000   0.0000000   0.0000000   0.0000000   0.0000000   0.0000000   0.0000000
 NMagM=    0.0000000   2.7928460   2.7928460   0.0000000   2.7928460   2.7928460   0.0000000   2.7928460   2.7928460   2.7928460
 AtZNuc=   6.0000000   1.0000000   1.0000000   6.0000000   1.0000000   1.0000000   6.0000000   1.0000000   1.0000000   1.0000000

  Atom       131         132         133         134         135         136         137         138         139         140
 IAtWgt=           1           1          12          12          14          14          12           1          12           1
 AtmWgt=   1.0078250   1.0078250  12.0000000  12.0000000  14.0030740  14.0030740  12.0000000   1.0078250  12.0000000   1.0078250
 NucSpn=           1           1           0           0           2           2           0           1           0           1
 AtZEff=  -0.0000000  -0.0000000  -0.0000000  -0.0000000  -0.0000000  -0.0000000  -0.0000000  -0.0000000  -0.0000000  -0.0000000
 NQMom=    0.0000000   0.0000000   0.0000000   0.0000000   2.0440000   2.0440000   0.0000000   0.0000000   0.0000000   0.0000000
 NMagM=    2.7928460   2.7928460   0.0000000   0.0000000   0.4037610   0.4037610   0.0000000   2.7928460   0.0000000   2.7928460
 AtZNuc=   1.0000000   1.0000000   6.0000000   6.0000000   7.0000000   7.0000000   6.0000000   1.0000000   6.0000000   1.0000000

  Atom       141         142         143         144         145         146         147         148         149         150
 IAtWgt=           1          12           1           1          12           1           1           1           1           1
 AtmWgt=   1.0078250  12.0000000   1.0078250   1.0078250  12.0000000   1.0078250   1.0078250   1.0078250   1.0078250   1.0078250
 NucSpn=           1           0           1           1           0           1           1           1           1           1
 AtZEff=  -0.0000000  -0.0000000  -0.0000000  -0.0000000  -0.0000000  -0.0000000  -0.0000000  -0.0000000  -0.0000000  -0.0000000
 NQMom=    0.0000000   0.0000000   0.0000000   0.0000000   0.0000000   0.0000000   0.0000000   0.0000000   0.0000000   0.0000000
 NMagM=    2.7928460   0.0000000   2.7928460   2.7928460   0.0000000   2.7928460   2.7928460   2.7928460   2.7928460   2.7928460
 AtZNuc=   1.0000000   6.0000000   1.0000000   1.0000000   6.0000000   1.0000000   1.0000000   1.0000000   1.0000000   1.0000000

  Atom       151         152         153         154         155         156         157         158         159         160
 IAtWgt=          12          12          14          14          12           1          12           1           1          12
 AtmWgt=  12.0000000  12.0000000  14.0030740  14.0030740  12.0000000   1.0078250  12.0000000   1.0078250   1.0078250  12.0000000
 NucSpn=           0           0           2           2           0           1           0           1           1           0
 AtZEff=  -0.0000000  -0.0000000  -0.0000000  -0.0000000  -0.0000000  -0.0000000  -0.0000000  -0.0000000  -0.0000000  -0.0000000
 NQMom=    0.0000000   0.0000000   2.0440000   2.0440000   0.0000000   0.0000000   0.0000000   0.0000000   0.0000000   0.0000000
 NMagM=    0.0000000   0.0000000   0.4037610   0.4037610   0.0000000   2.7928460   0.0000000   2.7928460   2.7928460   0.0000000
 AtZNuc=   6.0000000   6.0000000   7.0000000   7.0000000   6.0000000   1.0000000   6.0000000   1.0000000   1.0000000   6.0000000

  Atom       161         162         163         164         165         166         167         168
 IAtWgt=           1           1          12           1           1           1           1           1
 AtmWgt=   1.0078250   1.0078250  12.0000000   1.0078250   1.0078250   1.0078250   1.0078250   1.0078250
 NucSpn=           1           1           0           1           1           1           1           1
 AtZEff=  -0.0000000  -0.0000000  -0.0000000  -0.0000000  -0.0000000  -0.0000000  -0.0000000  -0.0000000
 NQMom=    0.0000000   0.0000000   0.0000000   0.0000000   0.0000000   0.0000000   0.0000000   0.0000000
 NMagM=    2.7928460   2.7928460   0.0000000   2.7928460   2.7928460   2.7928460   2.7928460   2.7928460
 AtZNuc=   1.0000000   1.0000000   6.0000000   1.0000000   1.0000000   1.0000000   1.0000000   1.0000000
 Leave Link  101 at Sun Oct 17 23:17:06 2021, MaxMem=  7864320000 cpu:               3.3 elap:               0.1
 (Enter /apps/gaussian/g16-c01-avx/g16/l202.exe)
 Stoichiometry    C72H84N12
 Framework group  C1[X(C72H84N12)]
 Deg. of freedom   498
 Full point group                 C1      NOp   1
 Largest Abelian subgroup         C1      NOp   1
 Largest concise Abelian subgroup C1      NOp   1
                         Standard orientation:                         
 ---------------------------------------------------------------------
 Center     Atomic      Atomic             Coordinates (Angstroms)
 Number     Number       Type             X           Y           Z
 ---------------------------------------------------------------------
      1          6           0        3.988984   -1.059502   -1.229578
      2          6           0        3.950026   -2.149064   -2.194651
      3          6           0        4.086041   -1.334687    0.129195
      4          6           0        4.163232   -0.299252    1.060624
      5          1           0        4.118050   -2.350875    0.491275
      6          6           0        4.132124    1.018076    0.619009
      7          6           0        4.034990    1.309738   -0.741654
      8          1           0        4.196459    1.840891    1.314483
      9          6           0        3.958875    0.267664   -1.657982
     10          6           0        4.043557    2.690300   -1.204343
     11          1           0        3.889456    0.460955   -2.717569
     12          6           0        4.305720   -0.590885    2.480096
     13          1           0        3.811344    2.839057   -2.270402
     14          1           0        3.824386   -3.158141   -1.772301
     15          1           0        4.206642    0.271099    3.157977
     16          6           0       -0.380855   -2.000918   -3.788168
     17          6           0        0.875808   -1.942804   -4.521252
     18          6           0       -1.333078   -1.002943   -3.958009
     19          6           0       -2.556982   -1.066904   -3.291924
     20          1           0       -1.153337   -0.167445   -4.617132
     21          6           0       -2.815652   -2.136825   -2.443536
     22          6           0       -1.869609   -3.145964   -2.263059
     23          1           0       -3.755366   -2.218005   -1.919081
     24          6           0       -0.654693   -3.068864   -2.933521
     25          6           0       -2.159985   -4.285881   -1.404910
     26          1           0        0.094791   -3.837069   -2.819493
     27          6           0       -3.568065   -0.040836   -3.503816
     28          1           0       -1.311146   -4.954697   -1.193867
     29          1           0        1.077066   -0.998550   -5.050706
     30          1           0       -4.437750   -0.079377   -2.829661
     31          6           0       -0.059330    4.297301    0.174807
     32          6           0        1.274438    4.812500    0.449707
     33          6           0       -0.925533    4.012105    1.223555
     34          6           0       -2.219420    3.555290    0.973089
     35          1           0       -0.622611    4.150740    2.250086
     36          6           0       -2.636262    3.376227   -0.340495
     37          6           0       -1.778069    3.658205   -1.403461
     38          1           0       -3.633140    3.030291   -0.566933
     39          6           0       -0.491689    4.112850   -1.138532
     40          6           0       -2.231343    3.507958   -2.779073
     41          1           0        0.193326    4.345642   -1.939470
     42          6           0       -3.137473    3.296518    2.073293
     43          1           0       -1.453048    3.600588   -3.552298
     44          1           0        1.590173    4.783416    1.504177
     45          1           0       -4.079675    2.795103    1.802746
     46          6           0        0.172916   -2.295486    3.632840
     47          6           0        1.494106   -2.884704    3.798451
     48          6           0       -0.823537   -2.996632    2.964410
     49          6           0       -2.104482   -2.460313    2.832925
     50          1           0       -0.633382   -3.973306    2.546533
     51          6           0       -2.376818   -1.207577    3.369224
     52          6           0       -1.386725   -0.491910    4.042688
     53          1           0       -3.359517   -0.768537    3.289424
     54          6           0       -0.115116   -1.038978    4.165991
     55          6           0       -1.686564    0.802538    4.638321
     56          1           0        0.670112   -0.512817    4.686857
     57          6           0       -3.156853   -3.215360    2.167630
     58          1           0       -0.820129    1.368750    5.014055
     59          1           0        1.684216   -3.802258    3.220146
     60          1           0       -4.089142   -2.664260    1.969176
     61          6           0        4.059076   -3.044484   -4.346996
     62          6           0        2.879172   -2.835290   -5.317656
     63          7           0        4.081829   -1.947181   -3.431911
     64          7           0        1.665411   -2.924108   -4.568770
     65          6           0        2.882095   -3.934230   -6.383706
     66          1           0        2.998179   -1.845779   -5.795316
     67          6           0        4.199369   -3.949995   -7.149490
     68          1           0        2.045890   -3.764952   -7.065485
     69          1           0        2.721820   -4.893733   -5.888967
     70          6           0        5.367419   -4.153938   -6.190646
     71          1           0        4.324627   -3.001644   -7.677214
     72          1           0        4.181081   -4.748731   -7.893664
     73          6           0        5.376456   -3.062829   -5.127079
     74          1           0        6.310854   -4.137793   -6.740049
     75          1           0        5.275344   -5.130351   -5.709368
     76          1           0        5.514891   -2.084840   -5.591103
     77          1           0        6.198327   -3.220299   -4.425369
     78          1           0        3.912429   -4.010366   -3.830451
     79          6           0        4.346715    4.988082   -0.931741
     80          6           0        3.300378    5.804651   -0.146431
     81          7           0        4.328285    3.648045   -0.435940
     82          7           0        2.005531    5.288154   -0.460321
     83          6           0        3.361539    7.273987   -0.572528
     84          1           0        3.531305    5.714011    0.930457
     85          6           0        4.754792    7.850012   -0.351923
     86          1           0        2.620484    7.836843   -0.000843
     87          1           0        3.089524    7.337788   -1.627548
     88          6           0        5.791079    7.041898   -1.125562
     89          1           0        4.995138    7.822786    0.713447
     90          1           0        4.775426    8.893003   -0.674458
     91          6           0        5.741605    5.577835   -0.706457
     92          1           0        6.790659    7.441603   -0.943371
     93          1           0        5.587361    7.120963   -2.195874
     94          1           0        5.989470    5.479759    0.351869
     95          1           0        6.466816    4.992712   -1.276071
     96          1           0        4.085397    5.035396   -2.004530
     97          6           0        4.709603   -1.997162    4.298265
     98          6           0        3.629676   -3.009731    4.730104
     99          7           0        4.556004   -1.753154    2.898677
    100          7           0        2.351510   -2.389164    4.578272
    101          6           0        3.825231   -3.381900    6.202304
    102          1           0        3.729554   -3.909918    4.096763
    103          6           0        5.215301   -3.958593    6.440781
    104          1           0        3.057760   -4.104749    6.487093
    105          1           0        3.680455   -2.484368    6.806110
    106          6           0        6.284431   -2.959483    6.011656
    107          1           0        5.329630   -4.881155    5.866833
    108          1           0        5.333794   -4.203818    7.498118
    109          6           0        6.101525   -2.584819    4.546177
    110          1           0        7.278153   -3.387087    6.159263
    111          1           0        6.209891   -2.061201    6.628850
    112          1           0        6.220191   -3.466388    3.913730
    113          1           0        6.851904   -1.851423    4.242897
    114          1           0        4.576387   -1.076648    4.895180
    115          6           0       -4.485595    1.796241   -4.612677
    116          6           0       -3.854864    3.190969   -4.425453
    117          7           0       -3.462966    0.816779   -4.421565
    118          7           0       -3.444115    3.313520   -3.062230
    119          6           0       -4.892842    4.275310   -4.727126
    120          1           0       -3.002548    3.279466   -5.123282
    121          6           0       -5.441457    4.129283   -6.141142
    122          1           0       -4.426322    5.254286   -4.597642
    123          1           0       -5.700750    4.190302   -3.998280
    124          6           0       -6.063018    2.749462   -6.328742
    125          1           0       -4.630969    4.262908   -6.861303
    126          1           0       -6.187242    4.904936   -6.326701
    127          6           0       -5.036968    1.662012   -6.034838
    128          1           0       -6.430750    2.639553   -7.350880
    129          1           0       -6.913494    2.639670   -5.651816
    130          1           0       -4.202751    1.731281   -6.735057
    131          1           0       -5.486381    0.672846   -6.145649
    132          1           0       -5.304378    1.687552   -3.878480
    133          6           0       -3.570121   -5.644760   -0.135248
    134          6           0       -4.077134   -5.145640    1.233051
    135          7           0       -3.318382   -4.504352   -0.958564
    136          7           0       -3.014561   -4.431137    1.867004
    137          6           0       -4.461507   -6.339278    2.111716
    138          1           0       -4.960432   -4.504532    1.059595
    139          6           0       -5.524052   -7.196775    1.435439
    140          1           0       -4.825445   -5.966338    3.071525
    141          1           0       -3.563672   -6.930303    2.300666
    142          6           0       -5.025111   -7.688757    0.081023
    143          1           0       -6.432504   -6.606572    1.294802
    144          1           0       -5.771043   -8.046330    2.075336
    145          6           0       -4.643472   -6.508300   -0.803531
    146          1           0       -5.799302   -8.280493   -0.411533
    147          1           0       -4.153256   -8.330669    0.227005
    148          1           0       -5.517077   -5.883085   -0.996064
    149          1           0       -4.263704   -6.858881   -1.765589
    150          1           0       -2.655958   -6.242270    0.033762
    151          6           0       -3.811535    3.400146    4.305179
    152          6           0       -3.125348    2.496754    5.349847
    153          7           0       -2.877251    3.652663    3.254033
    154          7           0       -2.867902    1.229853    4.741032
    155          6           0       -4.055825    2.288261    6.547784
    156          1           0       -2.194537    2.994802    5.676814
    157          6           0       -4.445593    3.620506    7.176080
    158          1           0       -3.550264    1.654254    7.279341
    159          1           0       -4.945865    1.758637    6.203759
    160          6           0       -5.121797    4.516047    6.143616
    161          1           0       -3.550996    4.118308    7.557602
    162          1           0       -5.117794    3.445578    8.018515
    163          6           0       -4.202487    4.733626    4.948068
    164          1           0       -5.375249    5.479240    6.590951
    165          1           0       -6.049496    4.046532    5.808311
    166          1           0       -3.290501    5.244717    5.261459
    167          1           0       -4.693810    5.355466    4.196629
    168          1           0       -4.714315    2.878292    3.939204
 ---------------------------------------------------------------------
 Rotational constants (GHZ):           0.0160330           0.0160294           0.0160291
 Leave Link  202 at Sun Oct 17 23:17:07 2021, MaxMem=  7864320000 cpu:               0.3 elap:               0.0
 (Enter /apps/gaussian/g16-c01-avx/g16/l301.exe)
 Standard basis: def2TZVP (5D, 7F)
 Ernie: Thresh=  0.10000D-02 Tol=  0.10000D-05 Strict=F.
 There are  3528 symmetry adapted cartesian basis functions of A   symmetry.
 There are  3108 symmetry adapted basis functions of A   symmetry.
  3108 basis functions,  4956 primitive gaussians,  3528 cartesian basis functions
   300 alpha electrons      300 beta electrons
       nuclear repulsion energy     14211.7052964283 Hartrees.
 IExCor= 1009 DFT=T Ex+Corr=PBE1PBE ExCW=0 ScaHFX=  0.250000
 ScaDFX=  0.750000  0.750000  1.000000  1.000000 ScalE2=  1.000000  1.000000
 IRadAn=      7 IRanWt=     -1 IRanGd=            0 ICorTp=0 IEmpDi=131
 NAtoms=  168 NActive=  168 NUniq=  168 SFac= 1.00D+00 NAtFMM=   60 NAOKFM=T Big=T
 Integral buffers will be    131072 words long.
 Raffenetti 2 integral format.
 Two-electron integral symmetry is turned on.
 R6Disp:  Grimme-D3 Dispersion energy=       -0.1306565974 Hartrees.
 Nuclear repulsion after empirical dispersion term =    14211.5746398309 Hartrees.
 ------------------------------------------------------------------------------
 Polarizable Continuum Model (PCM)
 =================================
 Model                : PCM.
 Atomic radii         : UFF (Universal Force Field).
 Polarization charges : Total charges.
 Charge compensation  : None.
 Solution method      : On-the-fly selection.
 Cavity type          : Scaled VdW (van der Waals Surface) (Alpha=1.100).
 Cavity algorithm     : GePol (No added spheres)
                        Default sphere list used, NSphG=  168.
                        Lebedev-Laikov grids with approx.  5.0 points / Ang**2.
                        Smoothing algorithm: York/Karplus (Gamma=1.0000).
                        Polarization charges: spherical gaussians, with
                                              point-specific exponents (IZeta= 3).
                        Self-potential: point-specific (ISelfS= 7).
                        Self-field    : sphere-specific E.n sum rule (ISelfD= 2).
 Solvent              : Chloroform, Eps=   4.711300 Eps(inf)=   2.090627
 ------------------------------------------------------------------------------
 GePol: Number of generator spheres                  =     168
 GePol: Total number of spheres                      =     168
 GePol: Number of exposed spheres                    =     168 (100.00%)
 GePol: Number of points                             =   10291
 GePol: Average weight of points                     =       0.13
 GePol: Minimum weight of points                     =   0.15D-11
 GePol: Maximum weight of points                     =    0.20577
 GePol: Number of points with low weight             =     785
 GePol: Fraction of low-weight points (<1% of avg)   =       7.63%
 GePol: Cavity surface area                          =   1330.412 Ang**2
 GePol: Cavity volume                                =   1581.974 Ang**3
 Leave Link  301 at Sun Oct 17 23:17:07 2021, MaxMem=  7864320000 cpu:               2.9 elap:               0.1
 (Enter /apps/gaussian/g16-c01-avx/g16/l302.exe)
 NPDir=0 NMtPBC=     1 NCelOv=     1 NCel=       1 NClECP=     1 NCelD=      1
         NCelK=      1 NCelE2=     1 NClLst=     1 CellRange=     0.0.
 One-electron integrals computed using PRISM.
 One-electron integral symmetry used in STVInt
   1 Symmetry operations used in ECPInt.
 ECPInt:  NShTT=  794430 NPrTT= 2388120 LenC2=  432826 LenP2D=  802757.
 LDataN:  DoStor=T MaxTD1= 6 Len=  172
 Number of processors reduced to  24 by ecpmxn.
 NBasis=  3108 RedAO= T EigKep=  5.66D-06  NBF=  3108
 NBsUse=  3108 1.00D-06 EigRej= -1.00D+00 NBFU=  3108
 Precomputing XC quadrature grid using
 IXCGrd= 4 IRadAn=           7 IRanWt=          -1 IRanGd=           0 AccXCQ= 0.00D+00.
 Generated NRdTot=       0 NPtTot=           0 NUsed=           0 NTot=          32
 NSgBfM=  2436  2325  2350  2371  2436 MxSgAt=   168 MxSgA2=   168.
 Leave Link  302 at Sun Oct 17 23:17:34 2021, MaxMem=  7864320000 cpu:             841.1 elap:              26.7
 (Enter /apps/gaussian/g16-c01-avx/g16/l303.exe)
 DipDrv:  MaxL=1.
 Leave Link  303 at Sun Oct 17 23:17:36 2021, MaxMem=  7864320000 cpu:              30.8 elap:               1.2
 (Enter /apps/gaussian/g16-c01-avx/g16/l401.exe)
 ExpMin= 9.52D-02 ExpMax= 1.97D+04 ExpMxC= 6.73D+02 IAcc=3 IRadAn=         7 AccDes= 0.00D+00
 Harris functional with IExCor= 1009 and IRadAn=       7 diagonalized for initial guess.
 HarFok:  IExCor= 1009 AccDes= 0.00D+00 IRadAn=         7 IDoV= 1 UseB2=F ITyADJ=14
 ICtDFT=  3500011 ScaDFX=  1.000000  1.000000  1.000000  1.000000
 FoFCou: FMM=F IPFlag=           0 FMFlag=      100000 FMFlg1=        2001
         NFxFlg=           0 DoJE=T BraDBF=F KetDBF=T FulRan=T
         wScrn=  0.000000 ICntrl=       500 IOpCl=  0 I1Cent=   200000004 NGrid=           0
         NMat0=    1 NMatS0=      1 NMatT0=    0 NMatD0=    1 NMtDS0=    0 NMtDT0=    0
 Petite list used in FoFCou.
 Harris En= -3449.49344264731    
 JPrj=0 DoOrth=F DoCkMO=F.
 Leave Link  401 at Sun Oct 17 23:18:27 2021, MaxMem=  7864320000 cpu:            1597.3 elap:              50.7
 (Enter /apps/gaussian/g16-c01-avx/g16/l508.exe)
 Integral symmetry usage will be decided dynamically.
 Tight linear equation convergence will be used.
 RPBE1PBE wavefunction.
 Linear searches until partial convergence.
 Full line searches.
 Fock matrices will be formed incrementally for  20 cycles.
 Inv3:  Mode=1 IEnd=   317714043.
 Iteration    1 A*A^-1 deviation from unit magnitude is 1.07D-14 for  10291.
 Iteration    1 A*A^-1 deviation from orthogonality  is 1.12D-14 for  10288   7814.
 Iteration    1 A^-1*A deviation from unit magnitude is 1.07D-14 for  10291.
 Iteration    1 A^-1*A deviation from orthogonality  is 4.85D-13 for   8733   8715.
 FoFJK:  IHMeth= 1 ICntrl=       0 DoSepK=F KAlg= 0 I1Cent=           0 FoldK=F
 IRaf= 470000000 NMat=       1 IRICut=       1 DoRegI=T DoRafI=F ISym2E= 1 IDoP0=0 IntGTp=1.
 Iteration   1 EE= -3446.72513969046                                    Grad=1.965D+00 Max rot=    2.6576 deg.
 Gradient too large for Newton-Raphson -- use scaled steepest descent instead.
 Alpha Gap=     0.193 HL deriv= 2.04D-04
     ILin= 1 X=0.000D+00 Y=-3.446725139690D+03 DE= 0.00D+00 F= -7.44D+00
 RMSU=  4.20D-04    CP:  9.94D-01
     ILin= 2 X=3.000D-01 Y=-3.448215699500D+03 DE=-1.49D+00 F= -2.48D+00 OKLS=F
 RMSU=  7.24D-05    CP:  9.92D-01  1.73D+00
     ILin= 3 X=5.000D-01 Y=-3.448374318576D+03 DE=-1.65D+00 F=  8.94D-01
     Accept linear search using points  2 and  3.
     An  expanding polynomial of degree  3 produced  0.3900
 RMSU=  3.31D-08    CP:  9.93D-01  1.32D+00  3.51D-01
 Iteration   2 EE= -3448.37050450627     Delta-E=       -1.645364815809 Grad=6.607D-01 Max rot=    0.9251 deg.
 Gradient too large for Newton-Raphson -- use scaled steepest descent instead.
 Alpha Gap=     0.207 HL deriv= 1.20D-04
     ILin= 1 X=0.000D+00 Y=-3.448370504506D+03 DE= 0.00D+00 F= -4.22D-01
 RMSU=  7.33D-05    CP:  9.92D-01  1.62D+00  9.20D-01 -3.00D+00
     ILin= 2 X=3.000D-01 Y=-3.448466682018D+03 DE=-9.62D-02 F= -2.19D-01 OKLS=F
 RMSU=  1.07D-05    CP:  9.91D-01  2.05D+00  1.99D+00 -3.00D+00  2.35D+00
     ILin= 3 X=7.000D-01 Y=-3.448500245916D+03 DE=-1.30D-01 F=  5.13D-02
     Accept linear search using points  2 and  3.
     An  expanding polynomial of degree  3 produced  0.5147
 RMSU=  2.34D-08    CP:  9.91D-01  1.85D+00  1.45D+00 -3.00D+00  1.72D+00
                    CP:  3.95D-01
 Iteration   3 EE= -3448.49815085281     Delta-E=       -0.127646346544 Grad=2.722D-01 Max rot=    0.4343 deg.
 Gradient too large for Newton-Raphson -- use scaled steepest descent instead.
 Alpha Gap=     0.201 HL deriv= 8.63D-05
     ILin= 1 X=0.000D+00 Y=-3.448498150853D+03 DE= 0.00D+00 F= -5.57D-02
 RMSU=  3.75D-05    CP:  9.92D-01  2.06D+00  2.07D+00 -3.00D+00  2.30D+00
                    CP:  1.08D+00 -3.00D+00
     ILin= 2 X=4.000D-01 Y=-3.448512616562D+03 DE=-1.45D-02 F= -1.66D-02 OKLS=F
 RMSU=  3.63D-06    CP:  9.94D-01  2.32D+00  2.96D+00 -3.00D+00  3.00D+00
                    CP:  2.25D+00 -3.00D+00  2.26D+00
     ILin= 3 X=9.000D-01 Y=-3.448508692867D+03 DE=-1.05D-02 F=  3.23D-02
     An  expanding polynomial of degree  3 produced  0.5698
 RMSU=  3.90D-07    CP:  9.93D-01  2.15D+00  2.36D+00 -3.00D+00  2.55D+00
                    CP:  1.43D+00 -3.00D+00  1.43D+00  1.12D-01
 Iteration   4 EE= -3448.51402709315     Delta-E=       -0.015876240337 Grad=1.249D-01 Max rot=    0.2686 deg.
 Gradient too large for Newton-Raphson -- use scaled steepest descent instead.
 Alpha Gap=     0.205 HL deriv= 8.12D-05
     ILin= 1 X=0.000D+00 Y=-3.448514027093D+03 DE= 0.00D+00 F= -1.82D-02
 RMSU=  2.20D-05    CP:  9.92D-01  2.19D+00  2.53D+00 -3.00D+00  2.94D+00
                    CP:  1.96D+00 -3.00D+00  1.53D+00  3.44D-01  3.00D+00
     ILin= 2 X=5.000D-01 Y=-3.448517157609D+03 DE=-3.13D-03 F=  5.68D-03 OKLS=T
     Accept linear search using points  1 and  2.
     An  expanding polynomial of degree  2 produced  0.2867
 RMSU=  1.38D-07    CP:  9.92D-01  2.17D+00  2.46D+00 -3.00D+00  2.77D+00
                    CP:  1.73D+00 -3.00D+00  1.48D+00  2.42D-01  2.40D+00
                    CP:  5.73D-01
 Iteration   5 EE= -3448.51728424527     Delta-E=       -0.003257152119 Grad=7.488D-02 Max rot=    0.1296 deg.
 Gradient too large for Newton-Raphson -- use scaled steepest descent instead.
 Alpha Gap=     0.204 HL deriv= 4.62D-07
     ILin= 1 X=0.000D+00 Y=-3.448517284245D+03 DE= 0.00D+00 F= -2.79D-03
 RMSU=  7.29D-06    CP:  9.93D-01  2.26D+00  2.80D+00 -3.00D+00  3.00D+00
                    CP:  2.27D+00 -3.00D+00  1.91D+00  1.93D+00 -3.00D+00
                    CP:  1.05D+00  3.00D+00
     ILin= 2 X=6.000D-01 Y=-3.448518427729D+03 DE=-1.14D-03 F= -1.02D-03 OKLS=F
 RMSU=  1.70D-05    CP:  9.94D-01  2.33D+00  3.00D+00 -3.00D+00  3.00D+00
                    CP:  2.76D+00 -3.00D+00  2.26D+00  3.00D+00 -3.00D+00
                    CP:  1.45D+00  3.00D+00  2.32D+00
     ILin= 3 X=1.100D+00 Y=-3.448518571773D+03 DE=-1.29D-03 F=  4.47D-04
     Accept linear search using points  2 and  3.
     An  expanding polynomial of degree  3 produced  0.8760
 RMSU=  3.19D-06    CP:  9.93D-01  2.30D+00  2.96D+00 -3.00D+00  3.00D+00
                    CP:  2.53D+00 -3.00D+00  2.10D+00  3.00D+00 -3.00D+00
                    CP:  1.27D+00  3.00D+00  1.73D+00  4.00D-01
 Iteration   6 EE= -3448.51859817486     Delta-E=       -0.001313929595 Grad=1.135D-02 Max rot=    0.0238 deg.
 Gradient too large for Newton-Raphson -- use scaled steepest descent instead.
 Alpha Gap=     0.203 HL deriv= 6.06D-06
     ILin= 1 X=0.000D+00 Y=-3.448518598175D+03 DE= 0.00D+00 F= -1.89D-04
 RMSU=  1.75D-06    CP:  9.94D-01  2.32D+00  3.00D+00 -3.00D+00  3.00D+00
                    CP:  2.64D+00 -3.00D+00  2.24D+00  3.00D+00 -3.00D+00
                    CP:  1.41D+00  3.00D+00  2.37D+00  6.14D-01  2.03D-01
     ILin= 2 X=5.000D-01 Y=-3.448518638157D+03 DE=-4.00D-05 F=  2.86D-05 OKLS=T
     Accept linear search using points  1 and  2.
     An  expanding polynomial of degree  2 produced  0.3108
 RMSU=  4.08D-07    CP:  9.94D-01  2.31D+00  3.00D+00 -3.00D+00  3.00D+00
                    CP:  2.60D+00 -3.00D+00  2.19D+00  3.00D+00 -3.00D+00
                    CP:  1.36D+00  3.00D+00  2.13D+00  5.06D-01  8.08D-01
                    CP:  6.70D-01
 Iteration   7 EE= -3448.51863579304     Delta-E=       -0.000037618178 Grad=6.601D-03 Max rot=    0.0078 deg.
 SCF Done:  E(RPBE1PBE) =  -3448.51863579     a.u. after    7 cycles
            Convg  =    0.6601D-02                    17 Fock formations.
              S**2 =  0.0000                  -V/T =  2.0047
 Leave Link  508 at Mon Oct 18 00:47:44 2021, MaxMem=  7864320000 cpu:          168199.6 elap:            5356.9
 (Enter /apps/gaussian/g16-c01-avx/g16/l502.exe)
 Integral symmetry usage will be decided dynamically.
 Closed shell SCF:
 Using DIIS extrapolation, IDIIS=  1040.
 NGot=  7864320000 LenX=  7839278762 LenY=  7826828450
 Requested convergence on RMS density matrix=1.00D-08 within 128 cycles.
 Requested convergence on MAX density matrix=1.00D-06.
 Requested convergence on             energy=1.00D-06.
 No special actions if energy rises.
 Fock matrices will be formed incrementally for  20 cycles.

 Cycle   1  Pass 1  IDiag  1:
 FoFJK:  IHMeth= 1 ICntrl=       0 DoSepK=F KAlg= 0 I1Cent=           0 FoldK=F
 IRaf= 470000000 NMat=       1 IRICut=       1 DoRegI=T DoRafI=F ISym2E= 0 IDoP0=0 IntGTp=1.
 FoFCou: FMM=T IPFlag=           0 FMFlag=      100000 FMFlg1=        2001
         NFxFlg=           0 DoJE=F BraDBF=F KetDBF=F FulRan=T
         wScrn=  0.000000 ICntrl=         0 IOpCl=  0 I1Cent=           0 NGrid=           0
         NMat0=    1 NMatS0=      1 NMatT0=    0 NMatD0=    1 NMtDS0=    0 NMtDT0=    0
 Symmetry not used in FoFCou.
 FMM levels:  10  Number of levels for PrismC:   9
 E= -3448.51863579309    
 DIIS: error= 5.27D-05 at cycle   1 NSaved=   1.
 NSaved= 1 IEnMin= 1 EnMin= -3448.51863579309     IErMin= 1 ErrMin= 5.27D-05
 ErrMax= 5.27D-05  0.00D+00 EMaxC= 1.00D-01 BMatC= 2.18D-05 BMatP= 2.18D-05
 IDIUse=1 WtCom= 1.00D+00 WtEn= 0.00D+00
 Coeff-Com:  0.100D+01
 Coeff:      0.100D+01
 Gap=     0.204 Goal=   None    Shift=    0.000
 RMSDP=2.07D-05 MaxDP=4.39D-03              OVMax= 5.29D-04

 Cycle   2  Pass 1  IDiag  1:
 RMSU=  1.96D-05    CP:  1.00D+00
 E= -3448.51865554483     Delta-E=       -0.000019751740 Rises=F Damp=F
 DIIS: error= 1.60D-05 at cycle   2 NSaved=   2.
 NSaved= 2 IEnMin= 2 EnMin= -3448.51865554483     IErMin= 2 ErrMin= 1.60D-05
 ErrMax= 1.60D-05  0.00D+00 EMaxC= 1.00D-01 BMatC= 9.41D-07 BMatP= 2.18D-05
 IDIUse=1 WtCom= 1.00D+00 WtEn= 0.00D+00
 Coeff-Com:  0.391D-01 0.961D+00
 Coeff:      0.391D-01 0.961D+00
 Gap=     0.193 Goal=   None    Shift=    0.000
 RMSDP=2.61D-06 MaxDP=5.46D-04 DE=-1.98D-05 OVMax= 2.16D-04

 Cycle   3  Pass 1  IDiag  1:
 RMSU=  1.00D-06    CP:  1.00D+00  1.11D+00
 E= -3448.51865504877     Delta-E=        0.000000496066 Rises=F Damp=F
 DIIS: error= 1.89D-05 at cycle   3 NSaved=   3.
 NSaved= 3 IEnMin= 2 EnMin= -3448.51865554483     IErMin= 2 ErrMin= 1.60D-05
 ErrMax= 1.89D-05  0.00D+00 EMaxC= 1.00D-01 BMatC= 1.56D-06 BMatP= 9.41D-07
 IDIUse=1 WtCom= 1.00D+00 WtEn= 0.00D+00
 Coeff-Com: -0.161D-01 0.572D+00 0.444D+00
 Coeff:     -0.161D-01 0.572D+00 0.444D+00
 Gap=     0.193 Goal=   None    Shift=    0.000
 RMSDP=9.25D-07 MaxDP=2.01D-04 DE= 4.96D-07 OVMax= 1.48D-04

 Cycle   4  Pass 1  IDiag  1:
 RMSU=  4.41D-07    CP:  1.00D+00  1.09D+00  4.30D-01
 E= -3448.51865643968     Delta-E=       -0.000001390910 Rises=F Damp=F
 DIIS: error= 2.46D-06 at cycle   4 NSaved=   4.
 NSaved= 4 IEnMin= 4 EnMin= -3448.51865643968     IErMin= 4 ErrMin= 2.46D-06
 ErrMax= 2.46D-06  0.00D+00 EMaxC= 1.00D-01 BMatC= 3.04D-08 BMatP= 9.41D-07
 IDIUse=1 WtCom= 1.00D+00 WtEn= 0.00D+00
 Coeff-Com: -0.769D-02 0.163D+00 0.181D+00 0.663D+00
 Coeff:     -0.769D-02 0.163D+00 0.181D+00 0.663D+00
 Gap=     0.193 Goal=   None    Shift=    0.000
 RMSDP=2.32D-07 MaxDP=4.74D-05 DE=-1.39D-06 OVMax= 4.22D-05

 Cycle   5  Pass 1  IDiag  1:
 RMSU=  9.58D-08    CP:  1.00D+00  1.10D+00  5.08D-01  9.05D-01
 E= -3448.51865644913     Delta-E=       -0.000000009457 Rises=F Damp=F
 DIIS: error= 2.17D-06 at cycle   5 NSaved=   5.
 NSaved= 5 IEnMin= 5 EnMin= -3448.51865644913     IErMin= 5 ErrMin= 2.17D-06
 ErrMax= 2.17D-06  0.00D+00 EMaxC= 1.00D-01 BMatC= 2.04D-08 BMatP= 3.04D-08
 IDIUse=1 WtCom= 1.00D+00 WtEn= 0.00D+00
 Coeff-Com: -0.292D-02 0.148D-01 0.518D-01 0.484D+00 0.453D+00
 Coeff:     -0.292D-02 0.148D-01 0.518D-01 0.484D+00 0.453D+00
 Gap=     0.193 Goal=   None    Shift=    0.000
 RMSDP=8.40D-08 MaxDP=1.92D-05 DE=-9.46D-09 OVMax= 1.82D-05

 Cycle   6  Pass 1  IDiag  1:
 RMSU=  2.15D-08    CP:  1.00D+00  1.09D+00  4.84D-01  1.00D+00  5.99D-01
 E= -3448.51865646909     Delta-E=       -0.000000019956 Rises=F Damp=F
 DIIS: error= 1.15D-07 at cycle   6 NSaved=   6.
 NSaved= 6 IEnMin= 6 EnMin= -3448.51865646909     IErMin= 6 ErrMin= 1.15D-07
 ErrMax= 1.15D-07  0.00D+00 EMaxC= 1.00D-01 BMatC= 1.01D-10 BMatP= 2.04D-08
 IDIUse=1 WtCom= 1.00D+00 WtEn= 0.00D+00
 Coeff-Com: -0.216D-03-0.635D-02 0.230D-02 0.851D-01 0.109D+00 0.810D+00
 Coeff:     -0.216D-03-0.635D-02 0.230D-02 0.851D-01 0.109D+00 0.810D+00
 Gap=     0.193 Goal=   None    Shift=    0.000
 RMSDP=9.61D-09 MaxDP=1.33D-06 DE=-2.00D-08 OVMax= 2.71D-06

 Cycle   7  Pass 1  IDiag  1:
 RMSU=  6.74D-09    CP:  1.00D+00  1.09D+00  4.86D-01  1.01D+00  6.00D-01
                    CP:  9.86D-01
 E= -3448.51865646945     Delta-E=       -0.000000000366 Rises=F Damp=F
 DIIS: error= 6.39D-08 at cycle   7 NSaved=   7.
 NSaved= 7 IEnMin= 7 EnMin= -3448.51865646945     IErMin= 7 ErrMin= 6.39D-08
 ErrMax= 6.39D-08  0.00D+00 EMaxC= 1.00D-01 BMatC= 2.46D-11 BMatP= 1.01D-10
 IDIUse=1 WtCom= 1.00D+00 WtEn= 0.00D+00
 Coeff-Com:  0.111D-03-0.368D-02-0.267D-02 0.578D-03 0.148D-01 0.364D+00
 Coeff-Com:  0.627D+00
 Coeff:      0.111D-03-0.368D-02-0.267D-02 0.578D-03 0.148D-01 0.364D+00
 Coeff:      0.627D+00
 Gap=     0.193 Goal=   None    Shift=    0.000
 RMSDP=3.20D-09 MaxDP=3.97D-07 DE=-3.66D-10 OVMax= 9.37D-07

 Error on total polarization charges =  0.02291
 SCF Done:  E(RPBE1PBE) =  -3448.51865647     A.U. after    7 cycles
            NFock=  7  Conv=0.32D-08     -V/T= 2.0047
 KE= 3.432383844135D+03 PE=-3.643934574749D+04 EE= 1.534686860706D+04
 Leave Link  502 at Mon Oct 18 01:22:58 2021, MaxMem=  7864320000 cpu:           66589.4 elap:            2114.1
 (Enter /apps/gaussian/g16-c01-avx/g16/l508.exe)
 QCSCF skips out because SCF is already converged.
 Leave Link  508 at Mon Oct 18 01:22:58 2021, MaxMem=  7864320000 cpu:               0.0 elap:               0.0
 (Enter /apps/gaussian/g16-c01-avx/g16/l601.exe)
 Copying SCF densities to generalized density rwf, IOpCl= 0 IROHF=0.
 Hyperfine terms turned off by default for NAtoms > 100.

 **********************************************************************

            Population analysis using the SCF Density.

 **********************************************************************

 Orbital symmetries:
       Occupied  (A) (A) (A) (A) (A) (A) (A) (A) (A) (A) (A) (A)
                 (A) (A) (A) (A) (A) (A) (A) (A) (A) (A) (A) (A)
                 (A) (A) (A) (A) (A) (A) (A) (A) (A) (A) (A) (A)
                 (A) (A) (A) (A) (A) (A) (A) (A) (A) (A) (A) (A)
                 (A) (A) (A) (A) (A) (A) (A) (A) (A) (A) (A) (A)
                 (A) (A) (A) (A) (A) (A) (A) (A) (A) (A) (A) (A)
                 (A) (A) (A) (A) (A) (A) (A) (A) (A) (A) (A) (A)
                 (A) (A) (A) (A) (A) (A) (A) (A) (A) (A) (A) (A)
                 (A) (A) (A) (A) (A) (A) (A) (A) (A) (A) (A) (A)
                 (A) (A) (A) (A) (A) (A) (A) (A) (A) (A) (A) (A)
                 (A) (A) (A) (A) (A) (A) (A) (A) (A) (A) (A) (A)
                 (A) (A) (A) (A) (A) (A) (A) (A) (A) (A) (A) (A)
                 (A) (A) (A) (A) (A) (A) (A) (A) (A) (A) (A) (A)
                 (A) (A) (A) (A) (A) (A) (A) (A) (A) (A) (A) (A)
                 (A) (A) (A) (A) (A) (A) (A) (A) (A) (A) (A) (A)
                 (A) (A) (A) (A) (A) (A) (A) (A) (A) (A) (A) (A)
                 (A) (A) (A) (A) (A) (A) (A) (A) (A) (A) (A) (A)
                 (A) (A) (A) (A) (A) (A) (A) (A) (A) (A) (A) (A)
                 (A) (A) (A) (A) (A) (A) (A) (A) (A) (A) (A) (A)
                 (A) (A) (A) (A) (A) (A) (A) (A) (A) (A) (A) (A)
                 (A) (A) (A) (A) (A) (A) (A) (A) (A) (A) (A) (A)
                 (A) (A) (A) (A) (A) (A) (A) (A) (A) (A) (A) (A)
                 (A) (A) (A) (A) (A) (A) (A) (A) (A) (A) (A) (A)
                 (A) (A) (A) (A) (A) (A) (A) (A) (A) (A) (A) (A)
                 (A) (A) (A) (A) (A) (A) (A) (A) (A) (A) (A) (A)
       Virtual   (A) (A) (A) (A) (A) (A) (A) (A) (A) (A) (A) (A)
                 (A) (A) (A) (A) (A) (A) (A) (A) (A) (A) (A) (A)
                 (A) (A) (A) (A) (A) (A) (A) (A) (A) (A) (A) (A)
                 (A) (A) (A) (A) (A) (A) (A) (A) (A) (A) (A) (A)
                 (A) (A) (A) (A) (A) (A) (A) (A) (A) (A) (A) (A)
                 (A) (A) (A) (A) (A) (A) (A) (A) (A) (A) (A) (A)
                 (A) (A) (A) (A) (A) (A) (A) (A) (A) (A) (A) (A)
                 (A) (A) (A) (A) (A) (A) (A) (A) (A) (A) (A) (A)
                 (A) (A) (A) (A) (A) (A) (A) (A) (A) (A) (A) (A)
                 (A) (A) (A) (A) (A) (A) (A) (A) (A) (A) (A) (A)
                 (A) (A) (A) (A) (A) (A) (A) (A) (A) (A) (A) (A)
                 (A) (A) (A) (A) (A) (A) (A) (A) (A) (A) (A) (A)
                 (A) (A) (A) (A) (A) (A) (A) (A) (A) (A) (A) (A)
                 (A) (A) (A) (A) (A) (A) (A) (A) (A) (A) (A) (A)
                 (A) (A) (A) (A) (A) (A) (A) (A) (A) (A) (A) (A)
                 (A) (A) (A) (A) (A) (A) (A) (A) (A) (A) (A) (A)
                 (A) (A) (A) (A) (A) (A) (A) (A) (A) (A) (A) (A)
                 (A) (A) (A) (A) (A) (A) (A) (A) (A) (A) (A) (A)
                 (A) (A) (A) (A) (A) (A) (A) (A) (A) (A) (A) (A)
                 (A) (A) (A) (A) (A) (A) (A) (A) (A) (A) (A) (A)
                 (A) (A) (A) (A) (A) (A) (A) (A) (A) (A) (A) (A)
                 (A) (A) (A) (A) (A) (A) (A) (A) (A) (A) (A) (A)
                 (A) (A) (A) (A) (A) (A) (A) (A) (A) (A) (A) (A)
                 (A) (A) (A) (A) (A) (A) (A) (A) (A) (A) (A) (A)
                 (A) (A) (A) (A) (A) (A) (A) (A) (A) (A) (A) (A)
                 (A) (A) (A) (A) (A) (A) (A) (A) (A) (A) (A) (A)
                 (A) (A) (A) (A) (A) (A) (A) (A) (A) (A) (A) (A)
                 (A) (A) (A) (A) (A) (A) (A) (A) (A) (A) (A) (A)
                 (A) (A) (A) (A) (A) (A) (A) (A) (A) (A) (A) (A)
                 (A) (A) (A) (A) (A) (A) (A) (A) (A) (A) (A) (A)
                 (A) (A) (A) (A) (A) (A) (A) (A) (A) (A) (A) (A)
                 (A) (A) (A) (A) (A) (A) (A) (A) (A) (A) (A) (A)
                 (A) (A) (A) (A) (A) (A) (A) (A) (A) (A) (A) (A)
                 (A) (A) (A) (A) (A) (A) (A) (A) (A) (A) (A) (A)
                 (A) (A) (A) (A) (A) (A) (A) (A) (A) (A) (A) (A)
                 (A) (A) (A) (A) (A) (A) (A) (A) (A) (A) (A) (A)
                 (A) (A) (A) (A) (A) (A) (A) (A) (A) (A) (A) (A)
                 (A) (A) (A) (A) (A) (A) (A) (A) (A) (A) (A) (A)
                 (A) (A) (A) (A) (A) (A) (A) (A) (A) (A) (A) (A)
                 (A) (A) (A) (A) (A) (A) (A) (A) (A) (A) (A) (A)
                 (A) (A) (A) (A) (A) (A) (A) (A) (A) (A) (A) (A)
                 (A) (A) (A) (A) (A) (A) (A) (A) (A) (A) (A) (A)
                 (A) (A) (A) (A) (A) (A) (A) (A) (A) (A) (A) (A)
                 (A) (A) (A) (A) (A) (A) (A) (A) (A) (A) (A) (A)
                 (A) (A) (A) (A) (A) (A) (A) (A) (A) (A) (A) (A)
                 (A) (A) (A) (A) (A) (A) (A) (A) (A) (A) (A) (A)
                 (A) (A) (A) (A) (A) (A) (A) (A) (A) (A) (A) (A)
                 (A) (A) (A) (A) (A) (A) (A) (A) (A) (A) (A) (A)
                 (A) (A) (A) (A) (A) (A) (A) (A) (A) (A) (A) (A)
                 (A) (A) (A) (A) (A) (A) (A) (A) (A) (A) (A) (A)
                 (A) (A) (A) (A) (A) (A) (A) (A) (A) (A) (A) (A)
                 (A) (A) (A) (A) (A) (A) (A) (A) (A) (A) (A) (A)
                 (A) (A) (A) (A) (A) (A) (A) (A) (A) (A) (A) (A)
                 (A) (A) (A) (A) (A) (A) (A) (A) (A) (A) (A) (A)
                 (A) (A) (A) (A) (A) (A) (A) (A) (A) (A) (A) (A)
                 (A) (A) (A) (A) (A) (A) (A) (A) (A) (A) (A) (A)
                 (A) (A) (A) (A) (A) (A) (A) (A) (A) (A) (A) (A)
                 (A) (A) (A) (A) (A) (A) (A) (A) (A) (A) (A) (A)
                 (A) (A) (A) (A) (A) (A) (A) (A) (A) (A) (A) (A)
                 (A) (A) (A) (A) (A) (A) (A) (A) (A) (A) (A) (A)
                 (A) (A) (A) (A) (A) (A) (A) (A) (A) (A) (A) (A)
                 (A) (A) (A) (A) (A) (A) (A) (A) (A) (A) (A) (A)
                 (A) (A) (A) (A) (A) (A) (A) (A) (A) (A) (A) (A)
                 (A) (A) (A) (A) (A) (A) (A) (A) (A) (A) (A) (A)
                 (A) (A) (A) (A) (A) (A) (A) (A) (A) (A) (A) (A)
                 (A) (A) (A) (A) (A) (A) (A) (A) (A) (A) (A) (A)
                 (A) (A) (A) (A) (A) (A) (A) (A) (A) (A) (A) (A)
                 (A) (A) (A) (A) (A) (A) (A) (A) (A) (A) (A) (A)
                 (A) (A) (A) (A) (A) (A) (A) (A) (A) (A) (A) (A)
                 (A) (A) (A) (A) (A) (A) (A) (A) (A) (A) (A) (A)
                 (A) (A) (A) (A) (A) (A) (A) (A) (A) (A) (A) (A)
                 (A) (A) (A) (A) (A) (A) (A) (A) (A) (A) (A) (A)
                 (A) (A) (A) (A) (A) (A) (A) (A) (A) (A) (A) (A)
                 (A) (A) (A) (A) (A) (A) (A) (A) (A) (A) (A) (A)
                 (A) (A) (A) (A) (A) (A) (A) (A) (A) (A) (A) (A)
                 (A) (A) (A) (A) (A) (A) (A) (A) (A) (A) (A) (A)
                 (A) (A) (A) (A) (A) (A) (A) (A) (A) (A) (A) (A)
                 (A) (A) (A) (A) (A) (A) (A) (A) (A) (A) (A) (A)
                 (A) (A) (A) (A) (A) (A) (A) (A) (A) (A) (A) (A)
                 (A) (A) (A) (A) (A) (A) (A) (A) (A) (A) (A) (A)
                 (A) (A) (A) (A) (A) (A) (A) (A) (A) (A) (A) (A)
                 (A) (A) (A) (A) (A) (A) (A) (A) (A) (A) (A) (A)
                 (A) (A) (A) (A) (A) (A) (A) (A) (A) (A) (A) (A)
                 (A) (A) (A) (A) (A) (A) (A) (A) (A) (A) (A) (A)
                 (A) (A) (A) (A) (A) (A) (A) (A) (A) (A) (A) (A)
                 (A) (A) (A) (A) (A) (A) (A) (A) (A) (A) (A) (A)
                 (A) (A) (A) (A) (A) (A) (A) (A) (A) (A) (A) (A)
                 (A) (A) (A) (A) (A) (A) (A) (A) (A) (A) (A) (A)
                 (A) (A) (A) (A) (A) (A) (A) (A) (A) (A) (A) (A)
                 (A) (A) (A) (A) (A) (A) (A) (A) (A) (A) (A) (A)
                 (A) (A) (A) (A) (A) (A) (A) (A) (A) (A) (A) (A)
                 (A) (A) (A) (A) (A) (A) (A) (A) (A) (A) (A) (A)
                 (A) (A) (A) (A) (A) (A) (A) (A) (A) (A) (A) (A)
                 (A) (A) (A) (A) (A) (A) (A) (A) (A) (A) (A) (A)
                 (A) (A) (A) (A) (A) (A) (A) (A) (A) (A) (A) (A)
                 (A) (A) (A) (A) (A) (A) (A) (A) (A) (A) (A) (A)
                 (A) (A) (A) (A) (A) (A) (A) (A) (A) (A) (A) (A)
                 (A) (A) (A) (A) (A) (A) (A) (A) (A) (A) (A) (A)
                 (A) (A) (A) (A) (A) (A) (A) (A) (A) (A) (A) (A)
                 (A) (A) (A) (A) (A) (A) (A) (A) (A) (A) (A) (A)
                 (A) (A) (A) (A) (A) (A) (A) (A) (A) (A) (A) (A)
                 (A) (A) (A) (A) (A) (A) (A) (A) (A) (A) (A) (A)
                 (A) (A) (A) (A) (A) (A) (A) (A) (A) (A) (A) (A)
                 (A) (A) (A) (A) (A) (A) (A) (A) (A) (A) (A) (A)
                 (A) (A) (A) (A) (A) (A) (A) (A) (A) (A) (A) (A)
                 (A) (A) (A) (A) (A) (A) (A) (A) (A) (A) (A) (A)
                 (A) (A) (A) (A) (A) (A) (A) (A) (A) (A) (A) (A)
                 (A) (A) (A) (A) (A) (A) (A) (A) (A) (A) (A) (A)
                 (A) (A) (A) (A) (A) (A) (A) (A) (A) (A) (A) (A)
                 (A) (A) (A) (A) (A) (A) (A) (A) (A) (A) (A) (A)
                 (A) (A) (A) (A) (A) (A) (A) (A) (A) (A) (A) (A)
                 (A) (A) (A) (A) (A) (A) (A) (A) (A) (A) (A) (A)
                 (A) (A) (A) (A) (A) (A) (A) (A) (A) (A) (A) (A)
                 (A) (A) (A) (A) (A) (A) (A) (A) (A) (A) (A) (A)
                 (A) (A) (A) (A) (A) (A) (A) (A) (A) (A) (A) (A)
                 (A) (A) (A) (A) (A) (A) (A) (A) (A) (A) (A) (A)
                 (A) (A) (A) (A) (A) (A) (A) (A) (A) (A) (A) (A)
                 (A) (A) (A) (A) (A) (A) (A) (A) (A) (A) (A) (A)
                 (A) (A) (A) (A) (A) (A) (A) (A) (A) (A) (A) (A)
                 (A) (A) (A) (A) (A) (A) (A) (A) (A) (A) (A) (A)
                 (A) (A) (A) (A) (A) (A) (A) (A) (A) (A) (A) (A)
                 (A) (A) (A) (A) (A) (A) (A) (A) (A) (A) (A) (A)
                 (A) (A) (A) (A) (A) (A) (A) (A) (A) (A) (A) (A)
                 (A) (A) (A) (A) (A) (A) (A) (A) (A) (A) (A) (A)
                 (A) (A) (A) (A) (A) (A) (A) (A) (A) (A) (A) (A)
                 (A) (A) (A) (A) (A) (A) (A) (A) (A) (A) (A) (A)
                 (A) (A) (A) (A) (A) (A) (A) (A) (A) (A) (A) (A)
                 (A) (A) (A) (A) (A) (A) (A) (A) (A) (A) (A) (A)
                 (A) (A) (A) (A) (A) (A) (A) (A) (A) (A) (A) (A)
                 (A) (A) (A) (A) (A) (A) (A) (A) (A) (A) (A) (A)
                 (A) (A) (A) (A) (A) (A) (A) (A) (A) (A) (A) (A)
                 (A) (A) (A) (A) (A) (A) (A) (A) (A) (A) (A) (A)
                 (A) (A) (A) (A) (A) (A) (A) (A) (A) (A) (A) (A)
                 (A) (A) (A) (A) (A) (A) (A) (A) (A) (A) (A) (A)
                 (A) (A) (A) (A) (A) (A) (A) (A) (A) (A) (A) (A)
                 (A) (A) (A) (A) (A) (A) (A) (A) (A) (A) (A) (A)
                 (A) (A) (A) (A) (A) (A) (A) (A) (A) (A) (A) (A)
                 (A) (A) (A) (A) (A) (A) (A) (A) (A) (A) (A) (A)
                 (A) (A) (A) (A) (A) (A) (A) (A) (A) (A) (A) (A)
                 (A) (A) (A) (A) (A) (A) (A) (A) (A) (A) (A) (A)
                 (A) (A) (A) (A) (A) (A) (A) (A) (A) (A) (A) (A)
                 (A) (A) (A) (A) (A) (A) (A) (A) (A) (A) (A) (A)
                 (A) (A) (A) (A) (A) (A) (A) (A) (A) (A) (A) (A)
                 (A) (A) (A) (A) (A) (A) (A) (A) (A) (A) (A) (A)
                 (A) (A) (A) (A) (A) (A) (A) (A) (A) (A) (A) (A)
                 (A) (A) (A) (A) (A) (A) (A) (A) (A) (A) (A) (A)
                 (A) (A) (A) (A) (A) (A) (A) (A) (A) (A) (A) (A)
                 (A) (A) (A) (A) (A) (A) (A) (A) (A) (A) (A) (A)
                 (A) (A) (A) (A) (A) (A) (A) (A) (A) (A) (A) (A)
                 (A) (A) (A) (A) (A) (A) (A) (A) (A) (A) (A) (A)
                 (A) (A) (A) (A) (A) (A) (A) (A) (A) (A) (A) (A)
                 (A) (A) (A) (A) (A) (A) (A) (A) (A) (A) (A) (A)
                 (A) (A) (A) (A) (A) (A) (A) (A) (A) (A) (A) (A)
                 (A) (A) (A) (A) (A) (A) (A) (A) (A) (A) (A) (A)
                 (A) (A) (A) (A) (A) (A) (A) (A) (A) (A) (A) (A)
                 (A) (A) (A) (A) (A) (A) (A) (A) (A) (A) (A) (A)
                 (A) (A) (A) (A) (A) (A) (A) (A) (A) (A) (A) (A)
                 (A) (A) (A) (A) (A) (A) (A) (A) (A) (A) (A) (A)
                 (A) (A) (A) (A) (A) (A) (A) (A) (A) (A) (A) (A)
                 (A) (A) (A) (A) (A) (A) (A) (A) (A) (A) (A) (A)
                 (A) (A) (A) (A) (A) (A) (A) (A) (A) (A) (A) (A)
                 (A) (A) (A) (A) (A) (A) (A) (A) (A) (A) (A) (A)
                 (A) (A) (A) (A) (A) (A) (A) (A) (A) (A) (A) (A)
                 (A) (A) (A) (A) (A) (A) (A) (A) (A) (A) (A) (A)
                 (A) (A) (A) (A) (A) (A) (A) (A) (A) (A) (A) (A)
                 (A) (A) (A) (A) (A) (A) (A) (A) (A) (A) (A) (A)
                 (A) (A) (A) (A) (A) (A) (A) (A) (A) (A) (A) (A)
                 (A) (A) (A) (A) (A) (A) (A) (A) (A) (A) (A) (A)
                 (A) (A) (A) (A) (A) (A) (A) (A) (A) (A) (A) (A)
                 (A) (A) (A) (A) (A) (A) (A) (A) (A) (A) (A) (A)
                 (A) (A) (A) (A) (A) (A) (A) (A) (A) (A) (A) (A)
                 (A) (A) (A) (A) (A) (A) (A) (A) (A) (A) (A) (A)
                 (A) (A) (A) (A) (A) (A) (A) (A) (A) (A) (A) (A)
                 (A) (A) (A) (A) (A) (A) (A) (A) (A) (A) (A) (A)
                 (A) (A) (A) (A) (A) (A) (A) (A) (A) (A) (A) (A)
                 (A) (A) (A) (A) (A) (A) (A) (A) (A) (A) (A) (A)
                 (A) (A) (A) (A) (A) (A) (A) (A) (A) (A) (A) (A)
                 (A) (A) (A) (A) (A) (A) (A) (A) (A) (A) (A) (A)
                 (A) (A) (A) (A) (A) (A) (A) (A) (A) (A) (A) (A)
                 (A) (A) (A) (A) (A) (A) (A) (A) (A) (A) (A) (A)
                 (A) (A) (A) (A) (A) (A) (A) (A) (A) (A) (A) (A)
                 (A) (A) (A) (A) (A) (A) (A) (A) (A) (A) (A) (A)
                 (A) (A) (A) (A) (A) (A) (A) (A) (A) (A) (A) (A)
                 (A) (A) (A) (A) (A) (A) (A) (A) (A) (A) (A) (A)
                 (A) (A) (A) (A) (A) (A) (A) (A) (A) (A) (A) (A)
                 (A) (A) (A) (A) (A) (A) (A) (A) (A) (A) (A) (A)
                 (A) (A) (A) (A) (A) (A) (A) (A) (A) (A) (A) (A)
                 (A) (A) (A) (A) (A) (A) (A) (A) (A) (A) (A) (A)
                 (A) (A) (A) (A) (A) (A) (A) (A) (A) (A) (A) (A)
                 (A) (A) (A) (A) (A) (A) (A) (A) (A) (A) (A) (A)
                 (A) (A) (A) (A) (A) (A) (A) (A) (A) (A) (A) (A)
                 (A) (A) (A) (A) (A) (A) (A) (A) (A) (A) (A) (A)
                 (A) (A) (A) (A) (A) (A) (A) (A) (A) (A) (A) (A)
                 (A) (A) (A) (A) (A) (A) (A) (A) (A) (A) (A) (A)
                 (A) (A) (A) (A) (A) (A) (A) (A) (A) (A) (A) (A)
                 (A) (A) (A) (A) (A) (A) (A) (A) (A) (A) (A) (A)
                 (A) (A) (A) (A) (A) (A) (A) (A) (A) (A) (A) (A)
                 (A) (A) (A) (A) (A) (A) (A) (A) (A) (A) (A) (A)
                 (A) (A) (A) (A) (A) (A) (A) (A) (A) (A) (A) (A)
                 (A) (A) (A) (A) (A) (A) (A) (A) (A) (A) (A) (A)
                 (A) (A) (A) (A) (A) (A) (A) (A) (A) (A) (A) (A)
                 (A) (A) (A) (A) (A) (A) (A) (A) (A) (A) (A) (A)
                 (A) (A) (A) (A) (A) (A) (A) (A) (A) (A) (A) (A)
                 (A) (A) (A) (A) (A) (A) (A) (A) (A) (A) (A) (A)
                 (A) (A) (A) (A) (A) (A) (A) (A) (A) (A) (A) (A)
                 (A) (A) (A) (A) (A) (A) (A) (A) (A) (A) (A) (A)
                 (A) (A) (A) (A) (A) (A) (A) (A) (A) (A) (A) (A)
                 (A) (A) (A) (A) (A) (A) (A) (A) (A) (A) (A) (A)
                 (A) (A) (A) (A) (A) (A) (A) (A) (A) (A) (A) (A)
                 (A) (A) (A) (A) (A) (A) (A) (A) (A) (A) (A) (A)
                 (A) (A) (A) (A) (A) (A) (A) (A) (A) (A) (A) (A)
                 (A) (A) (A) (A) (A) (A) (A) (A) (A) (A) (A) (A)
                 (A) (A) (A) (A) (A) (A) (A) (A) (A) (A) (A) (A)
                 (A) (A) (A) (A) (A) (A) (A) (A) (A) (A) (A) (A)
                 (A) (A) (A) (A) (A) (A) (A) (A) (A) (A) (A) (A)
                 (A) (A) (A) (A) (A) (A) (A) (A) (A) (A) (A) (A)
                 (A) (A) (A) (A) (A) (A) (A) (A) (A) (A) (A) (A)
                 (A) (A) (A) (A) (A) (A) (A) (A) (A) (A) (A) (A)
                 (A) (A) (A) (A) (A) (A) (A) (A) (A) (A) (A) (A)
                 (A) (A) (A) (A) (A) (A) (A) (A) (A) (A) (A) (A)
                 (A) (A) (A) (A) (A) (A) (A) (A) (A) (A) (A) (A)
                 (A) (A) (A) (A) (A) (A) (A) (A) (A) (A) (A) (A)
                 (A) (A) (A) (A) (A) (A) (A) (A) (A) (A) (A) (A)
                 (A) (A) (A) (A) (A) (A) (A) (A) (A) (A) (A) (A)
                 (A) (A) (A) (A) (A) (A) (A) (A) (A) (A) (A) (A)
                 (A) (A) (A) (A) (A) (A) (A) (A) (A) (A) (A) (A)
                 (A) (A) (A) (A) (A) (A) (A) (A) (A) (A) (A) (A)
                 (A) (A) (A) (A) (A) (A) (A) (A) (A) (A) (A) (A)
                 (A) (A) (A) (A) (A) (A) (A) (A) (A) (A) (A) (A)
                 (A) (A) (A) (A) (A) (A) (A) (A) (A) (A) (A) (A)
                 (A) (A) (A) (A) (A) (A) (A) (A) (A) (A) (A) (A)
                 (A) (A) (A) (A) (A) (A) (A) (A) (A) (A) (A) (A)
                 (A) (A) (A) (A) (A) (A) (A) (A) (A) (A) (A) (A)
                 (A) (A) (A) (A) (A) (A) (A) (A) (A) (A) (A) (A)
 The electronic state is 1-A.
 Alpha  occ. eigenvalues --  -14.37685 -14.37685 -14.37684 -14.37683 -14.37681
 Alpha  occ. eigenvalues --  -14.37680 -14.37680 -14.37680 -14.37679 -14.37678
[...]
 Alpha virt. eigenvalues --    4.27846   4.27846   4.27849   4.28631   4.28824
 Alpha virt. eigenvalues --    4.28825   4.28826   4.29259   4.29259   4.29261
 Alpha virt. eigenvalues --    4.29315   4.29315   4.30615   4.30616   4.30720
 Alpha virt. eigenvalues --    4.30740   4.30742   4.33153   4.33154   4.33161
 Alpha virt. eigenvalues --    4.33457   4.33458   4.33923   4.33926   4.33930
 Alpha virt. eigenvalues --    4.35455   4.35813   4.35815   4.35821   4.37041
 Alpha virt. eigenvalues --    4.37044   4.37047   4.37614   4.37615   4.37619
 Alpha virt. eigenvalues --    4.38384   4.38386   4.38396   4.38973   4.38975
 Alpha virt. eigenvalues --    4.38980   4.39140   4.39142   4.39197   4.39996
 Alpha virt. eigenvalues --    4.39999   4.40002   4.40090   4.40090   4.40092
 Alpha virt. eigenvalues --    4.40738   4.43495   4.43498   4.43501   4.44286
 Alpha virt. eigenvalues --    4.44288   4.44988   4.44989   4.44994   4.45613
 Alpha virt. eigenvalues --    4.45615   4.45615   4.50278   4.51715   4.51720
 Alpha virt. eigenvalues --    4.51742   4.53430   4.53433   4.53435   4.53581
 Alpha virt. eigenvalues --    4.53584   4.53586   4.55258   4.55834   4.55835
 Alpha virt. eigenvalues --    4.56369   4.56369   4.56381   4.59536   4.59539
 Alpha virt. eigenvalues --    4.60190   4.60211   4.60214   4.60314   4.60870
 Alpha virt. eigenvalues --    4.60872   4.60872   4.61747   4.61802   4.61805
 Alpha virt. eigenvalues --    4.61806   4.63184   4.63194   4.63199   4.63286
 Alpha virt. eigenvalues --    4.63289   4.63671   4.63681   4.63683   4.63886
 Alpha virt. eigenvalues --    4.63889   4.63907   4.65322   4.65324   4.65533
 Alpha virt. eigenvalues --    4.65534   4.65535   4.67371   4.68624   4.68630
 Alpha virt. eigenvalues --    4.68630   4.68718   4.68725   4.68728   4.68800
 Alpha virt. eigenvalues --    4.68801   4.68968   4.70250   4.70252   4.70254
 Alpha virt. eigenvalues --    4.71170   4.71171   4.71172   4.72537   4.72537
 Alpha virt. eigenvalues --    4.72556   4.72557   4.72569   4.74352   4.74434
 Alpha virt. eigenvalues --    4.74436   4.74437   4.75744   4.75757   4.75761
 Alpha virt. eigenvalues --    4.76830   4.79653   4.79654   4.80327   4.80329
 Alpha virt. eigenvalues --    4.80330   4.81687   4.81688   4.81692   4.82670
 Alpha virt. eigenvalues --    4.82672   4.82674   4.82749   4.82777   4.82779
 Alpha virt. eigenvalues --    4.83225   4.83228   4.83229   4.84086   4.85350
 Alpha virt. eigenvalues --    4.85352   4.85353   4.85839   4.85841   4.85846
 Alpha virt. eigenvalues --    4.86867   4.86886   4.86887   4.88551   4.88553
 Alpha virt. eigenvalues --    4.88563   4.88814   4.88814   4.89827   4.89831
 Alpha virt. eigenvalues --    4.89833   4.90100   4.90114   4.90115   4.92143
 Alpha virt. eigenvalues --    4.92157   4.92159   4.93100   4.93103   4.93109
 Alpha virt. eigenvalues --    4.93800   4.93800   4.94046   4.94053   4.94055
 Alpha virt. eigenvalues --    4.95911   4.95912   4.95919   4.97061   4.99325
 Alpha virt. eigenvalues --    4.99329   4.99332   5.03028   5.03029   5.03231
 Alpha virt. eigenvalues --    5.03234   5.03235   5.04296   5.04297   5.04300
 Alpha virt. eigenvalues --    5.04792   5.04970   5.04971   5.04980   5.06368
 Alpha virt. eigenvalues --    5.06376   5.06377   5.06801   5.06802   5.06810
 Alpha virt. eigenvalues --    5.07061   5.07062   5.07602   5.07850   5.07854
 Alpha virt. eigenvalues --    5.07855   5.09707   5.09709   5.09964   5.09982
 Alpha virt. eigenvalues --    5.09986   5.10714   5.10720   5.10740   5.10888
 Alpha virt. eigenvalues --    5.11708   5.11713   5.11714   5.12065   5.12065
 Alpha virt. eigenvalues --    5.13890   5.13891   5.13892   5.16535   5.16537
 Alpha virt. eigenvalues --    5.16540   5.17804   5.18008   5.18009   5.18012
 Alpha virt. eigenvalues --    5.21459   5.21463   5.21467   5.22738   5.22739
 Alpha virt. eigenvalues --    5.22901   5.22903   5.22907   5.25606   5.25607
 Alpha virt. eigenvalues --    5.25871   5.25873   5.25875   5.26731   5.26733
 Alpha virt. eigenvalues --    5.26738   5.30778   5.30782   5.30784   5.31238
 Alpha virt. eigenvalues --    5.36038   5.36043   5.36048   5.36106   5.36110
 Alpha virt. eigenvalues --    5.36115   5.38734   5.38748   5.38756   5.38896
 Alpha virt. eigenvalues --    5.39555   5.39563   5.39578   5.40027   5.40028
 Alpha virt. eigenvalues --    5.40347   5.40350   5.40357   5.43193   5.44764
 Alpha virt. eigenvalues --    5.44773   5.44774   5.46354   5.46354   5.46402
 Alpha virt. eigenvalues --    5.46404   5.46404   5.47513   5.47515   5.47522
 Alpha virt. eigenvalues --    5.47865   5.47866   5.48141   5.48148   5.48151
 Alpha virt. eigenvalues --    5.48455   5.49673   5.49681   5.49685   5.50171
 Alpha virt. eigenvalues --    5.50175   5.50177   5.50541   5.50543   5.53077
 Alpha virt. eigenvalues --    5.53732   5.53738   5.53742   5.57932   5.59025
 Alpha virt. eigenvalues --    5.59025   5.59026   5.65143   5.65152   5.65155
 Alpha virt. eigenvalues --    5.66871   5.69985   5.70226   5.70227   5.70232
 Alpha virt. eigenvalues --    5.70864   5.70866   5.71493   5.71499   5.71541
 Alpha virt. eigenvalues --    5.73965   5.74001   5.74007   5.79349   5.79353
 Alpha virt. eigenvalues --    5.79354   5.79796   5.79799   5.79876   5.79883
 Alpha virt. eigenvalues --    5.79887   5.82995   5.83889   5.83895   5.83908
 Alpha virt. eigenvalues --    5.96481   5.96482   5.96944   5.96947   5.96959
 Alpha virt. eigenvalues --    5.98731   5.98751   5.98751   6.00566   6.02551
 Alpha virt. eigenvalues --    6.02557   6.02561   6.03292   6.03295   6.09021
 Alpha virt. eigenvalues --    6.09024   6.09029   6.09397   6.09404   6.09411
 Alpha virt. eigenvalues --    6.12406   6.12415   6.12438   6.13764  22.42957
 Alpha virt. eigenvalues --   22.44103  22.44112  22.44144  22.56586  22.56667
 Alpha virt. eigenvalues --   22.56667  22.56669  22.56715  22.56716  22.59417
 Alpha virt. eigenvalues --   22.59421  22.59422  22.59434  22.59436  22.59437
 Alpha virt. eigenvalues --   22.64005  22.64009  22.64011  22.64120  22.64124
 Alpha virt. eigenvalues --   22.64126  22.68371  22.68373  22.68439  22.68441
 Alpha virt. eigenvalues --   22.68442  22.68540  22.84452  22.84457  22.84812
 Alpha virt. eigenvalues --   22.84815  22.84823  22.85545  22.88691  22.88702
 Alpha virt. eigenvalues --   22.88707  22.88950  22.88953  22.89433  22.89439
 Alpha virt. eigenvalues --   22.89440  22.93145  22.93148  22.93149  22.94477
 Alpha virt. eigenvalues --   22.94479  22.94482  22.98520  23.03271  23.03277
 Alpha virt. eigenvalues --   23.03284  23.14258  23.14262  23.14954  23.14957
 Alpha virt. eigenvalues --   23.14964  23.16196  23.16210  23.16212  23.16354
 Alpha virt. eigenvalues --   23.16357  23.16362  23.16942  23.16959  23.16965
 Alpha virt. eigenvalues --   23.17046  23.17048  23.50523  23.51573  23.51583
 Alpha virt. eigenvalues --   23.51599  32.80538  32.80548  32.80549  32.84693
 Alpha virt. eigenvalues --   32.86510  32.86517  32.86540  32.89692  32.89725
 Alpha virt. eigenvalues --   32.89732  32.90658  32.90661
          Condensed to atoms (all electrons):
 Mulliken charges:
               1
     1  C    0.360581
     2  C   -0.163527
     3  C   -0.351545
     4  C    0.360122
     5  H    0.119832
     6  C   -0.351676
     7  C    0.360657
     8  H    0.119770
     9  C   -0.351659
    10  C   -0.163589
    11  H    0.119864
    12  C   -0.163385
    13  H    0.089043
    14  H    0.089138
    15  H    0.089093
    16  C    0.360985
    17  C   -0.164259
    18  C   -0.350931
    19  C    0.360346
    20  H    0.119735
    21  C   -0.351275
    22  C    0.360805
    23  H    0.119721
    24  C   -0.352235
    25  C   -0.163479
    26  H    0.119664
    27  C   -0.163284
    28  H    0.089122
    29  H    0.088956
    30  H    0.089095
    31  C    0.360431
    32  C   -0.163501
    33  C   -0.350774
    34  C    0.360002
    35  H    0.119629
    36  C   -0.351483
    37  C    0.361003
    38  H    0.119779
    39  C   -0.352075
    40  C   -0.163539
    41  H    0.119430
    42  C   -0.163441
    43  H    0.089051
    44  H    0.089060
    45  H    0.089224
    46  C    0.360544
    47  C   -0.163427
    48  C   -0.350862
    49  C    0.360158
    50  H    0.119637
    51  C   -0.351364
    52  C    0.360474
    53  H    0.119680
    54  C   -0.351919
    55  C   -0.163469
    56  H    0.119612
    57  C   -0.163560
    58  H    0.089126
    59  H    0.088975
    60  H    0.089160
    61  C    0.044348
    62  C    0.044559
    63  N   -0.197728
    64  N   -0.197133
    65  C   -0.193675
    66  H    0.051691
    67  C   -0.178042
    68  H    0.112328
    69  H    0.101967
    70  C   -0.178128
    71  H    0.092117
    72  H    0.112642
    73  C   -0.193882
    74  H    0.112637
    75  H    0.092129
    76  H    0.102028
    77  H    0.112298
    78  H    0.051726
    79  C    0.044890
    80  C    0.044155
    81  N   -0.197542
    82  N   -0.197485
    83  C   -0.193765
    84  H    0.051813
    85  C   -0.178006
    86  H    0.112301
    87  H    0.101973
    88  C   -0.178072
    89  H    0.092119
    90  H    0.112641
    91  C   -0.193997
    92  H    0.112655
    93  H    0.092117
    94  H    0.102107
    95  H    0.112286
    96  H    0.051560
    97  C    0.044418
    98  C    0.044467
    99  N   -0.197250
   100  N   -0.197559
   101  C   -0.193555
   102  H    0.051616
   103  C   -0.178070
   104  H    0.112320
   105  H    0.101849
   106  C   -0.178002
   107  H    0.092116
   108  H    0.112651
   109  C   -0.193948
   110  H    0.112648
   111  H    0.092125
   112  H    0.102025
   113  H    0.112261
   114  H    0.051589
   115  C    0.044510
   116  C    0.043767
   117  N   -0.197774
   118  N   -0.197434
   119  C   -0.193616
   120  H    0.051756
   121  C   -0.178036
   122  H    0.112233
   123  H    0.101979
   124  C   -0.178015
   125  H    0.092111
   126  H    0.112642
   127  C   -0.193957
   128  H    0.112651
   129  H    0.092108
   130  H    0.102017
   131  H    0.112303
   132  H    0.051669
   133  C    0.044638
   134  C    0.043716
   135  N   -0.197514
   136  N   -0.197403
   137  C   -0.193581
   138  H    0.051673
   139  C   -0.177979
   140  H    0.112291
   141  H    0.101912
   142  C   -0.178134
   143  H    0.092105
   144  H    0.112637
   145  C   -0.193770
   146  H    0.112646
   147  H    0.092137
   148  H    0.101986
   149  H    0.112249
   150  H    0.051606
   151  C    0.044217
   152  C    0.044053
   153  N   -0.197701
   154  N   -0.197456
   155  C   -0.193499
   156  H    0.051765
   157  C   -0.177991
   158  H    0.112263
   159  H    0.101941
   160  C   -0.178049
   161  H    0.092106
   162  H    0.112621
   163  C   -0.193690
   164  H    0.112642
   165  H    0.092094
   166  H    0.101941
   167  H    0.112248
   168  H    0.051791
 Sum of Mulliken charges =   0.00000
 Mulliken charges with hydrogens summed into heavy atoms:
               1
     1  C    0.360581
     2  C   -0.074389
     3  C   -0.231713
     4  C    0.360122
     6  C   -0.231906
     7  C    0.360657
     9  C   -0.231795
    10  C   -0.074546
    12  C   -0.074292
    16  C    0.360985
    17  C   -0.075303
    18  C   -0.231196
    19  C    0.360346
    21  C   -0.231554
    22  C    0.360805
    24  C   -0.232571
    25  C   -0.074357
    27  C   -0.074188
    31  C    0.360431
    32  C   -0.074442
    33  C   -0.231145
    34  C    0.360002
    36  C   -0.231704
    37  C    0.361003
    39  C   -0.232645
    40  C   -0.074488
    42  C   -0.074217
    46  C    0.360544
    47  C   -0.074452
    48  C   -0.231225
    49  C    0.360158
    51  C   -0.231684
    52  C    0.360474
    54  C   -0.232307
    55  C   -0.074343
    57  C   -0.074400
    61  C    0.096074
    62  C    0.096250
    63  N   -0.197728
    64  N   -0.197133
    65  C    0.020621
    67  C    0.026716
    70  C    0.026637
    73  C    0.020444
    79  C    0.096450
    80  C    0.095969
    81  N   -0.197542
    82  N   -0.197485
    83  C    0.020509
    85  C    0.026753
    88  C    0.026699
    91  C    0.020397
    97  C    0.096007
    98  C    0.096083
    99  N   -0.197250
   100  N   -0.197559
   101  C    0.020615
   103  C    0.026697
   106  C    0.026770
   109  C    0.020338
   115  C    0.096179
   116  C    0.095523
   117  N   -0.197774
   118  N   -0.197434
   119  C    0.020595
   121  C    0.026717
   124  C    0.026744
   127  C    0.020363
   133  C    0.096243
   134  C    0.095389
   135  N   -0.197514
   136  N   -0.197403
   137  C    0.020621
   139  C    0.026764
   142  C    0.026649
   145  C    0.020465
   151  C    0.096007
   152  C    0.095817
   153  N   -0.197701
   154  N   -0.197456
   155  C    0.020705
   157  C    0.026735
   160  C    0.026687
   163  C    0.020499
 Electronic spatial extent (au):  <R**2>=          94405.8765
 Charge=              0.0000 electrons
 Dipole moment (field-independent basis, Debye):
    X=             -0.0235    Y=             -0.0086    Z=              0.0079  Tot=              0.0262
 Quadrupole moment (field-independent basis, Debye-Ang):
   XX=           -469.1824   YY=           -469.3189   ZZ=           -469.3128
   XY=              0.0021   XZ=              0.0269   YZ=              0.0543
 Traceless Quadrupole moment (field-independent basis, Debye-Ang):
   XX=              0.0889   YY=             -0.0475   ZZ=             -0.0414
   XY=              0.0021   XZ=              0.0269   YZ=              0.0543
 Octapole moment (field-independent basis, Debye-Ang**2):
  XXX=           -134.3323  YYY=            -96.3905  ZZZ=            -29.5932  XYY=             68.5905
  XXY=              1.6303  XXZ=             20.2506  XZZ=             64.9330  YZZ=             94.6993
  YYZ=              9.4510  XYZ=              6.9998
 Hexadecapole moment (field-independent basis, Debye-Ang**3):
 XXXX=         -42698.6352 YYYY=         -42195.9943 ZZZZ=         -42194.7155 XXXY=             -3.4765
 XXXZ=            155.5406 YYYX=            727.0690 YYYZ=            -51.6650 ZZZX=            -11.9088
 ZZZY=            165.1292 XXYY=         -13550.8346 XXZZ=         -13548.7586 YYZZ=         -14035.8297
 XXYZ=           -110.1114 YYXZ=           -143.3211 ZZXY=           -723.6495
 N-N= 1.421157463983D+04 E-N=-3.643934583774D+04  KE= 3.432383844135D+03
 Leave Link  601 at Mon Oct 18 01:23:01 2021, MaxMem=  7864320000 cpu:              59.2 elap:               2.4
 (Enter /apps/gaussian/g16-c01-avx/g16/l9999.exe)
 Unable to Open any file for archive entry.
 1\1\GINC-CX3-12-27\SP\RPBE1PBE\def2TZVP\C72H84N12\ATARZIA\18-Oct-2021\
 0\\#P PBE1PBE/Def2TZVP SP SCF=(YQC,MaxCycle=900) int=(Grid=Superfinegr
 id) EmpiricalDispersion=GD3 SCRF=(PCM,Solvent=Chloroform)\\_4_alde1_6_
 ami3_1_opt_cfm\\0,1\C,0,-1.3617,-0.3363,4.0772\C,0,-2.7717,-0.698,4.11
 04\C,0,-0.985,1.0014,4.069\C,0,0.3628,1.3606,4.0764\H,0,-1.7234,1.7885
 ,4.0711\C,0,1.333,0.3656,4.0819\C,0,0.9701,-0.9813,4.0902\H,0,2.3838,0
 .6116,4.0942\C,0,-0.3767,-1.324,4.0827\C,0,1.9883,-2.0211,4.137\H,0,-0
 .6892,-2.357,4.0953\C,0,0.754,2.7628,4.1088\H,0,1.6278,-3.0508,3.9877\
 H,0,-3.4816,0.1284,3.9507\H,0,1.8262,2.964,3.9596\C,0,-3.5094,-2.4793,
 -0.0849\C,0,-3.7494,-3.0691,1.2245\C,0,-2.7304,-3.1513,-1.0193\C,0,-2.
 525,-2.616,-2.2909\H,0,-2.2809,-4.1048,-0.7878\C,0,-3.0996,-1.3931,-2.
 6161\C,0,-3.8839,-0.707,-1.6887\H,0,-2.9645,-0.9559,-3.5935\C,0,-4.079
 9,-1.2528,-0.4257\C,0,-4.5174,0.5543,-2.0464\H,0,-4.6866,-0.7492,0.311
 3\C,0,-1.7421,-3.3422,-3.2807\H,0,-4.9882,1.1055,-1.2176\H,0,-3.1434,-
 3.9557,1.4677\H,0,-1.4986,-2.7868,-4.1997\C,0,3.9091,-1.8151,-0.0566\C
 ,0,4.5371,-1.7139,1.2531\C,0,4.1037,-0.8146,-1.0014\C,0,3.5401,-0.918,
 -2.2731\H,0,4.7043,0.0538,-0.778\C,0,2.7691,-2.0305,-2.5881\C,0,2.5649
 ,-3.0427,-1.6502\H,0,2.325,-2.1426,-3.5653\C,0,3.1329,-2.926,-0.3871\C
 ,0,1.7901,-4.2259,-1.9967\H,0,2.9984,-3.6953,0.3579\C,0,3.7799,0.1125,
 -3.2735\H,0,1.5466,-4.9002,-1.1611\H,0,5.0016,-0.7433,1.4868\H,0,3.179
 2,0.036,-4.1931\C,0,-0.376,4.2769,-0.1037\C,0,-0.7809,4.7842,1.1997\C,
 0,-1.3373,3.9348,-1.0472\C,0,-0.9626,3.4847,-2.3132\H,0,-2.3902,4.0229
 ,-0.8274\C,0,0.3871,3.37,-2.6235\C,0,1.3634,3.7095,-1.6867\H,0,0.7087,
 3.0308,-3.5963\C,0,0.9751,4.1566,-0.4294\C,0,2.7763,3.6265,-2.0289\H,0
 ,1.7065,4.433,0.3145\C,0,-1.9723,3.1661,-3.3128\H,0,3.48,3.7615,-1.192
 8\H,0,-1.8542,4.703,1.4319\H,0,-1.6033,2.674,-4.226\C,0,-4.5443,-2.191
 3,4.3828\C,0,-4.8392,-3.2296,3.2814\N,0,-3.1507,-1.8786,4.3373\N,0,-4.
 6179,-2.6088,2.0135\C,0,-6.3021,-3.6737,3.3641\H,0,-4.1721,-4.0966,3.4
 387\C,0,-6.6207,-4.2546,4.7363\H,0,-6.4896,-4.4137,2.5831\H,0,-6.9361,
 -2.8081,3.1644\C,0,-6.3269,-3.23,5.8268\H,0,-6.0128,-5.1468,4.9036\H,0
 ,-7.6707,-4.5516,4.7737\C,0,-4.8717,-2.7837,5.7562\H,0,-6.5311,-3.6594
 ,6.8097\H,0,-6.9798,-2.3639,5.6961\H,0,-4.208,-3.632,5.9318\H,0,-4.665
 1,-2.0324,6.5214\H,0,-5.1736,-1.3025,4.195\C,0,4.1671,-2.8067,4.4228\C
 ,0,5.2162,-2.5551,3.3208\N,0,3.1997,-1.7567,4.3637\N,0,4.5706,-2.6876,
 2.0529\C,0,6.3318,-3.5993,3.4174\H,0,5.6333,-1.5424,3.4681\C,0,6.9912,
 -3.5699,4.7907\H,0,7.0681,-3.4003,2.6357\H,0,5.8994,-4.5832,3.2274\C,0
 ,5.9546,-3.8157,5.8818\H,0,7.4598,-2.5957,4.9484\H,0,7.7732,-4.3305,4.
 8381\C,0,4.8409,-2.7793,5.7974\H,0,6.4265,-3.7672,6.8652\H,0,5.5311,-4
 .8154,5.7611\H,0,5.2435,-1.7785,5.963\H,0,4.0852,-2.9674,6.5631\H,0,3.
 7123,-3.7981,4.2448\C,0,0.3435,5.0454,4.369\C,0,-0.397,5.8157,3.2571\N
 ,0,-0.0814,3.6818,4.3239\N,0,0.0435,5.3093,1.9956\C,0,-0.0517,7.3051,3
 .3382\H,0,-1.4829,5.6715,3.4036\C,0,-0.41,7.8761,4.7047\H,0,-0.5909,7.
 8344,2.5497\H,0,1.0169,7.4212,3.1492\C,0,0.3194,7.1136,5.8056\H,0,-1.4
 883,7.7958,4.861\H,0,-0.1431,8.9342,4.7411\C,0,-0.0202,5.6299,5.7366\H
 ,0,0.0392,7.5085,6.7842\H,0,1.3971,7.2461,5.6856\H,0,-1.0885,5.4793,5.
 9018\H,0,0.5194,5.0782,6.5095\H,0,1.4298,5.1457,4.1921\C,0,-0.6426,-5.
 2277,-4.1067\C,0,0.7047,-5.6543,-3.4895\N,0,-1.3931,-4.5404,-3.1037\N,
 0,1.4478,-4.4724,-3.1845\C,0,1.4977,-6.4886,-4.4991\H,0,0.4943,-6.2547
 ,-2.5859\C,0,0.706,-7.7144,-4.9377\H,0,2.4433,-6.7881,-4.042\H,0,1.726
 8,-5.8592,-5.3608\C,0,-0.6279,-7.2943,-5.5457\H,0,0.5242,-8.3581,-4.07
 4\H,0,1.2869,-8.2846,-5.6655\C,0,-1.4276,-6.4663,-4.5474\H,0,-1.2031,-
 8.1764,-5.834\H,0,-0.4459,-6.7026,-6.4459\H,0,-1.6568,-7.0613,-3.6617\
 H,0,-2.3732,-6.1444,-4.9889\H,0,-0.4325,-4.5835,-4.9797\C,0,-5.1958,2.
 203,-3.5526\C,0,-4.1459,3.154,-4.1623\N,0,-4.5473,0.9697,-3.2361\N,0,-
 3.1862,3.464,-3.1502\C,0,-4.821,4.4515,-4.6154\H,0,-3.6838,2.6464,-5.0
 284\C,0,-5.9272,4.1692,-5.6245\H,0,-4.0645,5.1076,-5.0513\H,0,-5.231,4
 .951,-3.7359\C,0,-6.9647,3.2267,-5.0239\H,0,-5.4963,3.7122,-6.5183\H,0
 ,-6.4002,5.1074,-5.9216\C,0,-6.3041,1.9298,-4.5731\H,0,-7.7412,3.0061,
 -5.7591\H,0,-7.4404,3.7095,-4.1671\H,0,-5.8645,1.4132,-5.4281\H,0,-7.0
 412,1.2626,-4.1212\H,0,-5.6201,2.6889,-2.6553\C,0,4.8653,1.9985,-4.116
 9\C,0,4.5597,3.385,-3.5148\N,0,4.6428,1.0155,-3.1041\N,0,3.1639,3.4408
 ,-3.2138\C,0,4.8883,4.4784,-4.535\H,0,5.1827,3.5123,-2.6109\C,0,6.3467
 ,4.4009,-4.9693\H,0,4.6739,5.4517,-4.0884\H,0,4.2308,4.3532,-5.397\C,0
 ,6.6512,3.0295,-5.5624\H,0,6.9931,4.5742,-4.1057\H,0,6.552,5.1815,-5.7
 046\C,0,6.3314,1.9333,-4.5535\H,0,7.7034,2.9693,-5.8476\H,0,6.0499,2.8
 82,-6.4625\H,0,6.9592,2.0413,-3.6673\H,0,6.5264,0.9489,-4.9844\H,0,4.2
 043,1.8494,-4.9899\\Version=ES64L-G16RevC.01\State=1-A\HF=-3448.518656
 5\RMSD=3.204e-09\Dipole=-0.0018998,0.0036377,-0.0094642\Quadrupole=-0.
 000868,-0.0616094,0.0624774,0.0268442,0.010877,0.025088\PG=C01 [X(C72H
 84N12)]\\@
 The archive entry for this job was punched.


 ONLY THE DAY DAWNS TO WHICH YOU ARE AWAKE.

                                 -- THOREAU
 Job cpu time:       2 days 17 hours 55 minutes 40.4 seconds.
 Elapsed time:       0 days  2 hours  5 minutes 52.9 seconds.
 File lengths (MBytes):  RWF=   7296 Int=      0 D2E=      0 Chk=    568 Scr=     16
 Normal termination of Gaussian 16 at Mon Oct 18 01:23:02 2021.
