 Entering Gaussian System, Link 0=g16
 Initial command:
 /apps/gaussian/g16-c01-avx/g16/l1.exe "/rds/general/ephemeral/user/atarzia/ephemeral/xtb_spe_DFT/Gau-2337540.inp" -scrdir="/rds/general/ephemeral/user/atarzia/ephemeral/xtb_spe_DFT/"
 Entering Link 1 = /apps/gaussian/g16-c01-avx/g16/l1.exe PID=   2337541.
  
 Copyright (c) 1988-2019, Gaussian, Inc.  All Rights Reserved.
  
 This is part of the Gaussian(R) 16 program.  It is based on
 the Gaussian(R) 09 system (copyright 2009, Gaussian, Inc.),
 the Gaussian(R) 03 system (copyright 2003, Gaussian, Inc.),
 the Gaussian(R) 98 system (copyright 1998, Gaussian, Inc.),
 the Gaussian(R) 94 system (copyright 1995, Gaussian, Inc.),
 the Gaussian 92(TM) system (copyright 1992, Gaussian, Inc.),
 the Gaussian 90(TM) system (copyright 1990, Gaussian, Inc.),
 the Gaussian 88(TM) system (copyright 1988, Gaussian, Inc.),
 the Gaussian 86(TM) system (copyright 1986, Carnegie Mellon
 University), and the Gaussian 82(TM) system (copyright 1983,
 Carnegie Mellon University). Gaussian is a federally registered
 trademark of Gaussian, Inc.
  
 This software contains proprietary and confidential information,
 including trade secrets, belonging to Gaussian, Inc.
  
 This software is provided under written license and may be
 used, copied, transmitted, or stored only in accord with that
 written license.
  
 The following legend is applicable only to US Government
 contracts under FAR:
  
                    RESTRICTED RIGHTS LEGEND
  
 Use, reproduction and disclosure by the US Government is
 subject to restrictions as set forth in subparagraphs (a)
 and (c) of the Commercial Computer Software - Restricted
 Rights clause in FAR 52.227-19.
  
 Gaussian, Inc.
 340 Quinnipiac St., Bldg. 40, Wallingford CT 06492
  
  
 ---------------------------------------------------------------
 Warning -- This program may not be used in any manner that
 competes with the business of Gaussian, Inc. or will provide
 assistance to any competitor of Gaussian, Inc.  The licensee
 of this program is prohibited from giving any competitor of
 Gaussian, Inc. access to this program.  By using this program,
 the user acknowledges that Gaussian, Inc. is engaged in the
 business of creating and licensing software in the field of
 computational chemistry and represents and warrants to the
 licensee that it is not a competitor of Gaussian, Inc. and that
 it will not use this program in any manner prohibited above.
 ---------------------------------------------------------------
  

 Cite this work as:
 Gaussian 16, Revision C.01,
 M. J. Frisch, G. W. Trucks, H. B. Schlegel, G. E. Scuseria, 
 M. A. Robb, J. R. Cheeseman, G. Scalmani, V. Barone, 
 G. A. Petersson, H. Nakatsuji, X. Li, M. Caricato, A. V. Marenich, 
 J. Bloino, B. G. Janesko, R. Gomperts, B. Mennucci, H. P. Hratchian, 
 J. V. Ortiz, A. F. Izmaylov, J. L. Sonnenberg, D. Williams-Young, 
 F. Ding, F. Lipparini, F. Egidi, J. Goings, B. Peng, A. Petrone, 
 T. Henderson, D. Ranasinghe, V. G. Zakrzewski, J. Gao, N. Rega, 
 G. Zheng, W. Liang, M. Hada, M. Ehara, K. Toyota, R. Fukuda, 
 J. Hasegawa, M. Ishida, T. Nakajima, Y. Honda, O. Kitao, H. Nakai, 
 T. Vreven, K. Throssell, J. A. Montgomery, Jr., J. E. Peralta, 
 F. Ogliaro, M. J. Bearpark, J. J. Heyd, E. N. Brothers, K. N. Kudin, 
 V. N. Staroverov, T. A. Keith, R. Kobayashi, J. Normand, 
 K. Raghavachari, A. P. Rendell, J. C. Burant, S. S. Iyengar, 
 J. Tomasi, M. Cossi, J. M. Millam, M. Klene, C. Adamo, R. Cammi, 
 J. W. Ochterski, R. L. Martin, K. Morokuma, O. Farkas, 
 J. B. Foresman, and D. J. Fox, Gaussian, Inc., Wallingford CT, 2019.
 
 ******************************************
 Gaussian 16:  ES64L-G16RevC.01  3-Jul-2019
                30-Oct-2021 
 ******************************************
 %chk=_4_alde1_6_ami2_1_opt_cfm_mp2.chk
 %mem=60000mb
 %nprocshared=32
 Will use up to   32 processors via shared memory.
 ----------------------------------------------------------------------
 #P MP2/aug-cc-pVDZ SP SCF=(YQC,MaxCycle=900) int=(Grid=Superfinegrid) 
 SCRF=(PCM,Solvent=Chloroform)
 ----------------------------------------------------------------------
 1/38=1,172=1/1;
 2/12=2,17=6,18=5,40=1/2;
 3/5=16,7=10,11=9,25=1,30=1,70=2201,72=7,75=-7/1,2,3;
 4//1;
 5/5=2,7=900,8=4,13=1,38=1,53=7/8,2,8;
 8/10=1/1;
 9/16=-3/6;
 6/7=2,8=2,9=2,10=2/1;
 99/5=1,9=1/99;
 Leave Link    1 at Sat Oct 30 00:55:26 2021, MaxMem=  7864320000 cpu:               6.1 elap:               0.2
 (Enter /apps/gaussian/g16-c01-avx/g16/l101.exe)
 -----------------------------
 _4_alde1_6_ami2_1_opt_cfm_mp2
 -----------------------------
 Symbolic Z-matrix:
 Charge =  0 Multiplicity = 1
 C                    -0.9449   -1.0282    4.0437 
 C                    -1.9641   -2.0721    4.0799 
 C                    -1.3055    0.3187    4.0697 
 C                    -0.3348    1.3129    4.0745 
 H                    -2.356     0.5648    4.101 
 C                     1.0119    0.9522    4.0421 
 C                     1.3874   -0.3854    4.0159 
 H                     1.7511    1.7388    4.053 
 C                     0.4011   -1.3713    4.0115 
 C                     2.8013   -0.7465    4.023 
 H                     0.713    -2.4046    3.9975 
 C                    -0.7286    2.7164    4.1421 
 H                     3.4894    0.0908    3.8568 
 H                    -1.5912   -3.0846    3.8858 
 H                    -1.7993    2.8998    3.9937 
 C                    -3.948    -1.6446   -0.083 
 C                    -4.544    -1.5206    1.2397 
 C                    -3.2155   -2.7806   -0.4276 
 C                    -2.6765   -2.9176   -1.7008 
 H                    -3.0908   -3.5541    0.3148 
 C                    -2.8669   -1.9004   -2.6356 
 C                    -3.5955   -0.7634   -2.3084 
 H                    -2.4461   -2.0287   -3.6213 
 C                    -4.1285   -0.6395   -1.0258 
 C                    -3.8194    0.2728   -3.3115 
 H                    -4.6962    0.2482   -0.7921 
 C                    -1.943    -4.128    -2.0568 
 H                    -3.2164    0.1682   -4.2211 
 H                    -4.9458   -0.5269    1.4925 
 H                    -1.7048   -4.7853   -1.2123 
 C                     3.3532   -2.499    -0.2104 
 C                     3.5679   -3.1322    1.0832 
 C                     3.9764   -1.2905   -0.5214 
 C                     3.8004   -0.7016   -1.7676 
 H                     4.6084   -0.8337    0.2248 
 C                     2.9824   -1.3261   -2.7084 
 C                     2.356    -2.5316   -2.4146 
 H                     2.863    -0.8566   -3.6728 
 C                     2.5421   -3.11     -1.1592 
 C                     1.5375   -3.1931   -3.4212 
 H                     2.053    -4.0489   -0.9495 
 C                     4.4892    0.5443   -2.0891 
 H                     1.2872   -2.5888   -4.3071 
 H                     2.9075   -3.9822    1.3156 
 H                     4.961     1.0415   -1.2335 
 C                     0.4643    4.214    -0.044 
 C                     0.9196    4.677     1.2596 
 C                    -0.8977    4.1375   -0.334 
 C                    -1.3338    3.73     -1.5892 
 H                    -1.6019    4.4164    0.4348 
 C                    -0.3937    3.3854   -2.56 
 C                     0.9671    3.4564   -2.2863 
 H                    -0.7493    3.0771   -3.5312 
 C                     1.3889    3.867    -1.022 
 C                     1.9373    3.1279   -3.3214 
 H                     2.4491    3.9224   -0.8282 
 C                    -2.7582    3.6896   -1.8895 
 H                     1.5305    2.639    -4.2204 
 H                     1.9904    4.5319    1.4718 
 H                    -3.4326    3.7937   -1.0252 
 C                    -4.2269   -2.7546    4.4189 
 C                    -5.2273   -2.3431    3.3095 
 N                    -3.1621   -1.7918    4.3482 
 C                    -3.838    -4.2241    4.2331 
 C                    -4.8934   -2.5537    5.7858 
 N                    -4.6262   -2.5017    2.0271 
 H                    -5.5639   -1.3101    3.4934 
 H                    -6.0875   -3.0176    3.3581 
 H                    -4.2124   -2.8631    6.5753 
 H                    -5.8053   -3.1412    5.855 
 H                    -5.1322   -1.5036    5.9307 
 H                    -3.4513   -4.3859    3.2306 
 H                    -4.7177   -4.8479    4.3669 
 H                    -3.0907   -4.5186    4.9676 
 C                     4.5286   -2.3753    4.276 
 C                     4.6607   -3.4016    3.1225 
 N                     3.1612   -1.9339    4.2382 
 C                     5.6038   -1.2958    4.1216 
 C                     4.7039   -3.1076    5.6124 
 N                     4.4776   -2.7506    1.8681 
 H                     3.9388   -4.2185    3.2836 
 H                     5.6766   -3.8074    3.1405 
 H                     4.6404   -2.3957    6.4321 
 H                     5.6694   -3.6054    5.6502 
 H                     3.9158   -3.8452    5.7368 
 H                     6.5857   -1.7498    4.2254 
 H                     5.4934   -0.5323    4.8894 
 H                     5.5386   -0.8392    3.1377 
 C                    -0.1797    5.0152    4.4796 
 C                     0.6257    5.6859    3.3382 
 N                     0.1218    3.6129    4.3847 
 C                    -1.6545    5.4106    4.3609 
 C                     0.3857    5.4837    5.8263 
 N                     0.1404    5.2406    2.0745 
 H                     1.6971    5.4704    3.4787 
 H                     0.4633    6.7664    3.3942 
 H                     0.3357    6.5667    5.9044 
 H                     1.4198    5.165     5.9248 
 H                    -0.1881    5.0434    6.6384 
 H                    -2.2497    4.9016    5.1168 
 H                    -2.0304    5.1654    3.3712 
 H                    -1.7518    6.4826    4.5097 
 C                    -0.9389   -5.5418   -3.6973 
 C                     0.3808   -5.0091   -4.3105 
 N                    -1.6517   -4.3739   -3.2569 
 C                    -0.6156   -6.592    -2.6307 
 C                    -1.7876   -6.1653   -4.8125 
 N                     1.1736   -4.3937   -3.2986 
 H                     0.1423   -4.3206   -5.1372 
 H                     0.9444   -5.8617   -4.7011 
 H                    -2.0512   -5.4073   -5.545 
 H                    -2.705    -6.5707   -4.3923 
 H                    -1.2408   -6.9649   -5.3055 
 H                     0.069    -6.1805   -1.8939 
 H                    -0.1393   -7.4475   -3.1021 
 H                    -1.5254   -6.9309   -2.1386 
 C                    -4.9619    2.2325   -4.0553 
 C                    -4.5885    3.546    -3.3224 
 N                    -4.6707    1.1806   -3.12 
 C                    -4.2328    2.1768   -5.4009 
 C                    -6.4795    2.2017   -4.2751 
 N                    -3.1864    3.5782   -3.0698 
 H                    -5.1855    3.6254   -2.3996 
 H                    -4.8272    4.3857   -3.9817 
 H                    -6.7989    3.0681   -4.8485 
 H                    -6.9925    2.1974   -3.3173 
 H                    -6.7538    1.2988   -4.8156 
 H                    -4.5834    2.9883   -6.0329 
 H                    -4.4332    1.2341   -5.9067 
 H                    -3.1626    2.2938   -5.253 
 C                     5.1983    2.1754   -3.681 
 C                     4.075     3.0826   -4.2442 
 N                     4.539     0.9644   -3.2751 
 C                     5.9684    2.9347   -2.5968 
 C                     6.1422    1.7862   -4.8255 
 N                     3.1583    3.4191   -3.2062 
 H                     3.5869    2.5695   -5.0884 
 H                     4.5311    4.0113   -4.5995 
 H                     6.9545    1.1749   -4.4395 
 H                     6.5593    2.674    -5.2937 
 H                     5.6023    1.2085   -5.5707 
 H                     6.4705    3.7883   -3.0443 
 H                     6.7194    2.2931   -2.1397 
 H                     5.284     3.299    -1.8354 
 
 ITRead=  0  0  0  0  0  0  0  0  0  0  0  0  0  0  0  0  0  0  0  0
 ITRead=  0  0  0  0  0  0  0  0  0  0  0  0  0  0  0  0  0  0  0  0
 ITRead=  0  0  0  0  0  0  0  0  0  0  0  0  0  0  0  0  0  0  0  0
 ITRead=  0  0  0  0  0  0  0  0  0  0  0  0  0  0  0  0  0  0  0  0
 ITRead=  0  0  0  0  0  0  0  0  0  0  0  0  0  0  0  0  0  0  0  0
 ITRead=  0  0  0  0  0  0  0  0  0  0  0  0  0  0  0  0  0  0  0  0
 ITRead=  0  0  0  0  0  0  0  0  0  0  0  0  0  0  0  0  0  0  0  0
 ITRead=  0  0  0  0
 MicOpt= -1 -1 -1 -1 -1 -1 -1 -1 -1 -1 -1 -1 -1 -1 -1 -1 -1 -1 -1 -1
 MicOpt= -1 -1 -1 -1 -1 -1 -1 -1 -1 -1 -1 -1 -1 -1 -1 -1 -1 -1 -1 -1
 MicOpt= -1 -1 -1 -1 -1 -1 -1 -1 -1 -1 -1 -1 -1 -1 -1 -1 -1 -1 -1 -1
 MicOpt= -1 -1 -1 -1 -1 -1 -1 -1 -1 -1 -1 -1 -1 -1 -1 -1 -1 -1 -1 -1
 MicOpt= -1 -1 -1 -1 -1 -1 -1 -1 -1 -1 -1 -1 -1 -1 -1 -1 -1 -1 -1 -1
 MicOpt= -1 -1 -1 -1 -1 -1 -1 -1 -1 -1 -1 -1 -1 -1 -1 -1 -1 -1 -1 -1
 MicOpt= -1 -1 -1 -1 -1 -1 -1 -1 -1 -1 -1 -1 -1 -1 -1 -1 -1 -1 -1 -1
 MicOpt= -1 -1 -1 -1
 NAtoms=    144 NQM=      144 NQMF=       0 NMMI=      0 NMMIF=      0
                NMic=       0 NMicF=      0.
                    Isotopes and Nuclear Properties:
 (Nuclear quadrupole moments (NQMom) in fm**2, nuclear magnetic moments (NMagM)
  in nuclear magnetons)

  Atom         1           2           3           4           5           6           7           8           9          10
 IAtWgt=          12          12          12          12           1          12          12           1          12          12
 AtmWgt=  12.0000000  12.0000000  12.0000000  12.0000000   1.0078250  12.0000000  12.0000000   1.0078250  12.0000000  12.0000000
 NucSpn=           0           0           0           0           1           0           0           1           0           0
 AtZEff=  -0.0000000  -0.0000000  -0.0000000  -0.0000000  -0.0000000  -0.0000000  -0.0000000  -0.0000000  -0.0000000  -0.0000000
 NQMom=    0.0000000   0.0000000   0.0000000   0.0000000   0.0000000   0.0000000   0.0000000   0.0000000   0.0000000   0.0000000
 NMagM=    0.0000000   0.0000000   0.0000000   0.0000000   2.7928460   0.0000000   0.0000000   2.7928460   0.0000000   0.0000000
 AtZNuc=   6.0000000   6.0000000   6.0000000   6.0000000   1.0000000   6.0000000   6.0000000   1.0000000   6.0000000   6.0000000

  Atom        11          12          13          14          15          16          17          18          19          20
 IAtWgt=           1          12           1           1           1          12          12          12          12           1
 AtmWgt=   1.0078250  12.0000000   1.0078250   1.0078250   1.0078250  12.0000000  12.0000000  12.0000000  12.0000000   1.0078250
 NucSpn=           1           0           1           1           1           0           0           0           0           1
 AtZEff=  -0.0000000  -0.0000000  -0.0000000  -0.0000000  -0.0000000  -0.0000000  -0.0000000  -0.0000000  -0.0000000  -0.0000000
 NQMom=    0.0000000   0.0000000   0.0000000   0.0000000   0.0000000   0.0000000   0.0000000   0.0000000   0.0000000   0.0000000
 NMagM=    2.7928460   0.0000000   2.7928460   2.7928460   2.7928460   0.0000000   0.0000000   0.0000000   0.0000000   2.7928460
 AtZNuc=   1.0000000   6.0000000   1.0000000   1.0000000   1.0000000   6.0000000   6.0000000   6.0000000   6.0000000   1.0000000

  Atom        21          22          23          24          25          26          27          28          29          30
 IAtWgt=          12          12           1          12          12           1          12           1           1           1
 AtmWgt=  12.0000000  12.0000000   1.0078250  12.0000000  12.0000000   1.0078250  12.0000000   1.0078250   1.0078250   1.0078250
 NucSpn=           0           0           1           0           0           1           0           1           1           1
 AtZEff=  -0.0000000  -0.0000000  -0.0000000  -0.0000000  -0.0000000  -0.0000000  -0.0000000  -0.0000000  -0.0000000  -0.0000000
 NQMom=    0.0000000   0.0000000   0.0000000   0.0000000   0.0000000   0.0000000   0.0000000   0.0000000   0.0000000   0.0000000
 NMagM=    0.0000000   0.0000000   2.7928460   0.0000000   0.0000000   2.7928460   0.0000000   2.7928460   2.7928460   2.7928460
 AtZNuc=   6.0000000   6.0000000   1.0000000   6.0000000   6.0000000   1.0000000   6.0000000   1.0000000   1.0000000   1.0000000

  Atom        31          32          33          34          35          36          37          38          39          40
 IAtWgt=          12          12          12          12           1          12          12           1          12          12
 AtmWgt=  12.0000000  12.0000000  12.0000000  12.0000000   1.0078250  12.0000000  12.0000000   1.0078250  12.0000000  12.0000000
 NucSpn=           0           0           0           0           1           0           0           1           0           0
 AtZEff=  -0.0000000  -0.0000000  -0.0000000  -0.0000000  -0.0000000  -0.0000000  -0.0000000  -0.0000000  -0.0000000  -0.0000000
 NQMom=    0.0000000   0.0000000   0.0000000   0.0000000   0.0000000   0.0000000   0.0000000   0.0000000   0.0000000   0.0000000
 NMagM=    0.0000000   0.0000000   0.0000000   0.0000000   2.7928460   0.0000000   0.0000000   2.7928460   0.0000000   0.0000000
 AtZNuc=   6.0000000   6.0000000   6.0000000   6.0000000   1.0000000   6.0000000   6.0000000   1.0000000   6.0000000   6.0000000

  Atom        41          42          43          44          45          46          47          48          49          50
 IAtWgt=           1          12           1           1           1          12          12          12          12           1
 AtmWgt=   1.0078250  12.0000000   1.0078250   1.0078250   1.0078250  12.0000000  12.0000000  12.0000000  12.0000000   1.0078250
 NucSpn=           1           0           1           1           1           0           0           0           0           1
 AtZEff=  -0.0000000  -0.0000000  -0.0000000  -0.0000000  -0.0000000  -0.0000000  -0.0000000  -0.0000000  -0.0000000  -0.0000000
 NQMom=    0.0000000   0.0000000   0.0000000   0.0000000   0.0000000   0.0000000   0.0000000   0.0000000   0.0000000   0.0000000
 NMagM=    2.7928460   0.0000000   2.7928460   2.7928460   2.7928460   0.0000000   0.0000000   0.0000000   0.0000000   2.7928460
 AtZNuc=   1.0000000   6.0000000   1.0000000   1.0000000   1.0000000   6.0000000   6.0000000   6.0000000   6.0000000   1.0000000

  Atom        51          52          53          54          55          56          57          58          59          60
 IAtWgt=          12          12           1          12          12           1          12           1           1           1
 AtmWgt=  12.0000000  12.0000000   1.0078250  12.0000000  12.0000000   1.0078250  12.0000000   1.0078250   1.0078250   1.0078250
 NucSpn=           0           0           1           0           0           1           0           1           1           1
 AtZEff=  -0.0000000  -0.0000000  -0.0000000  -0.0000000  -0.0000000  -0.0000000  -0.0000000  -0.0000000  -0.0000000  -0.0000000
 NQMom=    0.0000000   0.0000000   0.0000000   0.0000000   0.0000000   0.0000000   0.0000000   0.0000000   0.0000000   0.0000000
 NMagM=    0.0000000   0.0000000   2.7928460   0.0000000   0.0000000   2.7928460   0.0000000   2.7928460   2.7928460   2.7928460
 AtZNuc=   6.0000000   6.0000000   1.0000000   6.0000000   6.0000000   1.0000000   6.0000000   1.0000000   1.0000000   1.0000000

  Atom        61          62          63          64          65          66          67          68          69          70
 IAtWgt=          12          12          14          12          12          14           1           1           1           1
 AtmWgt=  12.0000000  12.0000000  14.0030740  12.0000000  12.0000000  14.0030740   1.0078250   1.0078250   1.0078250   1.0078250
 NucSpn=           0           0           2           0           0           2           1           1           1           1
 AtZEff=  -0.0000000  -0.0000000  -0.0000000  -0.0000000  -0.0000000  -0.0000000  -0.0000000  -0.0000000  -0.0000000  -0.0000000
 NQMom=    0.0000000   0.0000000   2.0440000   0.0000000   0.0000000   2.0440000   0.0000000   0.0000000   0.0000000   0.0000000
 NMagM=    0.0000000   0.0000000   0.4037610   0.0000000   0.0000000   0.4037610   2.7928460   2.7928460   2.7928460   2.7928460
 AtZNuc=   6.0000000   6.0000000   7.0000000   6.0000000   6.0000000   7.0000000   1.0000000   1.0000000   1.0000000   1.0000000

  Atom        71          72          73          74          75          76          77          78          79          80
 IAtWgt=           1           1           1           1          12          12          14          12          12          14
 AtmWgt=   1.0078250   1.0078250   1.0078250   1.0078250  12.0000000  12.0000000  14.0030740  12.0000000  12.0000000  14.0030740
 NucSpn=           1           1           1           1           0           0           2           0           0           2
 AtZEff=  -0.0000000  -0.0000000  -0.0000000  -0.0000000  -0.0000000  -0.0000000  -0.0000000  -0.0000000  -0.0000000  -0.0000000
 NQMom=    0.0000000   0.0000000   0.0000000   0.0000000   0.0000000   0.0000000   2.0440000   0.0000000   0.0000000   2.0440000
 NMagM=    2.7928460   2.7928460   2.7928460   2.7928460   0.0000000   0.0000000   0.4037610   0.0000000   0.0000000   0.4037610
 AtZNuc=   1.0000000   1.0000000   1.0000000   1.0000000   6.0000000   6.0000000   7.0000000   6.0000000   6.0000000   7.0000000

  Atom        81          82          83          84          85          86          87          88          89          90
 IAtWgt=           1           1           1           1           1           1           1           1          12          12
 AtmWgt=   1.0078250   1.0078250   1.0078250   1.0078250   1.0078250   1.0078250   1.0078250   1.0078250  12.0000000  12.0000000
 NucSpn=           1           1           1           1           1           1           1           1           0           0
 AtZEff=  -0.0000000  -0.0000000  -0.0000000  -0.0000000  -0.0000000  -0.0000000  -0.0000000  -0.0000000  -0.0000000  -0.0000000
 NQMom=    0.0000000   0.0000000   0.0000000   0.0000000   0.0000000   0.0000000   0.0000000   0.0000000   0.0000000   0.0000000
 NMagM=    2.7928460   2.7928460   2.7928460   2.7928460   2.7928460   2.7928460   2.7928460   2.7928460   0.0000000   0.0000000
 AtZNuc=   1.0000000   1.0000000   1.0000000   1.0000000   1.0000000   1.0000000   1.0000000   1.0000000   6.0000000   6.0000000

  Atom        91          92          93          94          95          96          97          98          99         100
 IAtWgt=          14          12          12          14           1           1           1           1           1           1
 AtmWgt=  14.0030740  12.0000000  12.0000000  14.0030740   1.0078250   1.0078250   1.0078250   1.0078250   1.0078250   1.0078250
 NucSpn=           2           0           0           2           1           1           1           1           1           1
 AtZEff=  -0.0000000  -0.0000000  -0.0000000  -0.0000000  -0.0000000  -0.0000000  -0.0000000  -0.0000000  -0.0000000  -0.0000000
 NQMom=    2.0440000   0.0000000   0.0000000   2.0440000   0.0000000   0.0000000   0.0000000   0.0000000   0.0000000   0.0000000
 NMagM=    0.4037610   0.0000000   0.0000000   0.4037610   2.7928460   2.7928460   2.7928460   2.7928460   2.7928460   2.7928460
 AtZNuc=   7.0000000   6.0000000   6.0000000   7.0000000   1.0000000   1.0000000   1.0000000   1.0000000   1.0000000   1.0000000

  Atom       101         102         103         104         105         106         107         108         109         110
 IAtWgt=           1           1          12          12          14          12          12          14           1           1
 AtmWgt=   1.0078250   1.0078250  12.0000000  12.0000000  14.0030740  12.0000000  12.0000000  14.0030740   1.0078250   1.0078250
 NucSpn=           1           1           0           0           2           0           0           2           1           1
 AtZEff=  -0.0000000  -0.0000000  -0.0000000  -0.0000000  -0.0000000  -0.0000000  -0.0000000  -0.0000000  -0.0000000  -0.0000000
 NQMom=    0.0000000   0.0000000   0.0000000   0.0000000   2.0440000   0.0000000   0.0000000   2.0440000   0.0000000   0.0000000
 NMagM=    2.7928460   2.7928460   0.0000000   0.0000000   0.4037610   0.0000000   0.0000000   0.4037610   2.7928460   2.7928460
 AtZNuc=   1.0000000   1.0000000   6.0000000   6.0000000   7.0000000   6.0000000   6.0000000   7.0000000   1.0000000   1.0000000

  Atom       111         112         113         114         115         116         117         118         119         120
 IAtWgt=           1           1           1           1           1           1          12          12          14          12
 AtmWgt=   1.0078250   1.0078250   1.0078250   1.0078250   1.0078250   1.0078250  12.0000000  12.0000000  14.0030740  12.0000000
 NucSpn=           1           1           1           1           1           1           0           0           2           0
 AtZEff=  -0.0000000  -0.0000000  -0.0000000  -0.0000000  -0.0000000  -0.0000000  -0.0000000  -0.0000000  -0.0000000  -0.0000000
 NQMom=    0.0000000   0.0000000   0.0000000   0.0000000   0.0000000   0.0000000   0.0000000   0.0000000   2.0440000   0.0000000
 NMagM=    2.7928460   2.7928460   2.7928460   2.7928460   2.7928460   2.7928460   0.0000000   0.0000000   0.4037610   0.0000000
 AtZNuc=   1.0000000   1.0000000   1.0000000   1.0000000   1.0000000   1.0000000   6.0000000   6.0000000   7.0000000   6.0000000

  Atom       121         122         123         124         125         126         127         128         129         130
 IAtWgt=          12          14           1           1           1           1           1           1           1           1
 AtmWgt=  12.0000000  14.0030740   1.0078250   1.0078250   1.0078250   1.0078250   1.0078250   1.0078250   1.0078250   1.0078250
 NucSpn=           0           2           1           1           1           1           1           1           1           1
 AtZEff=  -0.0000000  -0.0000000  -0.0000000  -0.0000000  -0.0000000  -0.0000000  -0.0000000  -0.0000000  -0.0000000  -0.0000000
 NQMom=    0.0000000   2.0440000   0.0000000   0.0000000   0.0000000   0.0000000   0.0000000   0.0000000   0.0000000   0.0000000
 NMagM=    0.0000000   0.4037610   2.7928460   2.7928460   2.7928460   2.7928460   2.7928460   2.7928460   2.7928460   2.7928460
 AtZNuc=   6.0000000   7.0000000   1.0000000   1.0000000   1.0000000   1.0000000   1.0000000   1.0000000   1.0000000   1.0000000

  Atom       131         132         133         134         135         136         137         138         139         140
 IAtWgt=          12          12          14          12          12          14           1           1           1           1
 AtmWgt=  12.0000000  12.0000000  14.0030740  12.0000000  12.0000000  14.0030740   1.0078250   1.0078250   1.0078250   1.0078250
 NucSpn=           0           0           2           0           0           2           1           1           1           1
 AtZEff=  -0.0000000  -0.0000000  -0.0000000  -0.0000000  -0.0000000  -0.0000000  -0.0000000  -0.0000000  -0.0000000  -0.0000000
 NQMom=    0.0000000   0.0000000   2.0440000   0.0000000   0.0000000   2.0440000   0.0000000   0.0000000   0.0000000   0.0000000
 NMagM=    0.0000000   0.0000000   0.4037610   0.0000000   0.0000000   0.4037610   2.7928460   2.7928460   2.7928460   2.7928460
 AtZNuc=   6.0000000   6.0000000   7.0000000   6.0000000   6.0000000   7.0000000   1.0000000   1.0000000   1.0000000   1.0000000

  Atom       141         142         143         144
 IAtWgt=           1           1           1           1
 AtmWgt=   1.0078250   1.0078250   1.0078250   1.0078250
 NucSpn=           1           1           1           1
 AtZEff=  -0.0000000  -0.0000000  -0.0000000  -0.0000000
 NQMom=    0.0000000   0.0000000   0.0000000   0.0000000
 NMagM=    2.7928460   2.7928460   2.7928460   2.7928460
 AtZNuc=   1.0000000   1.0000000   1.0000000   1.0000000
 Leave Link  101 at Sat Oct 30 00:55:27 2021, MaxMem=  7864320000 cpu:               3.4 elap:               0.1
 (Enter /apps/gaussian/g16-c01-avx/g16/l202.exe)
 Stoichiometry    C60H72N12
 Framework group  C1[X(C60H72N12)]
 Deg. of freedom   426
 Full point group                 C1      NOp   1
 Largest Abelian subgroup         C1      NOp   1
 Largest concise Abelian subgroup C1      NOp   1
                         Standard orientation:                         
 ---------------------------------------------------------------------
 Center     Atomic      Atomic             Coordinates (Angstroms)
 Number     Number       Type             X           Y           Z
 ---------------------------------------------------------------------
      1          6           0        2.904012   -2.914415   -0.809084
      2          6           0        2.276315   -4.089524   -1.404837
      3          6           0        3.073170   -2.822056    0.572112
      4          6           0        3.705551   -1.721401    1.137238
      5          1           0        2.713348   -3.634207    1.185329
      6          6           0        4.163626   -0.697449    0.308719
      7          6           0        4.002615   -0.774570   -1.069319
      8          1           0        4.658093    0.146139    0.766035
      9          6           0        3.365861   -1.885863   -1.621024
     10          6           0        4.523618    0.286356   -1.925208
     11          1           0        3.256149   -1.930284   -2.693953
     12          6           0        3.909870   -1.659234    2.580793
     13          1           0        4.851982    1.186302   -1.391870
     14          1           0        2.038390   -3.992172   -2.470576
     15          1           0        3.369568   -2.422161    3.153570
     16          6           0       -2.126348   -3.642909   -0.039023
     17          6           0       -1.185749   -4.723915    0.219488
     18          6           0       -2.372779   -3.213374   -1.343083
     19          6           0       -3.296671   -2.206882   -1.595521
     20          1           0       -1.838208   -3.691973   -2.149425
     21          6           0       -3.974257   -1.618974   -0.527794
     22          6           0       -3.741274   -2.036767    0.776757
     23          1           0       -4.692967   -0.843509   -0.745157
     24          6           0       -2.809485   -3.046645    1.014290
     25          6           0       -4.488841   -1.438728    1.878367
     26          1           0       -2.646249   -3.361618    2.033631
     27          6           0       -3.569170   -1.793437   -2.968341
     28          1           0       -5.058724   -0.540966    1.611574
     29          1           0       -0.912488   -4.878557    1.275047
     30          1           0       -2.871325   -2.191252   -3.714477
     31          6           0        0.643165    2.215742   -3.511739
     32          6           0        1.731615    1.593819   -4.252636
     33          6           0        0.898937    3.241418   -2.601716
     34          6           0       -0.141330    3.859798   -1.918895
     35          1           0        1.922347    3.550423   -2.453216
     36          6           0       -1.451285    3.438086   -2.143403
     37          6           0       -1.722873    2.418769   -3.048477
     38          1           0       -2.246207    3.934692   -1.608394
     39          6           0       -0.667941    1.807571   -3.725799
     40          6           0       -3.099120    2.016592   -3.303362
     41          1           0       -0.896812    1.021680   -4.429163
     42          6           0        0.141065    4.956035   -0.997704
     43          1           0       -3.850204    2.408017   -2.599583
     44          1           0        1.470340    0.681810   -4.811756
     45          1           0        1.202297    5.092695   -0.759030
     46          6           0        1.059542    1.753427    3.771852
     47          6           0        2.500458    1.654830    3.959146
     48          6           0        0.214648    0.737840    4.218768
     49          6           0       -1.163330    0.846161    4.073135
     50          1           0        0.656638   -0.125191    4.692644
     51          6           0       -1.698378    1.980411    3.463061
     52          6           0       -0.869548    3.001043    3.012418
     53          1           0       -2.770671    2.051252    3.363563
     54          6           0        0.511109    2.877500    3.165668
     55          6           0       -1.444953    4.195409    2.409897
     56          1           0        1.139764    3.681871    2.815765
     57          6           0       -2.035544   -0.205494    4.577110
     58          1           0       -2.515200    4.135611    2.157495
     59          1           0        3.105411    2.399223    3.418214
     60          1           0       -1.535659   -1.141248    4.872317
     61          6           0        1.471979   -6.330429   -1.224886
     62          6           0        0.166129   -6.513388   -0.411140
     63          7           0        2.070558   -5.125537   -0.719199
     64          6           0        1.146998   -6.360683   -2.721103
     65          6           0        2.438829   -7.467701   -0.871599
     66          7           0       -0.744518   -5.457531   -0.705951
     67          1           0        0.414880   -6.569682    0.660850
     68          1           0       -0.302076   -7.451787   -0.723305
     69          1           0        3.351461   -7.368111   -1.454681
     70          1           0        1.986251   -8.432617   -1.085180
     71          1           0        2.698178   -7.419373    0.182504
     72          1           0        0.391754   -5.615611   -2.956041
     73          1           0        0.756773   -7.340248   -2.983930
     74          1           0        2.042415   -6.175704   -3.311601
     75          6           0        5.112373    1.111261   -4.087028
     76          6           0        3.925963    1.457347   -5.021886
     77          7           0        4.601675    0.127442   -3.171969
     78          6           0        5.667493    2.399233   -3.472063
     79          6           0        6.199990    0.406776   -4.907850
     80          7           0        2.889232    2.092318   -4.278350
     81          1           0        3.583409    0.537891   -5.523561
     82          1           0        4.279286    2.169689   -5.773406
     83          1           0        7.052000    0.180810   -4.270856
     84          1           0        6.529188    1.040412   -5.727336
     85          1           0        5.814845   -0.526499   -5.309460
     86          1           0        6.071349    3.028463   -4.260725
     87          1           0        6.465526    2.174321   -2.766942
     88          1           0        4.875354    2.946118   -2.967854
     89          6           0        4.946175   -0.674320    4.492780
     90          6           0        4.428954    0.732978    4.884309
     91          7           0        4.679283   -0.799791    3.085876
     92          6           0        4.308951   -1.722827    5.409320
     93          6           0        6.472535   -0.700298    4.642184
     94          7           0        3.014444    0.793181    4.722192
     95          1           0        4.955499    1.490592    4.281938
     96          1           0        4.648937    0.895708    5.943609
     97          1           0        6.759787   -0.454034    5.661169
     98          1           0        6.923609    0.015268    3.960178
     99          1           0        6.848376   -1.691157    4.398138
    100          1           0        4.611147   -2.725511    5.112620
    101          1           0        3.225801   -1.641182    5.376914
    102          1           0        4.636085   -1.552434    6.431447
    103          6           0       -4.903070   -0.610643   -4.555791
    104          6           0       -4.769767    0.932632   -4.511929
    105          7           0       -4.557004   -1.059471   -3.234875
    106          6           0       -4.060923   -1.160403   -5.710620
    107          6           0       -6.379168   -0.975249   -4.758063
    108          7           0       -3.409862    1.297181   -4.290672
    109          1           0       -5.445175    1.331151   -3.737750
    110          1           0       -5.065017    1.328735   -5.488182
    111          1           0       -6.966873   -0.621150   -3.915554
    112          1           0       -6.484938   -2.055721   -4.820769
    113          1           0       -6.759861   -0.528890   -5.673069
    114          1           0       -3.033682   -0.816920   -5.622979
    115          1           0       -4.464625   -0.799449   -6.652797
    116          1           0       -4.085523   -2.248559   -5.718536
    117          6           0       -5.190303   -1.447998    4.160215
    118          6           0       -4.097850   -1.090420    5.199704
    119          7           0       -4.477561   -1.962951    3.023158
    120          6           0       -6.079966   -0.225346    3.917418
    121          6           0       -6.028760   -2.612036    4.702780
    122          7           0       -3.278799   -0.037214    4.699064
    123          1           0       -3.519404   -1.996986    5.440144
    124          1           0       -4.592604   -0.725716    6.104668
    125          1           0       -6.475964   -2.346772    5.657294
    126          1           0       -5.402705   -3.490538    4.832620
    127          1           0       -6.819420   -2.855137    3.996829
    128          1           0       -6.603998    0.025234    4.835829
    129          1           0       -6.817819   -0.435460    3.145342
    130          1           0       -5.473866    0.627430    3.623637
    131          6           0       -0.600603    6.783804    0.346411
    132          6           0       -1.367897    6.389840    1.634068
    133          7           0       -0.788608    5.682678   -0.558093
    134          6           0        0.845202    7.138550    0.705417
    135          6           0       -1.296755    7.989774   -0.296483
    136          7           0       -0.765671    5.240869    2.224156
    137          1           0       -2.429471    6.229520    1.385983
    138          1           0       -1.283272    7.213988    2.348467
    139          1           0       -0.750717    8.298103   -1.184904
    140          1           0       -1.336918    8.822580    0.400793
    141          1           0       -2.307294    7.720439   -0.591137
    142          1           0        0.851434    8.021830    1.338483
    143          1           0        1.421316    7.353427   -0.192643
    144          1           0        1.307897    6.321023    1.251686
 ---------------------------------------------------------------------
 Rotational constants (GHZ):           0.0242408           0.0234409           0.0227009
 Leave Link  202 at Sat Oct 30 00:55:27 2021, MaxMem=  7864320000 cpu:               0.3 elap:               0.0
 (Enter /apps/gaussian/g16-c01-avx/g16/l301.exe)
 Standard basis: Aug-CC-pVDZ (5D, 7F)
 Ernie: Thresh=  0.10000D-02 Tol=  0.10000D-05 Strict=F.
 Ernie:  144 primitive shells out of 2304 were deleted.
 There are  2448 symmetry adapted cartesian basis functions of A   symmetry.
 There are  2304 symmetry adapted basis functions of A   symmetry.
  2304 basis functions,  3888 primitive gaussians,  2448 cartesian basis functions
   258 alpha electrons      258 beta electrons
       nuclear repulsion energy     11443.3521366819 Hartrees.
 IExCor=    0 DFT=F Ex=HF Corr=None ExCW=0 ScaHFX=  1.000000
 ScaDFX=  1.000000  1.000000  1.000000  1.000000 ScalE2=  1.000000  1.000000
 IRadAn=      7 IRanWt=     -1 IRanGd=            0 ICorTp=0 IEmpDi=  4
 NAtoms=  144 NActive=  144 NUniq=  144 SFac= 1.00D+00 NAtFMM=   60 NAOKFM=T Big=T
 Integral buffers will be    131072 words long.
 Raffenetti 1 integral format.
 Two-electron integral symmetry is turned on.
 ------------------------------------------------------------------------------
 Polarizable Continuum Model (PCM)
 =================================
 Model                : PCM.
 Atomic radii         : UFF (Universal Force Field).
 Polarization charges : Total charges.
 Charge compensation  : None.
 Solution method      : On-the-fly selection.
 Cavity type          : Scaled VdW (van der Waals Surface) (Alpha=1.100).
 Cavity algorithm     : GePol (No added spheres)
                        Default sphere list used, NSphG=  144.
                        Lebedev-Laikov grids with approx.  5.0 points / Ang**2.
                        Smoothing algorithm: York/Karplus (Gamma=1.0000).
                        Polarization charges: spherical gaussians, with
                                              point-specific exponents (IZeta= 3).
                        Self-potential: point-specific (ISelfS= 7).
                        Self-field    : sphere-specific E.n sum rule (ISelfD= 2).
 Solvent              : Chloroform, Eps=   4.711300 Eps(inf)=   2.090627
 ------------------------------------------------------------------------------
 GePol: Number of generator spheres                  =     144
 GePol: Total number of spheres                      =     144
 GePol: Number of exposed spheres                    =     144 (100.00%)
 GePol: Number of points                             =    8884
 GePol: Average weight of points                     =       0.13
 GePol: Minimum weight of points                     =   0.14D-11
 GePol: Maximum weight of points                     =    0.20577
 GePol: Number of points with low weight             =     651
 GePol: Fraction of low-weight points (<1% of avg)   =       7.33%
 GePol: Cavity surface area                          =   1165.936 Ang**2
 GePol: Cavity volume                                =   1390.109 Ang**3
 Leave Link  301 at Sat Oct 30 00:55:28 2021, MaxMem=  7864320000 cpu:               3.5 elap:               0.1
 (Enter /apps/gaussian/g16-c01-avx/g16/l302.exe)
 NPDir=0 NMtPBC=     1 NCelOv=     1 NCel=       1 NClECP=     1 NCelD=      1
         NCelK=      1 NCelE2=     1 NClLst=     1 CellRange=     0.0.
 One-electron integrals computed using PRISM.
 One-electron integral symmetry used in STVInt
 NBasis=  2304 RedAO= T EigKep=  1.00D-06  NBF=  2304
 NBsUse=  2286 1.00D-06 EigRej=  9.63D-07 NBFU=  2286
 Leave Link  302 at Sat Oct 30 00:55:40 2021, MaxMem=  7864320000 cpu:             383.7 elap:              12.1
 (Enter /apps/gaussian/g16-c01-avx/g16/l303.exe)
 DipDrv:  MaxL=1.
 Leave Link  303 at Sat Oct 30 00:55:42 2021, MaxMem=  7864320000 cpu:              36.9 elap:               1.4
 (Enter /apps/gaussian/g16-c01-avx/g16/l401.exe)
 ExpMin= 2.97D-02 ExpMax= 9.05D+03 ExpMxC= 3.09D+02 IAcc=3 IRadAn=         7 AccDes= 0.00D+00
 Harris functional with IExCor=  205 and IRadAn=       7 diagonalized for initial guess.
 HarFok:  IExCor=  205 AccDes= 0.00D+00 IRadAn=         7 IDoV= 1 UseB2=F ITyADJ=14
 ICtDFT=  3500011 ScaDFX=  1.000000  1.000000  1.000000  1.000000
 FoFCou: FMM=F IPFlag=           0 FMFlag=      100000 FMFlg1=        2001
         NFxFlg=           0 DoJE=T BraDBF=F KetDBF=T FulRan=T
         wScrn=  0.000000 ICntrl=       500 IOpCl=  0 I1Cent=   200000004 NGrid=           0
         NMat0=    1 NMatS0=      1 NMatT0=    0 NMatD0=    1 NMtDS0=    0 NMtDT0=    0
 Petite list used in FoFCou.
 Harris En= -2971.91292688506    
 JPrj=0 DoOrth=F DoCkMO=F.
 Leave Link  401 at Sat Oct 30 00:56:46 2021, MaxMem=  7864320000 cpu:            2007.4 elap:              63.2
 (Enter /apps/gaussian/g16-c01-avx/g16/l508.exe)
 Integral symmetry usage will be decided dynamically.
 Tight linear equation convergence will be used.
 RHF wavefunction.
 Linear searches until partial convergence.
 Full line searches.
 Fock matrices will be formed incrementally for  20 cycles.
 Inv3:  Mode=1 IEnd=   236776368.
 Iteration    1 A*A^-1 deviation from unit magnitude is 1.12D-14 for   8871.
 Iteration    1 A*A^-1 deviation from orthogonality  is 2.52D-15 for   8868   7969.
 Iteration    1 A^-1*A deviation from unit magnitude is 1.07D-14 for   8871.
 Iteration    1 A^-1*A deviation from orthogonality  is 4.50D-15 for   7541   7523.
 FoFJK:  IHMeth= 1 ICntrl=       0 DoSepK=F KAlg= 0 I1Cent=           0 FoldK=F
 IRaf= 890000000 NMat=       1 IRICut=       1 DoRegI=T DoRafI=F ISym2E= 1 IDoP0=0 IntGTp=1.
 Iteration   1 EE= -2964.94630894607                                    Grad=2.592D+00 Max rot=    1.7466 deg.
 Gradient too large for Newton-Raphson -- use scaled steepest descent instead.
 Alpha Gap=     0.454 HL deriv= 6.10D-03
     ILin= 1 X=0.000D+00 Y=-2.964946308946D+03 DE= 0.00D+00 F= -8.01D+00
 RMSU=  6.89D-03    CP:  7.94D-01
     ILin= 2 X=3.000D-01 Y=-2.966777732027D+03 DE=-1.83D+00 F= -4.19D+00 OKLS=F
 RMSU=  1.48D-03    CP:  6.84D-01  1.51D+00
     ILin= 3 X=5.000D-01 Y=-2.967358423836D+03 DE=-2.41D+00 F= -1.62D+00
 RMSU=  5.90D-03    CP:  5.07D-01  2.23D+00  3.00D+00
     ILin= 4 X=1.000D+00 Y=-2.966575166924D+03 DE=-1.63D+00 F=  4.72D+00
     An  expanding polynomial of degree  4 produced  0.6272
 RMSU=  5.14D-06    CP:  6.25D-01  1.77D+00  2.05D+00  9.63D-06
 Iteration   2 EE= -2967.46081020657     Delta-E=       -2.514501260506 Grad=8.342D-01 Max rot=    0.7579 deg.
 Gradient too large for Newton-Raphson -- use scaled steepest descent instead.
 Alpha Gap=     0.463 HL deriv= 2.48D-03
     ILin= 1 X=0.000D+00 Y=-2.967460810207D+03 DE= 0.00D+00 F= -3.93D-01
 RMSU=  1.56D-03    CP:  5.68D-01  1.82D+00  2.98D+00  7.16D-04  3.00D+00
     ILin= 2 X=4.000D-01 Y=-2.967580524585D+03 DE=-1.20D-01 F= -2.06D-01 OKLS=F
 RMSU=  4.02D-04    CP:  5.08D-01  1.83D+00  3.00D+00  3.66D-01  3.00D+00
                    CP:  2.14D+00
     ILin= 3 X=9.000D-01 Y=-2.967624882252D+03 DE=-1.64D-01 F=  2.81D-02
     Accept linear search using points  2 and  3.
     An  expanding polynomial of degree  3 produced  0.7142
 RMSU=  6.38D-07    CP:  5.29D-01  1.83D+00  3.00D+00  2.18D-01  3.00D+00
                    CP:  1.73D+00  4.99D-01
 Iteration   3 EE= -2967.62204149968     Delta-E=       -0.161231293105 Grad=2.750D-01 Max rot=    0.2337 deg.
 Gradient too large for Newton-Raphson -- use scaled steepest descent instead.
 Alpha Gap=     0.461 HL deriv= 3.39D-04
     ILin= 1 X=0.000D+00 Y=-2.967622041500D+03 DE= 0.00D+00 F= -5.07D-02
 RMSU=  7.01D-04    CP:  4.99D-01  1.80D+00  3.00D+00  4.24D-01  3.00D+00
                    CP:  2.12D+00  1.15D+00  3.00D+00
     ILin= 2 X=7.000D-01 Y=-2.967644106762D+03 DE=-2.21D-02 F= -1.24D-02 OKLS=T
     Reject lnstep IMin12=  1  2 Big=T Turn=F Min= 1.195D+00 FVal=-2.967650708049D+03 Lims=  0.00D+00  7.00D-01
 RMSU=  6.35D-05    CP:  4.76D-01  1.77D+00  3.00D+00  6.15D-01  3.00D+00
                    CP:  2.44D+00  1.86D+00  3.00D+00  1.81D+00
     ILin= 3 X=1.300D+00 Y=-2.967641676961D+03 DE=-1.96D-02 F=  2.05D-02
     An  expanding polynomial of degree  3 produced  0.9260
 RMSU=  1.17D-07    CP:  4.90D-01  1.79D+00  3.00D+00  4.95D-01  3.00D+00
                    CP:  2.25D+00  1.40D+00  3.00D+00  1.31D+00  2.68D-01
 Iteration   4 EE= -2967.64550497585     Delta-E=       -0.023463476173 Grad=8.293D-02 Max rot=    0.2759 deg.
 Gradient too large for Newton-Raphson -- use scaled steepest descent instead.
 Alpha Gap=     0.468 HL deriv= 9.19D-04
     ILin= 1 X=0.000D+00 Y=-2.967645504976D+03 DE= 0.00D+00 F= -1.09D-02
 RMSU=  3.39D-04    CP:  4.81D-01  1.77D+00  3.00D+00  5.08D-01  3.00D+00
                    CP:  2.39D+00  1.66D+00  3.00D+00  1.45D+00  1.06D+00
                    CP: -3.00D+00
     ILin= 2 X=8.000D-01 Y=-2.967648625799D+03 DE=-3.12D-03 F=  3.08D-03 OKLS=T
     Accept linear search using points  1 and  2.
     An  expanding polynomial of degree  2 produced  0.5698
 RMSU=  1.70D-06    CP:  4.83D-01  1.78D+00  3.00D+00  5.04D-01  3.00D+00
                    CP:  2.35D+00  1.58D+00  3.00D+00  1.41D+00  8.28D-01
                    CP: -3.00D+00  7.14D-01
 Iteration   5 EE= -2967.64887223365     Delta-E=       -0.003367257797 Grad=3.051D-02 Max rot=    0.0644 deg.
 Gradient too large for Newton-Raphson -- use scaled steepest descent instead.
 Alpha Gap=     0.466 HL deriv= 7.44D-05
     ILin= 1 X=0.000D+00 Y=-2.967648872234D+03 DE= 0.00D+00 F= -1.37D-03
 RMSU=  5.80D-05    CP:  4.80D-01  1.76D+00  3.00D+00  5.14D-01  3.00D+00
                    CP:  2.40D+00  1.71D+00  3.00D+00  1.62D+00  1.18D+00
                    CP: -3.00D+00  9.63D-01 -2.00D+00
     ILin= 2 X=7.000D-01 Y=-2.967649547977D+03 DE=-6.76D-04 F= -5.57D-04 OKLS=F
 RMSU=  7.68D-06    CP:  4.76D-01  1.75D+00  3.00D+00  5.26D-01  3.00D+00
                    CP:  2.45D+00  1.85D+00  3.00D+00  1.86D+00  1.62D+00
                    CP: -3.00D+00  1.24D+00 -3.00D+00  2.13D+00
     ILin= 3 X=1.500D+00 Y=-2.967649619559D+03 DE=-7.47D-04 F=  3.78D-04
     Accept linear search using points  2 and  3.
     An  expanding polynomial of degree  3 produced  1.1541
 RMSU=  5.95D-08    CP:  4.77D-01  1.75D+00  3.00D+00  5.21D-01  3.00D+00
                    CP:  2.43D+00  1.79D+00  3.00D+00  1.76D+00  1.42D+00
                    CP: -3.00D+00  1.12D+00 -3.00D+00  1.64D+00  4.13D-01
 Iteration   6 EE= -2967.64968036656     Delta-E=       -0.000808132912 Grad=1.550D-02 Max rot=    0.0715 deg.
 Gradient too large for Newton-Raphson -- use scaled steepest descent instead.
 Alpha Gap=     0.468 HL deriv= 2.68D-04
     ILin= 1 X=0.000D+00 Y=-2.967649680367D+03 DE= 0.00D+00 F= -4.89D-04
 RMSU=  3.57D-05    CP:  4.77D-01  1.75D+00  3.00D+00  5.18D-01  3.00D+00
                    CP:  2.43D+00  1.80D+00  3.00D+00  1.78D+00  1.48D+00
                    CP: -3.00D+00  1.30D+00 -1.57D+00  1.76D+00 -1.92D-02
                    CP: -3.00D+00
     ILin= 2 X=8.000D-01 Y=-2.967649792460D+03 DE=-1.12D-04 F=  2.08D-04 OKLS=T
     Accept linear search using points  1 and  2.
     An  expanding polynomial of degree  2 produced  0.5172
 RMSU=  1.84D-07    CP:  4.77D-01  1.75D+00  3.00D+00  5.19D-01  3.00D+00
                    CP:  2.43D+00  1.79D+00  3.00D+00  1.77D+00  1.46D+00
                    CP: -3.00D+00  1.24D+00 -2.68D+00  1.72D+00  1.61D-03
                    CP:  6.10D-01  6.47D-01
 Iteration   7 EE= -2967.64981653720     Delta-E=       -0.000136170636 Grad=4.885D-03 Max rot=    0.0170 deg.
 SCF Done:  E(RHF) =  -2967.64981654     a.u. after    7 cycles
            Convg  =    0.4885D-02                    18 Fock formations.
              S**2 =  0.0000                  -V/T =  2.0002
 Leave Link  508 at Sat Oct 30 05:15:05 2021, MaxMem=  7864320000 cpu:          490764.3 elap:           15498.8
 (Enter /apps/gaussian/g16-c01-avx/g16/l502.exe)
 Integral symmetry usage will be decided dynamically.
 Closed shell SCF:
 Using DIIS extrapolation, IDIIS=  1040.
 NGot=  7864320000 LenX=  7852230314 LenY=  7846235162
 Requested convergence on RMS density matrix=1.00D-08 within 128 cycles.
 Requested convergence on MAX density matrix=1.00D-06.
 Requested convergence on             energy=1.00D-06.
 No special actions if energy rises.
 Fock matrices will be formed incrementally for  20 cycles.

 Cycle   1  Pass 1  IDiag  1:
 FoFJK:  IHMeth= 1 ICntrl=       0 DoSepK=F KAlg= 0 I1Cent=           0 FoldK=F
 IRaf= 890000000 NMat=       1 IRICut=       1 DoRegI=T DoRafI=F ISym2E= 0 IDoP0=0 IntGTp=1.
 FoFCou: FMM=T IPFlag=           0 FMFlag=      100000 FMFlg1=        2001
         NFxFlg=           0 DoJE=F BraDBF=F KetDBF=F FulRan=T
         wScrn=  0.000000 ICntrl=         0 IOpCl=  0 I1Cent=           0 NGrid=           0
         NMat0=    1 NMatS0=      1 NMatT0=    0 NMatD0=    1 NMtDS0=    0 NMtDT0=    0
 Symmetry not used in FoFCou.
 FMM levels:  10  Number of levels for PrismC:   9
 E= -2967.64981649257    
 DIIS: error= 5.84D-05 at cycle   1 NSaved=   1.
 NSaved= 1 IEnMin= 1 EnMin= -2967.64981649257     IErMin= 1 ErrMin= 5.84D-05
 ErrMax= 5.84D-05  0.00D+00 EMaxC= 1.00D-01 BMatC= 1.19D-05 BMatP= 1.19D-05
 IDIUse=1 WtCom= 1.00D+00 WtEn= 0.00D+00
 Coeff-Com:  0.100D+01
 Coeff:      0.100D+01
 Gap=     0.467 Goal=   None    Shift=    0.000
 RMSDP=7.12D-05 MaxDP=1.29D-02              OVMax= 1.50D-03

 Cycle   2  Pass 1  IDiag  1:
 RMSU=  6.52D-05    CP:  9.99D-01
 E= -2967.64986032295     Delta-E=       -0.000043830378 Rises=F Damp=F
 DIIS: error= 2.67D-05 at cycle   2 NSaved=   2.
 NSaved= 2 IEnMin= 2 EnMin= -2967.64986032295     IErMin= 2 ErrMin= 2.67D-05
 ErrMax= 2.67D-05  0.00D+00 EMaxC= 1.00D-01 BMatC= 2.73D-06 BMatP= 1.19D-05
 IDIUse=1 WtCom= 1.00D+00 WtEn= 0.00D+00
 Coeff-Com: -0.130D+00 0.113D+01
 Coeff:     -0.130D+00 0.113D+01
 Gap=     0.352 Goal=   None    Shift=    0.000
 RMSDP=2.02D-05 MaxDP=4.37D-03 DE=-4.38D-05 OVMax= 9.04D-04

 Cycle   3  Pass 1  IDiag  1:
 RMSU=  1.04D-05    CP:  9.99D-01  1.23D+00
 E= -2967.64987185795     Delta-E=       -0.000011535001 Rises=F Damp=F
 DIIS: error= 1.47D-05 at cycle   3 NSaved=   3.
 NSaved= 3 IEnMin= 3 EnMin= -2967.64987185795     IErMin= 3 ErrMin= 1.47D-05
 ErrMax= 1.47D-05  0.00D+00 EMaxC= 1.00D-01 BMatC= 1.41D-06 BMatP= 2.73D-06
 IDIUse=1 WtCom= 1.00D+00 WtEn= 0.00D+00
 Coeff-Com: -0.301D+00 0.440D+00 0.861D+00
 Coeff:     -0.301D+00 0.440D+00 0.861D+00
 Gap=     0.353 Goal=   None    Shift=    0.000
 RMSDP=9.86D-06 MaxDP=1.83D-03 DE=-1.15D-05 OVMax= 5.85D-04

 Cycle   4  Pass 1  IDiag  1:
 RMSU=  6.34D-06    CP:  9.99D-01  1.32D+00  1.42D+00
 E= -2967.64987623537     Delta-E=       -0.000004377422 Rises=F Damp=F
 DIIS: error= 1.00D-05 at cycle   4 NSaved=   4.
 NSaved= 4 IEnMin= 4 EnMin= -2967.64987623537     IErMin= 4 ErrMin= 1.00D-05
 ErrMax= 1.00D-05  0.00D+00 EMaxC= 1.00D-01 BMatC= 1.82D-07 BMatP= 1.41D-06
 IDIUse=1 WtCom= 1.00D+00 WtEn= 0.00D+00
 Coeff-Com:  0.197D+00-0.428D+00-0.533D+00 0.176D+01
 Coeff:      0.197D+00-0.428D+00-0.533D+00 0.176D+01
 Gap=     0.353 Goal=   None    Shift=    0.000
 RMSDP=7.49D-06 MaxDP=6.37D-04 DE=-4.38D-06 OVMax= 5.19D-04

 Cycle   5  Pass 1  IDiag  1:
 RMSU=  3.55D-06    CP:  9.99D-01  1.29D+00  1.79D+00  1.79D+00
 E= -2967.64987775632     Delta-E=       -0.000001520948 Rises=F Damp=F
 DIIS: error= 3.30D-06 at cycle   5 NSaved=   5.
 NSaved= 5 IEnMin= 5 EnMin= -2967.64987775632     IErMin= 5 ErrMin= 3.30D-06
 ErrMax= 3.30D-06  0.00D+00 EMaxC= 1.00D-01 BMatC= 2.74D-08 BMatP= 1.82D-07
 IDIUse=1 WtCom= 1.00D+00 WtEn= 0.00D+00
 Coeff-Com:  0.222D-01-0.111D-01-0.103D+00-0.182D+00 0.127D+01
 Coeff:      0.222D-01-0.111D-01-0.103D+00-0.182D+00 0.127D+01
 Gap=     0.353 Goal=   None    Shift=    0.000
 RMSDP=2.75D-06 MaxDP=3.23D-04 DE=-1.52D-06 OVMax= 1.85D-04

 Cycle   6  Pass 1  IDiag  1:
 RMSU=  1.21D-06    CP:  9.99D-01  1.29D+00  1.87D+00  2.09D+00  1.37D+00
 E= -2967.64987793275     Delta-E=       -0.000000176426 Rises=F Damp=F
 DIIS: error= 9.74D-07 at cycle   6 NSaved=   6.
 NSaved= 6 IEnMin= 6 EnMin= -2967.64987793275     IErMin= 6 ErrMin= 9.74D-07
 ErrMax= 9.74D-07  0.00D+00 EMaxC= 1.00D-01 BMatC= 3.34D-09 BMatP= 2.74D-08
 IDIUse=1 WtCom= 1.00D+00 WtEn= 0.00D+00
 Coeff-Com: -0.312D-01 0.796D-01 0.719D-01-0.359D+00 0.255D+00 0.983D+00
 Coeff:     -0.312D-01 0.796D-01 0.719D-01-0.359D+00 0.255D+00 0.983D+00
 Gap=     0.353 Goal=   None    Shift=    0.000
 RMSDP=8.19D-07 MaxDP=1.05D-04 DE=-1.76D-07 OVMax= 5.34D-05

 Cycle   7  Pass 1  IDiag  1:
 RMSU=  3.97D-07    CP:  9.99D-01  1.30D+00  1.89D+00  2.15D+00  1.48D+00
                    CP:  1.28D+00
 E= -2967.64987794662     Delta-E=       -0.000000013870 Rises=F Damp=F
 DIIS: error= 2.75D-07 at cycle   7 NSaved=   7.
 NSaved= 7 IEnMin= 7 EnMin= -2967.64987794662     IErMin= 7 ErrMin= 2.75D-07
 ErrMax= 2.75D-07  0.00D+00 EMaxC= 1.00D-01 BMatC= 2.48D-10 BMatP= 3.34D-09
 IDIUse=1 WtCom= 1.00D+00 WtEn= 0.00D+00
 Coeff-Com:  0.254D-02-0.819D-02-0.542D-02 0.616D-01-0.125D+00-0.835D-01
 Coeff-Com:  0.116D+01
 Coeff:      0.254D-02-0.819D-02-0.542D-02 0.616D-01-0.125D+00-0.835D-01
 Coeff:      0.116D+01
 Gap=     0.353 Goal=   None    Shift=    0.000
 RMSDP=2.59D-07 MaxDP=1.61D-05 DE=-1.39D-08 OVMax= 1.08D-05

 Cycle   8  Pass 1  IDiag  1:
 RMSU=  1.33D-07    CP:  9.99D-01  1.30D+00  1.89D+00  2.16D+00  1.47D+00
                    CP:  1.38D+00  1.37D+00
 E= -2967.64987794815     Delta-E=       -0.000000001530 Rises=F Damp=F
 DIIS: error= 1.63D-07 at cycle   8 NSaved=   8.
 NSaved= 8 IEnMin= 8 EnMin= -2967.64987794815     IErMin= 8 ErrMin= 1.63D-07
 ErrMax= 1.63D-07  0.00D+00 EMaxC= 1.00D-01 BMatC= 8.15D-11 BMatP= 2.48D-10
 IDIUse=1 WtCom= 1.00D+00 WtEn= 0.00D+00
 Coeff-Com:  0.526D-02-0.132D-01-0.139D-01 0.653D-01-0.666D-01-0.151D+00
 Coeff-Com:  0.185D+00 0.990D+00
 Coeff:      0.526D-02-0.132D-01-0.139D-01 0.653D-01-0.666D-01-0.151D+00
 Coeff:      0.185D+00 0.990D+00
 Gap=     0.353 Goal=   None    Shift=    0.000
 RMSDP=1.41D-07 MaxDP=1.19D-05 DE=-1.53D-09 OVMax= 5.85D-06

 Cycle   9  Pass 1  IDiag  1:
 RMSU=  7.07D-08    CP:  9.99D-01  1.30D+00  1.89D+00  2.16D+00  1.48D+00
                    CP:  1.43D+00  1.52D+00  1.48D+00
 E= -2967.64987794672     Delta-E=        0.000000001430 Rises=F Damp=F
 DIIS: error= 1.04D-07 at cycle   9 NSaved=   9.
 NSaved= 9 IEnMin= 8 EnMin= -2967.64987794815     IErMin= 9 ErrMin= 1.04D-07
 ErrMax= 1.04D-07  0.00D+00 EMaxC= 1.00D-01 BMatC= 1.86D-11 BMatP= 8.15D-11
 IDIUse=1 WtCom= 1.00D+00 WtEn= 0.00D+00
 Coeff-Com: -0.693D-03 0.278D-02 0.545D-03-0.162D-01 0.339D-01 0.362D-01
 Coeff-Com: -0.325D+00-0.131D+00 0.140D+01
 Coeff:     -0.693D-03 0.278D-02 0.545D-03-0.162D-01 0.339D-01 0.362D-01
 Coeff:     -0.325D+00-0.131D+00 0.140D+01
 Gap=     0.353 Goal=   None    Shift=    0.000
 RMSDP=1.62D-07 MaxDP=1.10D-05 DE= 1.43D-09 OVMax= 4.66D-06

 Cycle  10  Pass 1  IDiag  1:
 RMSU=  6.38D-08    CP:  9.99D-01  1.30D+00  1.89D+00  2.16D+00  1.49D+00
                    CP:  1.46D+00  1.67D+00  2.15D+00  2.08D+00
 E= -2967.64987794786     Delta-E=       -0.000000001139 Rises=F Damp=F
 DIIS: error= 3.44D-08 at cycle  10 NSaved=  10.
 NSaved=10 IEnMin= 8 EnMin= -2967.64987794815     IErMin=10 ErrMin= 3.44D-08
 ErrMax= 3.44D-08  0.00D+00 EMaxC= 1.00D-01 BMatC= 2.98D-12 BMatP= 1.86D-11
 IDIUse=1 WtCom= 1.00D+00 WtEn= 0.00D+00
 Coeff-Com: -0.114D-02 0.311D-02 0.277D-02-0.145D-01 0.168D-01 0.372D-01
 Coeff-Com: -0.721D-01-0.236D+00 0.241D+00 0.102D+01
 Coeff:     -0.114D-02 0.311D-02 0.277D-02-0.145D-01 0.168D-01 0.372D-01
 Coeff:     -0.721D-01-0.236D+00 0.241D+00 0.102D+01
 Gap=     0.353 Goal=   None    Shift=    0.000
 RMSDP=1.42D-07 MaxDP=8.38D-06 DE=-1.14D-09 OVMax= 1.69D-06

 Cycle  11  Pass 1  IDiag  1:
 RMSU=  4.57D-08    CP:  9.99D-01  1.30D+00  1.88D+00  2.16D+00  1.49D+00
                    CP:  1.49D+00  1.78D+00  2.66D+00  3.00D+00  1.90D+00
 E= -2967.64987794643     Delta-E=        0.000000001424 Rises=F Damp=F
 DIIS: error= 9.03D-09 at cycle  11 NSaved=  11.
 NSaved=11 IEnMin= 8 EnMin= -2967.64987794815     IErMin=11 ErrMin= 9.03D-09
 ErrMax= 9.03D-09  0.00D+00 EMaxC= 1.00D-01 BMatC= 4.50D-13 BMatP= 2.98D-12
 IDIUse=1 WtCom= 1.00D+00 WtEn= 0.00D+00
 Coeff-Com:  0.127D-04-0.210D-03 0.203D-03 0.121D-02-0.425D-02-0.253D-02
 Coeff-Com:  0.465D-01-0.767D-02-0.200D+00 0.949D-01 0.107D+01
 Coeff:      0.127D-04-0.210D-03 0.203D-03 0.121D-02-0.425D-02-0.253D-02
 Coeff:      0.465D-01-0.767D-02-0.200D+00 0.949D-01 0.107D+01
 Gap=     0.353 Goal=   None    Shift=    0.000
 RMSDP=1.88D-07 MaxDP=1.31D-05 DE= 1.42D-09 OVMax= 5.06D-07

 Cycle  12  Pass 1  IDiag  1:
 RMSU=  9.37D-08    CP:  9.99D-01  1.30D+00  1.88D+00  2.16D+00  1.50D+00
                    CP:  1.52D+00  1.95D+00  3.00D+00  3.00D+00  3.00D+00
                    CP:  2.07D+00
 E= -2967.64987794675     Delta-E=       -0.000000000318 Rises=F Damp=F
 DIIS: error= 8.22D-09 at cycle  12 NSaved=  12.
 NSaved=12 IEnMin= 8 EnMin= -2967.64987794815     IErMin=12 ErrMin= 8.22D-09
 ErrMax= 8.22D-09  0.00D+00 EMaxC= 1.00D-01 BMatC= 1.35D-13 BMatP= 4.50D-13
 IDIUse=1 WtCom= 1.00D+00 WtEn= 0.00D+00
 Coeff-Com:  0.758D-04-0.248D-03-0.121D-03 0.115D-02-0.171D-02-0.264D-02
 Coeff-Com:  0.112D-01 0.139D-01-0.353D-01-0.485D-01 0.622D-01 0.100D+01
 Coeff:      0.758D-04-0.248D-03-0.121D-03 0.115D-02-0.171D-02-0.264D-02
 Coeff:      0.112D-01 0.139D-01-0.353D-01-0.485D-01 0.622D-01 0.100D+01
 Gap=     0.353 Goal=   None    Shift=    0.000
 RMSDP=1.90D-07 MaxDP=1.12D-05 DE=-3.18D-10 OVMax= 8.18D-08

 Cycle  13  Pass 1  IDiag  1:
 RMSU=  8.14D-08    CP:  9.99D-01  1.30D+00  1.88D+00  2.16D+00  1.51D+00
                    CP:  1.56D+00  2.09D+00  3.00D+00  3.00D+00  3.00D+00
                    CP:  3.00D+00  2.33D+00
 E= -2967.64987794575     Delta-E=        0.000000001002 Rises=F Damp=F
 DIIS: error= 1.11D-08 at cycle  13 NSaved=  13.
 NSaved=13 IEnMin= 8 EnMin= -2967.64987794815     IErMin=12 ErrMin= 8.22D-09
 ErrMax= 1.11D-08  0.00D+00 EMaxC= 1.00D-01 BMatC= 1.61D-13 BMatP= 1.35D-13
 IDIUse=1 WtCom= 1.00D+00 WtEn= 0.00D+00
 Coeff-Com:  0.117D-03-0.369D-03-0.207D-03 0.171D-02-0.242D-02-0.398D-02
 Coeff-Com:  0.154D-01 0.218D-01-0.489D-01-0.784D-01 0.854D-01 0.139D+01
 Coeff-Com: -0.383D+00
 Coeff:      0.117D-03-0.369D-03-0.207D-03 0.171D-02-0.242D-02-0.398D-02
 Coeff:      0.154D-01 0.218D-01-0.489D-01-0.784D-01 0.854D-01 0.139D+01
 Coeff:     -0.383D+00
 Gap=     0.353 Goal=   None    Shift=    0.000
 RMSDP=7.88D-08 MaxDP=5.19D-06 DE= 1.00D-09 OVMax= 1.06D-08

 Cycle  14  Pass 1  IDiag  1:
 RMSU=  1.46D-08    CP:  9.99D-01  1.30D+00  1.88D+00  2.16D+00  1.50D+00
                    CP:  1.54D+00  2.02D+00  3.00D+00  3.00D+00  3.00D+00
                    CP:  3.00D+00  1.77D+00  5.34D-01
 E= -2967.64987794572     Delta-E=        0.000000000031 Rises=F Damp=F
 DIIS: error= 8.79D-09 at cycle  14 NSaved=  14.
 NSaved=14 IEnMin= 8 EnMin= -2967.64987794815     IErMin=12 ErrMin= 8.22D-09
 ErrMax= 8.79D-09  0.00D+00 EMaxC= 1.00D-01 BMatC= 1.40D-13 BMatP= 1.35D-13
 IDIUse=1 WtCom= 1.00D+00 WtEn= 0.00D+00
 Coeff-Com:  0.111D-03-0.331D-03-0.215D-03 0.148D-02-0.182D-02-0.347D-02
 Coeff-Com:  0.893D-02 0.213D-01-0.209D-01-0.862D-01-0.637D-01 0.139D+01
 Coeff-Com: -0.230D+01 0.206D+01
 Coeff:      0.111D-03-0.331D-03-0.215D-03 0.148D-02-0.182D-02-0.347D-02
 Coeff:      0.893D-02 0.213D-01-0.209D-01-0.862D-01-0.637D-01 0.139D+01
 Coeff:     -0.230D+01 0.206D+01
 Gap=     0.353 Goal=   None    Shift=    0.000
 RMSDP=1.48D-07 MaxDP=1.18D-05 DE= 3.09D-11 OVMax= 2.22D-08

 Cycle  15  Pass 1  IDiag  1:
 RMSU=  5.23D-08    CP:  9.99D-01  1.30D+00  1.88D+00  2.16D+00  1.50D+00
                    CP:  1.52D+00  1.92D+00  3.00D+00  3.00D+00  3.00D+00
                    CP:  2.07D+00  8.27D-01 -2.09D-01  1.26D+00
 E= -2967.64987794610     Delta-E=       -0.000000000380 Rises=F Damp=F
 DIIS: error= 6.35D-09 at cycle  15 NSaved=  15.
 NSaved=15 IEnMin= 8 EnMin= -2967.64987794815     IErMin=15 ErrMin= 6.35D-09
 ErrMax= 6.35D-09  0.00D+00 EMaxC= 1.00D-01 BMatC= 9.91D-14 BMatP= 1.35D-13
 IDIUse=1 WtCom= 1.00D+00 WtEn= 0.00D+00
 Coeff-Com:  0.433D-04-0.125D-03-0.792D-04 0.513D-03-0.510D-03-0.117D-02
 Coeff-Com:  0.627D-03 0.797D-02 0.648D-02-0.392D-01-0.125D+00 0.672D+00
 Coeff-Com: -0.234D+01 0.138D+01 0.144D+01
 Coeff:      0.433D-04-0.125D-03-0.792D-04 0.513D-03-0.510D-03-0.117D-02
 Coeff:      0.627D-03 0.797D-02 0.648D-02-0.392D-01-0.125D+00 0.672D+00
 Coeff:     -0.234D+01 0.138D+01 0.144D+01
 Gap=     0.353 Goal=   None    Shift=    0.000
 RMSDP=1.95D-07 MaxDP=1.82D-05 DE=-3.80D-10 OVMax= 3.30D-08

 Cycle  16  Pass 1  IDiag  1:
 RMSU=  7.34D-08    CP:  9.99D-01  1.30D+00  1.88D+00  2.16D+00  1.49D+00
                    CP:  1.49D+00  1.79D+00  2.64D+00  3.00D+00  1.87D+00
                    CP:  1.00D+00 -6.93D-02 -1.63D-01  3.00D+00  2.06D+00
 E= -2967.64987794641     Delta-E=       -0.000000000313 Rises=F Damp=F
 DIIS: error= 6.11D-09 at cycle  16 NSaved=  16.
 NSaved=16 IEnMin= 8 EnMin= -2967.64987794815     IErMin=16 ErrMin= 6.11D-09
 ErrMax= 6.11D-09  0.00D+00 EMaxC= 1.00D-01 BMatC= 6.92D-14 BMatP= 9.91D-14
 IDIUse=1 WtCom= 1.00D+00 WtEn= 0.00D+00
 Large coefficients: NSaved= 16 BigCof=    0.00 CofMax=   10.00 Det=-2.54D-15
 Inversion failed.  Reducing to 15 matrices.
 Coeff-Com: -0.278D-04 0.310D-04 0.118D-03-0.345D-03-0.301D-03 0.231D-02
 Coeff-Com:  0.328D-02-0.433D-02-0.201D-01-0.329D-01 0.533D+00-0.810D+00
 Coeff-Com: -0.401D-01 0.517D+00 0.852D+00
 Coeff:     -0.278D-04 0.310D-04 0.118D-03-0.345D-03-0.301D-03 0.231D-02
 Coeff:      0.328D-02-0.433D-02-0.201D-01-0.329D-01 0.533D+00-0.810D+00
 Coeff:     -0.401D-01 0.517D+00 0.852D+00
 Gap=     0.353 Goal=   None    Shift=    0.000
 RMSDP=7.73D-08 MaxDP=1.02D-05 DE=-3.13D-10 OVMax= 1.64D-08

 Cycle  17  Pass 1  IDiag  1:
 RMSU=  3.82D-08    CP:  9.99D-01  1.30D+00  1.89D+00  2.16D+00  1.49D+00
                    CP:  1.48D+00  1.77D+00  2.53D+00  2.99D+00  1.68D+00
                    CP:  6.12D-01 -2.76D-01 -1.28D-01  3.00D+00  2.54D+00
                    CP:  1.69D+00
 E= -2967.64987794768     Delta-E=       -0.000000001270 Rises=F Damp=F
 DIIS: error= 5.61D-09 at cycle  17 NSaved=  16.
 NSaved=16 IEnMin= 7 EnMin= -2967.64987794815     IErMin=16 ErrMin= 5.61D-09
 ErrMax= 5.61D-09  0.00D+00 EMaxC= 1.00D-01 BMatC= 6.99D-14 BMatP= 6.92D-14
 IDIUse=1 WtCom= 1.00D+00 WtEn= 0.00D+00
 Large coefficients: NSaved= 16 BigCof=    0.00 CofMax=   10.00 Det=-2.35D-15
 Inversion failed.  Reducing to 15 matrices.
 Coeff-Com:  0.219D-04-0.500D-04 0.299D-04 0.125D-03-0.241D-03 0.151D-02
 Coeff-Com:  0.446D-02-0.155D-01-0.574D-01 0.508D+00-0.693D+00-0.836D-01
 Coeff-Com:  0.433D+00 0.721D+00 0.182D+00
 Coeff:      0.219D-04-0.500D-04 0.299D-04 0.125D-03-0.241D-03 0.151D-02
 Coeff:      0.446D-02-0.155D-01-0.574D-01 0.508D+00-0.693D+00-0.836D-01
 Coeff:      0.433D+00 0.721D+00 0.182D+00
 Gap=     0.353 Goal=   None    Shift=    0.000
 RMSDP=1.70D-08 MaxDP=2.06D-06 DE=-1.27D-09 OVMax= 4.16D-09

 Cycle  18  Pass 1  IDiag  1:
 RMSU=  6.12D-09    CP:  9.99D-01  1.30D+00  1.89D+00  2.16D+00  1.49D+00
                    CP:  1.48D+00  1.77D+00  2.55D+00  3.00D+00  1.72D+00
                    CP:  6.12D-01 -2.81D-01 -1.38D-01  3.00D+00  2.65D+00
                    CP:  1.85D+00  1.19D+00
 E= -2967.64987794730     Delta-E=        0.000000000382 Rises=F Damp=F
 DIIS: error= 6.90D-09 at cycle  18 NSaved=  16.
 NSaved=16 IEnMin= 6 EnMin= -2967.64987794815     IErMin=15 ErrMin= 5.61D-09
 ErrMax= 6.90D-09  0.00D+00 EMaxC= 1.00D-01 BMatC= 7.91D-14 BMatP= 6.92D-14
 IDIUse=1 WtCom= 1.00D+00 WtEn= 0.00D+00
 Large coefficients: NSaved= 16 BigCof=    0.00 CofMax=   10.00 Det=-2.03D-15
 Inversion failed.  Reducing to 15 matrices.
 Coeff-Com: -0.525D-04 0.184D-03 0.993D-04-0.174D-02 0.255D-02 0.104D-01
 Coeff-Com: -0.199D-01-0.796D-01 0.520D+00-0.663D+00-0.494D-01 0.234D+00
 Coeff-Com:  0.824D+00 0.106D+01-0.844D+00
 Coeff:     -0.525D-04 0.184D-03 0.993D-04-0.174D-02 0.255D-02 0.104D-01
 Coeff:     -0.199D-01-0.796D-01 0.520D+00-0.663D+00-0.494D-01 0.234D+00
 Coeff:      0.824D+00 0.106D+01-0.844D+00
 Gap=     0.353 Goal=   None    Shift=    0.000
 RMSDP=3.38D-08 MaxDP=3.43D-06 DE= 3.82D-10 OVMax= 5.98D-09

 Cycle  19  Pass 1  IDiag  1:
 RMSU=  2.31D-08    CP:  9.99D-01  1.30D+00  1.89D+00  2.16D+00  1.49D+00
                    CP:  1.48D+00  1.76D+00  2.47D+00  2.87D+00  1.57D+00
                    CP:  4.13D-01 -3.05D-01 -1.30D-01  3.00D+00  2.66D+00
                    CP:  1.89D+00  9.95D-01  6.33D-01
 E= -2967.64987794672     Delta-E=        0.000000000578 Rises=F Damp=F
 DIIS: error= 6.17D-09 at cycle  19 NSaved=  16.
 NSaved=16 IEnMin= 5 EnMin= -2967.64987794815     IErMin=14 ErrMin= 5.61D-09
 ErrMax= 6.17D-09  0.00D+00 EMaxC= 1.00D-01 BMatC= 6.92D-14 BMatP= 6.92D-14
 IDIUse=1 WtCom= 1.00D+00 WtEn= 0.00D+00
 Large coefficients: NSaved= 16 BigCof=    0.00 CofMax=   10.00 Det=-1.78D-15
 Inversion failed.  Reducing to 15 matrices.
 Coeff-Com:  0.529D-04-0.954D-04-0.106D-02 0.330D-02 0.748D-02-0.221D-01
 Coeff-Com: -0.707D-01 0.505D+00-0.642D+00 0.347D-02 0.845D-01 0.165D+00
 Coeff-Com:  0.213D+01-0.244D+01 0.128D+01
 Coeff:      0.529D-04-0.954D-04-0.106D-02 0.330D-02 0.748D-02-0.221D-01
 Coeff:     -0.707D-01 0.505D+00-0.642D+00 0.347D-02 0.845D-01 0.165D+00
 Coeff:      0.213D+01-0.244D+01 0.128D+01
 Gap=     0.353 Goal=   None    Shift=    0.000
 RMSDP=9.47D-08 MaxDP=1.41D-05 DE= 5.78D-10 OVMax= 1.42D-08

 Cycle  20  Pass 1  IDiag  1:
 RMSU=  3.40D-08    CP:  9.99D-01  1.30D+00  1.89D+00  2.16D+00  1.49D+00
                    CP:  1.46D+00  1.71D+00  2.25D+00  2.49D+00  1.09D+00
                    CP: -1.12D-01 -4.37D-01 -1.44D-01  3.00D+00  2.97D+00
                    CP:  2.52D+00  1.23D+00  1.01D+00  2.20D+00
 E= -2967.64987794814     Delta-E=       -0.000000001421 Rises=F Damp=F
 DIIS: error= 5.22D-09 at cycle  20 NSaved=  16.
 NSaved=16 IEnMin= 4 EnMin= -2967.64987794815     IErMin=16 ErrMin= 5.22D-09
 ErrMax= 5.22D-09  0.00D+00 EMaxC= 1.00D-01 BMatC= 6.77D-14 BMatP= 6.92D-14
 IDIUse=1 WtCom= 1.00D+00 WtEn= 0.00D+00
 Large coefficients: NSaved= 16 BigCof=    0.00 CofMax=   10.00 Det=-1.74D-15
 Inversion failed.  Reducing to 15 matrices.
 Coeff-Com: -0.641D-04-0.613D-03 0.335D-02 0.595D-02-0.209D-01-0.631D-01
 Coeff-Com:  0.462D+00-0.631D+00 0.519D-02 0.200D+00 0.607D-01 0.206D+01
 Coeff-Com: -0.227D+01 0.666D+00 0.525D+00
 Coeff:     -0.641D-04-0.613D-03 0.335D-02 0.595D-02-0.209D-01-0.631D-01
 Coeff:      0.462D+00-0.631D+00 0.519D-02 0.200D+00 0.607D-01 0.206D+01
 Coeff:     -0.227D+01 0.666D+00 0.525D+00
 Gap=     0.353 Goal=   None    Shift=    0.000
 RMSDP=3.89D-08 MaxDP=6.69D-06 DE=-1.42D-09 OVMax= 7.17D-09

 Cycle  21  Pass 1  IDiag  1:
 Restarting incremental Fock formation.
 E= -2967.64987795704     Delta-E=       -0.000000008904 Rises=F Damp=F
 DIIS: error= 7.62D-08 at cycle  21 NSaved=  16.
 NSaved=16 IEnMin=16 EnMin= -2967.64987795704     IErMin=15 ErrMin= 5.22D-09
 ErrMax= 7.62D-08  0.00D+00 EMaxC= 1.00D-01 BMatC= 8.59D-12 BMatP= 6.77D-14
 IDIUse=1 WtCom= 1.00D+00 WtEn= 0.00D+00
 Large coefficients: NSaved= 16 BigCof=    0.00 CofMax=   10.00 Det=-1.56D-15
 Inversion failed.  Reducing to 15 matrices.
 Coeff-Com: -0.111D-02 0.232D-02 0.847D-02-0.170D-01-0.871D-01 0.260D+00
 Coeff-Com: -0.202D+00 0.864D-01 0.113D+00 0.872D-02 0.100D+01-0.905D+00
 Coeff-Com:  0.428D+00 0.240D+00 0.631D-01
 Coeff:     -0.111D-02 0.232D-02 0.847D-02-0.170D-01-0.871D-01 0.260D+00
 Coeff:     -0.202D+00 0.864D-01 0.113D+00 0.872D-02 0.100D+01-0.905D+00
 Coeff:      0.428D+00 0.240D+00 0.631D-01
 Gap=     0.353 Goal=   None    Shift=    0.000
 RMSDP=1.47D-07 MaxDP=2.11D-05 DE=-8.90D-09 OVMax= 2.33D-08

 Cycle  22  Pass 1  IDiag  1:
 RMSU=  1.47D-07    CP:  1.00D+00
 E= -2967.64987795571     Delta-E=        0.000000001332 Rises=F Damp=F
 DIIS: error= 7.61D-08 at cycle  22 NSaved=  16.
 NSaved=16 IEnMin=15 EnMin= -2967.64987795704     IErMin=14 ErrMin= 5.22D-09
 ErrMax= 7.61D-08  0.00D+00 EMaxC= 1.00D-01 BMatC= 8.31D-12 BMatP= 6.77D-14
 IDIUse=1 WtCom= 1.00D+00 WtEn= 0.00D+00
 Large coefficients: NSaved= 16 BigCof=    0.00 CofMax=   10.00 Det=-8.46D-16
 Inversion failed.  Reducing to 15 matrices.
 Coeff-Com: -0.104D-02 0.145D-02 0.790D-02-0.120D-01-0.826D-01 0.123D+00
 Coeff-Com:  0.526D+00-0.562D-01-0.152D+00-0.105D+00 0.489D+00 0.114D+00
 Coeff-Com:  0.535D-01-0.558D+00 0.652D+00
 Coeff:     -0.104D-02 0.145D-02 0.790D-02-0.120D-01-0.826D-01 0.123D+00
 Coeff:      0.526D+00-0.562D-01-0.152D+00-0.105D+00 0.489D+00 0.114D+00
 Coeff:      0.535D-01-0.558D+00 0.652D+00
 Gap=     0.353 Goal=   None    Shift=    0.000
 RMSDP=3.23D-07 MaxDP=2.78D-05 DE= 1.33D-09 OVMax= 4.87D-08

 Cycle  23  Pass 1  IDiag  1:
 RMSU=  1.25D-07    CP:  1.00D+00  3.00D+00
 E= -2967.64987795540     Delta-E=        0.000000000315 Rises=F Damp=F
 DIIS: error= 7.59D-08 at cycle  23 NSaved=  16.
 NSaved=16 IEnMin=14 EnMin= -2967.64987795704     IErMin=13 ErrMin= 5.22D-09
 ErrMax= 7.59D-08  0.00D+00 EMaxC= 1.00D-01 BMatC= 8.03D-12 BMatP= 6.77D-14
 IDIUse=1 WtCom= 1.00D+00 WtEn= 0.00D+00
 Large coefficients: NSaved= 16 BigCof=    0.00 CofMax=   10.00 Det=-1.06D-15
 Inversion failed.  Reducing to 15 matrices.
 Coeff-Com: -0.906D-03 0.205D-02 0.736D-02-0.156D-01-0.748D-01 0.244D+00
 Coeff-Com:  0.133D+00 0.417D-01 0.258D+00-0.825D-01 0.257D+00 0.156D+00
 Coeff-Com: -0.764D+00 0.123D+01-0.391D+00
 Coeff:     -0.906D-03 0.205D-02 0.736D-02-0.156D-01-0.748D-01 0.244D+00
 Coeff:      0.133D+00 0.417D-01 0.258D+00-0.825D-01 0.257D+00 0.156D+00
 Coeff:     -0.764D+00 0.123D+01-0.391D+00
 Gap=     0.353 Goal=   None    Shift=    0.000
 RMSDP=2.70D-07 MaxDP=1.80D-05 DE= 3.15D-10 OVMax= 3.94D-08

 Cycle  24  Pass 1  IDiag  1:
 RMSU=  2.29D-08    CP:  1.00D+00  1.42D+00 -4.08D-02
 E= -2967.64987795553     Delta-E=       -0.000000000127 Rises=F Damp=F
 DIIS: error= 7.61D-08 at cycle  24 NSaved=  16.
 NSaved=16 IEnMin=13 EnMin= -2967.64987795704     IErMin=12 ErrMin= 5.22D-09
 ErrMax= 7.61D-08  0.00D+00 EMaxC= 1.00D-01 BMatC= 8.26D-12 BMatP= 6.77D-14
 IDIUse=1 WtCom= 1.00D+00 WtEn= 0.00D+00
 Large coefficients: NSaved= 16 BigCof=    0.00 CofMax=   10.00 Det=-1.04D-15
 Inversion failed.  Reducing to 15 matrices.
 Coeff-Com: -0.837D-03 0.240D-02 0.716D-02-0.179D-01-0.746D-01 0.302D+00
 Coeff-Com:  0.489D-01 0.327D+00-0.115D+00 0.317D+00 0.131D+00-0.798D+00
 Coeff-Com:  0.113D+01-0.463D+00 0.199D+00
 Coeff:     -0.837D-03 0.240D-02 0.716D-02-0.179D-01-0.746D-01 0.302D+00
 Coeff:      0.489D-01 0.327D+00-0.115D+00 0.317D+00 0.131D+00-0.798D+00
 Coeff:      0.113D+01-0.463D+00 0.199D+00
 Gap=     0.353 Goal=   None    Shift=    0.000
 RMSDP=2.56D-08 MaxDP=1.44D-06 DE=-1.27D-10 OVMax= 3.93D-09

 Cycle  25  Pass 1  IDiag  1:
 RMSU=  8.04D-09    CP:  1.00D+00  1.30D+00 -1.65D-01  1.15D+00
 E= -2967.64987795562     Delta-E=       -0.000000000093 Rises=F Damp=F
 DIIS: error= 7.60D-08 at cycle  25 NSaved=  16.
 NSaved=16 IEnMin=12 EnMin= -2967.64987795704     IErMin=11 ErrMin= 5.22D-09
 ErrMax= 7.60D-08  0.00D+00 EMaxC= 1.00D-01 BMatC= 8.30D-12 BMatP= 6.77D-14
 IDIUse=1 WtCom= 1.00D+00 WtEn= 0.00D+00
 Large coefficients: NSaved= 16 BigCof=    0.00 CofMax=   10.00 Det=-1.00D-15
 Inversion failed.  Reducing to 15 matrices.
 Coeff-Com: -0.835D-03 0.245D-02 0.718D-02-0.181D-01-0.749D-01 0.308D+00
 Coeff-Com:  0.297D+00-0.398D-02 0.300D+00 0.110D+00-0.837D+00 0.123D+01
 Coeff-Com: -0.491D+00 0.342D+00-0.168D+00
 Coeff:     -0.835D-03 0.245D-02 0.718D-02-0.181D-01-0.749D-01 0.308D+00
 Coeff:      0.297D+00-0.398D-02 0.300D+00 0.110D+00-0.837D+00 0.123D+01
 Coeff:     -0.491D+00 0.342D+00-0.168D+00
 Gap=     0.353 Goal=   None    Shift=    0.000
 RMSDP=5.05D-09 MaxDP=6.59D-07 DE=-9.28D-11 OVMax= 8.71D-10

 Error on total polarization charges =  0.02252
 SCF Done:  E(RHF) =  -2967.64987796     A.U. after   25 cycles
            NFock= 25  Conv=0.50D-08     -V/T= 2.0002
 KE= 2.967106627272D+03 PE=-2.980922017269D+04 EE= 1.243111153078D+04
 Leave Link  502 at Sat Oct 30 09:42:35 2021, MaxMem=  7864320000 cpu:          508896.8 elap:           16049.8
 (Enter /apps/gaussian/g16-c01-avx/g16/l508.exe)
 QCSCF skips out because SCF is already converged.
 Leave Link  508 at Sat Oct 30 09:42:36 2021, MaxMem=  7864320000 cpu:               0.0 elap:               0.0
 (Enter /apps/gaussian/g16-c01-avx/g16/l801.exe)
 ExpMin= 2.97D-02 ExpMax= 9.05D+03 ExpMxC= 3.09D+02 IAcc=3 IRadAn=         7 AccDes= 0.00D+00
 HarFok:  IExCor=  205 AccDes= 0.00D+00 IRadAn=         7 IDoV=-2 UseB2=F ITyADJ=14
 ICtDFT= 12500011 ScaDFX=  1.000000  1.000000  1.000000  1.000000
 GSVD:  LWork=       -5760 too small for GESVD, short by       27000 words or       27000 for optimal perf.
 Largest valence mixing into a core orbital is  1.19D-04
 Largest core mixing into a valence orbital is  4.67D-05
 Range of M.O.s used for correlation:    73  2286
 NBasis=  2304 NAE=   258 NBE=   258 NFC=    72 NFV=     0
 NROrb=   2214 NOA=   186 NOB=   186 NVA=  2028 NVB=  2028

 **** Warning!!: The largest alpha MO coefficient is  0.15205785D+03

 Leave Link  801 at Sat Oct 30 09:42:37 2021, MaxMem=  7864320000 cpu:              30.6 elap:               1.0
 (Enter /apps/gaussian/g16-c01-avx/g16/l906.exe)
 FulOut=F Deriv=F AODrv=F NAtomX=   144
   MMem=           0  MDisk=         186 MDiskD=         186
  W3Min=   923405184 MinDsk=   815967032 NBas6D=        2448
 NBas2D=     3000816    NTT=     2997576    LW2=     2000000
    MDV=  7838626108 MDiskM=       44461 NBas2p=     1851154
 Disk-based method using OVN memory for186 occupieds at a time.
 Estimated scratch disk usage=************ words.
 IMap=   1   2   3   4   5   6   7   8   9  10  11  12  13  14  15  16  17  18  19  20
 IMap=  21  22  23  24  25  26  27  28  29  30  31  32  33  34  35  36  37  38  39  40
 IMap=  41  42  43  44  45  46  47  48  49  50  51  52  53  54  55  56  57  58  59  60
 IMap=  61  62  63  64  65  66  67  68  69  70  71  72  73  74  75  76  77  78  79  80
 IMap=  81  82  83  84  85  86  87  88  89  90  91  92  93  94  95  96  97  98  99 100
 IMap= 101 102 103 104 105 106 107 108 109 110 111 112 113 114 115 116 117 118 119 120
 IMap= 121 122 123 124 125 126 127 128 129 130 131 132 133 134 135 136 137 138 139 140
 IMap= 141 142 143 144 145 146 147 148 149 150 151 152 153 154 155 156 157 158 159 160
 IMap= 161 162 163 164 165 166 167 168 169 170 171 172 173 174 175 176 177 178 179 180
 IMap= 181 182 183 184 185 186
 Actual    scratch disk usage=************ words.
 JobTyp=1 Pass  1:  I=   1 to 186 NPSUse= 32 ParTrn=T ParDer=T DoDerP=F.
