 Entering Gaussian System, Link 0=g16
 Initial command:
 /apps/gaussian/g16-c01-avx/g16/l1.exe "/rds/general/ephemeral/user/atarzia/ephemeral/xtb_spe_DFT/Gau-1292479.inp" -scrdir="/rds/general/ephemeral/user/atarzia/ephemeral/xtb_spe_DFT/"
 Entering Link 1 = /apps/gaussian/g16-c01-avx/g16/l1.exe PID=   1292480.
  
 Copyright (c) 1988-2019, Gaussian, Inc.  All Rights Reserved.
  
 This is part of the Gaussian(R) 16 program.  It is based on
 the Gaussian(R) 09 system (copyright 2009, Gaussian, Inc.),
 the Gaussian(R) 03 system (copyright 2003, Gaussian, Inc.),
 the Gaussian(R) 98 system (copyright 1998, Gaussian, Inc.),
 the Gaussian(R) 94 system (copyright 1995, Gaussian, Inc.),
 the Gaussian 92(TM) system (copyright 1992, Gaussian, Inc.),
 the Gaussian 90(TM) system (copyright 1990, Gaussian, Inc.),
 the Gaussian 88(TM) system (copyright 1988, Gaussian, Inc.),
 the Gaussian 86(TM) system (copyright 1986, Carnegie Mellon
 University), and the Gaussian 82(TM) system (copyright 1983,
 Carnegie Mellon University). Gaussian is a federally registered
 trademark of Gaussian, Inc.
  
 This software contains proprietary and confidential information,
 including trade secrets, belonging to Gaussian, Inc.
  
 This software is provided under written license and may be
 used, copied, transmitted, or stored only in accord with that
 written license.
  
 The following legend is applicable only to US Government
 contracts under FAR:
  
                    RESTRICTED RIGHTS LEGEND
  
 Use, reproduction and disclosure by the US Government is
 subject to restrictions as set forth in subparagraphs (a)
 and (c) of the Commercial Computer Software - Restricted
 Rights clause in FAR 52.227-19.
  
 Gaussian, Inc.
 340 Quinnipiac St., Bldg. 40, Wallingford CT 06492
  
  
 ---------------------------------------------------------------
 Warning -- This program may not be used in any manner that
 competes with the business of Gaussian, Inc. or will provide
 assistance to any competitor of Gaussian, Inc.  The licensee
 of this program is prohibited from giving any competitor of
 Gaussian, Inc. access to this program.  By using this program,
 the user acknowledges that Gaussian, Inc. is engaged in the
 business of creating and licensing software in the field of
 computational chemistry and represents and warrants to the
 licensee that it is not a competitor of Gaussian, Inc. and that
 it will not use this program in any manner prohibited above.
 ---------------------------------------------------------------
  

 Cite this work as:
 Gaussian 16, Revision C.01,
 M. J. Frisch, G. W. Trucks, H. B. Schlegel, G. E. Scuseria, 
 M. A. Robb, J. R. Cheeseman, G. Scalmani, V. Barone, 
 G. A. Petersson, H. Nakatsuji, X. Li, M. Caricato, A. V. Marenich, 
 J. Bloino, B. G. Janesko, R. Gomperts, B. Mennucci, H. P. Hratchian, 
 J. V. Ortiz, A. F. Izmaylov, J. L. Sonnenberg, D. Williams-Young, 
 F. Ding, F. Lipparini, F. Egidi, J. Goings, B. Peng, A. Petrone, 
 T. Henderson, D. Ranasinghe, V. G. Zakrzewski, J. Gao, N. Rega, 
 G. Zheng, W. Liang, M. Hada, M. Ehara, K. Toyota, R. Fukuda, 
 J. Hasegawa, M. Ishida, T. Nakajima, Y. Honda, O. Kitao, H. Nakai, 
 T. Vreven, K. Throssell, J. A. Montgomery, Jr., J. E. Peralta, 
 F. Ogliaro, M. J. Bearpark, J. J. Heyd, E. N. Brothers, K. N. Kudin, 
 V. N. Staroverov, T. A. Keith, R. Kobayashi, J. Normand, 
 K. Raghavachari, A. P. Rendell, J. C. Burant, S. S. Iyengar, 
 J. Tomasi, M. Cossi, J. M. Millam, M. Klene, C. Adamo, R. Cammi, 
 J. W. Ochterski, R. L. Martin, K. Morokuma, O. Farkas, 
 J. B. Foresman, and D. J. Fox, Gaussian, Inc., Wallingford CT, 2019.
 
 ******************************************
 Gaussian 16:  ES64L-G16RevC.01  3-Jul-2019
                26-Oct-2021 
 ******************************************
 %chk=_4_alde1_6_ami3_1_opt_gas_mp2.chk
 %mem=60000mb
 %nprocshared=32
 Will use up to   32 processors via shared memory.
 ---------------------------------------------------------------------
 #P MP2/aug-cc-pVDZ SP SCF=(YQC,MaxCycle=900) int=(Grid=Superfinegrid)
 ---------------------------------------------------------------------
 1/38=1,172=1/1;
 2/12=2,17=6,18=5,40=1/2;
 3/5=16,7=10,11=9,25=1,30=1,75=-7/1,2,3;
 4//1;
 5/5=2,7=900,8=4,13=1,38=1/8,2,8;
 8/10=1/1;
 9/16=-3/6;
 6/7=2,8=2,9=2,10=2/1;
 99/5=1,9=1/99;
 Leave Link    1 at Tue Oct 26 15:24:34 2021, MaxMem=  7864320000 cpu:               6.1 elap:               0.2
 (Enter /apps/gaussian/g16-c01-avx/g16/l101.exe)
 -----------------------------
 _4_alde1_6_ami3_1_opt_gas_mp2
 -----------------------------
 Symbolic Z-matrix:
 Charge =  0 Multiplicity = 1
 C                    -1.3617   -0.3363    4.0772 
 C                    -2.7717   -0.698     4.1104 
 C                    -0.985     1.0014    4.069 
 C                     0.3628    1.3606    4.0764 
 H                    -1.7234    1.7885    4.0711 
 C                     1.333     0.3656    4.0819 
 C                     0.9701   -0.9813    4.0902 
 H                     2.3838    0.6116    4.0942 
 C                    -0.3767   -1.324     4.0827 
 C                     1.9883   -2.0211    4.137 
 H                    -0.6892   -2.357     4.0953 
 C                     0.754     2.7628    4.1088 
 H                     1.6278   -3.0508    3.9877 
 H                    -3.4816    0.1284    3.9507 
 H                     1.8262    2.964     3.9596 
 C                    -3.5094   -2.4793   -0.0849 
 C                    -3.7494   -3.0691    1.2245 
 C                    -2.7304   -3.1513   -1.0193 
 C                    -2.525    -2.616    -2.2909 
 H                    -2.2809   -4.1048   -0.7878 
 C                    -3.0996   -1.3931   -2.6161 
 C                    -3.8839   -0.707    -1.6887 
 H                    -2.9645   -0.9559   -3.5935 
 C                    -4.0799   -1.2528   -0.4257 
 C                    -4.5174    0.5543   -2.0464 
 H                    -4.6866   -0.7492    0.3113 
 C                    -1.7421   -3.3422   -3.2807 
 H                    -4.9882    1.1055   -1.2176 
 H                    -3.1434   -3.9557    1.4677 
 H                    -1.4986   -2.7868   -4.1997 
 C                     3.9091   -1.8151   -0.0566 
 C                     4.5371   -1.7139    1.2531 
 C                     4.1037   -0.8146   -1.0014 
 C                     3.5401   -0.918    -2.2731 
 H                     4.7043    0.0538   -0.778 
 C                     2.7691   -2.0305   -2.5881 
 C                     2.5649   -3.0427   -1.6502 
 H                     2.325    -2.1426   -3.5653 
 C                     3.1329   -2.926    -0.3871 
 C                     1.7901   -4.2259   -1.9967 
 H                     2.9984   -3.6953    0.3579 
 C                     3.7799    0.1125   -3.2735 
 H                     1.5466   -4.9002   -1.1611 
 H                     5.0016   -0.7433    1.4868 
 H                     3.1792    0.036    -4.1931 
 C                    -0.376     4.2769   -0.1037 
 C                    -0.7809    4.7842    1.1997 
 C                    -1.3373    3.9348   -1.0472 
 C                    -0.9626    3.4847   -2.3132 
 H                    -2.3902    4.0229   -0.8274 
 C                     0.3871    3.37     -2.6235 
 C                     1.3634    3.7095   -1.6867 
 H                     0.7087    3.0308   -3.5963 
 C                     0.9751    4.1566   -0.4294 
 C                     2.7763    3.6265   -2.0289 
 H                     1.7065    4.433     0.3145 
 C                    -1.9723    3.1661   -3.3128 
 H                     3.48      3.7615   -1.1928 
 H                    -1.8542    4.703     1.4319 
 H                    -1.6033    2.674    -4.226 
 C                    -4.5443   -2.1913    4.3828 
 C                    -4.8392   -3.2296    3.2814 
 N                    -3.1507   -1.8786    4.3373 
 N                    -4.6179   -2.6088    2.0135 
 C                    -6.3021   -3.6737    3.3641 
 H                    -4.1721   -4.0966    3.4387 
 C                    -6.6207   -4.2546    4.7363 
 H                    -6.4896   -4.4137    2.5831 
 H                    -6.9361   -2.8081    3.1644 
 C                    -6.3269   -3.23      5.8268 
 H                    -6.0128   -5.1468    4.9036 
 H                    -7.6707   -4.5516    4.7737 
 C                    -4.8717   -2.7837    5.7562 
 H                    -6.5311   -3.6594    6.8097 
 H                    -6.9798   -2.3639    5.6961 
 H                    -4.208    -3.632     5.9318 
 H                    -4.6651   -2.0324    6.5214 
 H                    -5.1736   -1.3025    4.195 
 C                     4.1671   -2.8067    4.4228 
 C                     5.2162   -2.5551    3.3208 
 N                     3.1997   -1.7567    4.3637 
 N                     4.5706   -2.6876    2.0529 
 C                     6.3318   -3.5993    3.4174 
 H                     5.6333   -1.5424    3.4681 
 C                     6.9912   -3.5699    4.7907 
 H                     7.0681   -3.4003    2.6357 
 H                     5.8994   -4.5832    3.2274 
 C                     5.9546   -3.8157    5.8818 
 H                     7.4598   -2.5957    4.9484 
 H                     7.7732   -4.3305    4.8381 
 C                     4.8409   -2.7793    5.7974 
 H                     6.4265   -3.7672    6.8652 
 H                     5.5311   -4.8154    5.7611 
 H                     5.2435   -1.7785    5.963 
 H                     4.0852   -2.9674    6.5631 
 H                     3.7123   -3.7981    4.2448 
 C                     0.3435    5.0454    4.369 
 C                    -0.397     5.8157    3.2571 
 N                    -0.0814    3.6818    4.3239 
 N                     0.0435    5.3093    1.9956 
 C                    -0.0517    7.3051    3.3382 
 H                    -1.4829    5.6715    3.4036 
 C                    -0.41      7.8761    4.7047 
 H                    -0.5909    7.8344    2.5497 
 H                     1.0169    7.4212    3.1492 
 C                     0.3194    7.1136    5.8056 
 H                    -1.4883    7.7958    4.861 
 H                    -0.1431    8.9342    4.7411 
 C                    -0.0202    5.6299    5.7366 
 H                     0.0392    7.5085    6.7842 
 H                     1.3971    7.2461    5.6856 
 H                    -1.0885    5.4793    5.9018 
 H                     0.5194    5.0782    6.5095 
 H                     1.4298    5.1457    4.1921 
 C                    -0.6426   -5.2277   -4.1067 
 C                     0.7047   -5.6543   -3.4895 
 N                    -1.3931   -4.5404   -3.1037 
 N                     1.4478   -4.4724   -3.1845 
 C                     1.4977   -6.4886   -4.4991 
 H                     0.4943   -6.2547   -2.5859 
 C                     0.706    -7.7144   -4.9377 
 H                     2.4433   -6.7881   -4.042 
 H                     1.7268   -5.8592   -5.3608 
 C                    -0.6279   -7.2943   -5.5457 
 H                     0.5242   -8.3581   -4.074 
 H                     1.2869   -8.2846   -5.6655 
 C                    -1.4276   -6.4663   -4.5474 
 H                    -1.2031   -8.1764   -5.834 
 H                    -0.4459   -6.7026   -6.4459 
 H                    -1.6568   -7.0613   -3.6617 
 H                    -2.3732   -6.1444   -4.9889 
 H                    -0.4325   -4.5835   -4.9797 
 C                    -5.1958    2.203    -3.5526 
 C                    -4.1459    3.154    -4.1623 
 N                    -4.5473    0.9697   -3.2361 
 N                    -3.1862    3.464    -3.1502 
 C                    -4.821     4.4515   -4.6154 
 H                    -3.6838    2.6464   -5.0284 
 C                    -5.9272    4.1692   -5.6245 
 H                    -4.0645    5.1076   -5.0513 
 H                    -5.231     4.951    -3.7359 
 C                    -6.9647    3.2267   -5.0239 
 H                    -5.4963    3.7122   -6.5183 
 H                    -6.4002    5.1074   -5.9216 
 C                    -6.3041    1.9298   -4.5731 
 H                    -7.7412    3.0061   -5.7591 
 H                    -7.4404    3.7095   -4.1671 
 H                    -5.8645    1.4132   -5.4281 
 H                    -7.0412    1.2626   -4.1212 
 H                    -5.6201    2.6889   -2.6553 
 C                     4.8653    1.9985   -4.1169 
 C                     4.5597    3.385    -3.5148 
 N                     4.6428    1.0155   -3.1041 
 N                     3.1639    3.4408   -3.2138 
 C                     4.8883    4.4784   -4.535 
 H                     5.1827    3.5123   -2.6109 
 C                     6.3467    4.4009   -4.9693 
 H                     4.6739    5.4517   -4.0884 
 H                     4.2308    4.3532   -5.397 
 C                     6.6512    3.0295   -5.5624 
 H                     6.9931    4.5742   -4.1057 
 H                     6.552     5.1815   -5.7046 
 C                     6.3314    1.9333   -4.5535 
 H                     7.7034    2.9693   -5.8476 
 H                     6.0499    2.882    -6.4625 
 H                     6.9592    2.0413   -3.6673 
 H                     6.5264    0.9489   -4.9844 
 H                     4.2043    1.8494   -4.9899 
 
 ITRead=  0  0  0  0  0  0  0  0  0  0  0  0  0  0  0  0  0  0  0  0
 ITRead=  0  0  0  0  0  0  0  0  0  0  0  0  0  0  0  0  0  0  0  0
 ITRead=  0  0  0  0  0  0  0  0  0  0  0  0  0  0  0  0  0  0  0  0
 ITRead=  0  0  0  0  0  0  0  0  0  0  0  0  0  0  0  0  0  0  0  0
 ITRead=  0  0  0  0  0  0  0  0  0  0  0  0  0  0  0  0  0  0  0  0
 ITRead=  0  0  0  0  0  0  0  0  0  0  0  0  0  0  0  0  0  0  0  0
 ITRead=  0  0  0  0  0  0  0  0  0  0  0  0  0  0  0  0  0  0  0  0
 ITRead=  0  0  0  0  0  0  0  0  0  0  0  0  0  0  0  0  0  0  0  0
 ITRead=  0  0  0  0  0  0  0  0
 MicOpt= -1 -1 -1 -1 -1 -1 -1 -1 -1 -1 -1 -1 -1 -1 -1 -1 -1 -1 -1 -1
 MicOpt= -1 -1 -1 -1 -1 -1 -1 -1 -1 -1 -1 -1 -1 -1 -1 -1 -1 -1 -1 -1
 MicOpt= -1 -1 -1 -1 -1 -1 -1 -1 -1 -1 -1 -1 -1 -1 -1 -1 -1 -1 -1 -1
 MicOpt= -1 -1 -1 -1 -1 -1 -1 -1 -1 -1 -1 -1 -1 -1 -1 -1 -1 -1 -1 -1
 MicOpt= -1 -1 -1 -1 -1 -1 -1 -1 -1 -1 -1 -1 -1 -1 -1 -1 -1 -1 -1 -1
 MicOpt= -1 -1 -1 -1 -1 -1 -1 -1 -1 -1 -1 -1 -1 -1 -1 -1 -1 -1 -1 -1
 MicOpt= -1 -1 -1 -1 -1 -1 -1 -1 -1 -1 -1 -1 -1 -1 -1 -1 -1 -1 -1 -1
 MicOpt= -1 -1 -1 -1 -1 -1 -1 -1 -1 -1 -1 -1 -1 -1 -1 -1 -1 -1 -1 -1
 MicOpt= -1 -1 -1 -1 -1 -1 -1 -1
 NAtoms=    168 NQM=      168 NQMF=       0 NMMI=      0 NMMIF=      0
                NMic=       0 NMicF=      0.
                    Isotopes and Nuclear Properties:
 (Nuclear quadrupole moments (NQMom) in fm**2, nuclear magnetic moments (NMagM)
  in nuclear magnetons)

  Atom         1           2           3           4           5           6           7           8           9          10
 IAtWgt=          12          12          12          12           1          12          12           1          12          12
 AtmWgt=  12.0000000  12.0000000  12.0000000  12.0000000   1.0078250  12.0000000  12.0000000   1.0078250  12.0000000  12.0000000
 NucSpn=           0           0           0           0           1           0           0           1           0           0
 AtZEff=  -0.0000000  -0.0000000  -0.0000000  -0.0000000  -0.0000000  -0.0000000  -0.0000000  -0.0000000  -0.0000000  -0.0000000
 NQMom=    0.0000000   0.0000000   0.0000000   0.0000000   0.0000000   0.0000000   0.0000000   0.0000000   0.0000000   0.0000000
 NMagM=    0.0000000   0.0000000   0.0000000   0.0000000   2.7928460   0.0000000   0.0000000   2.7928460   0.0000000   0.0000000
 AtZNuc=   6.0000000   6.0000000   6.0000000   6.0000000   1.0000000   6.0000000   6.0000000   1.0000000   6.0000000   6.0000000

  Atom        11          12          13          14          15          16          17          18          19          20
 IAtWgt=           1          12           1           1           1          12          12          12          12           1
 AtmWgt=   1.0078250  12.0000000   1.0078250   1.0078250   1.0078250  12.0000000  12.0000000  12.0000000  12.0000000   1.0078250
 NucSpn=           1           0           1           1           1           0           0           0           0           1
 AtZEff=  -0.0000000  -0.0000000  -0.0000000  -0.0000000  -0.0000000  -0.0000000  -0.0000000  -0.0000000  -0.0000000  -0.0000000
 NQMom=    0.0000000   0.0000000   0.0000000   0.0000000   0.0000000   0.0000000   0.0000000   0.0000000   0.0000000   0.0000000
 NMagM=    2.7928460   0.0000000   2.7928460   2.7928460   2.7928460   0.0000000   0.0000000   0.0000000   0.0000000   2.7928460
 AtZNuc=   1.0000000   6.0000000   1.0000000   1.0000000   1.0000000   6.0000000   6.0000000   6.0000000   6.0000000   1.0000000

  Atom        21          22          23          24          25          26          27          28          29          30
 IAtWgt=          12          12           1          12          12           1          12           1           1           1
 AtmWgt=  12.0000000  12.0000000   1.0078250  12.0000000  12.0000000   1.0078250  12.0000000   1.0078250   1.0078250   1.0078250
 NucSpn=           0           0           1           0           0           1           0           1           1           1
 AtZEff=  -0.0000000  -0.0000000  -0.0000000  -0.0000000  -0.0000000  -0.0000000  -0.0000000  -0.0000000  -0.0000000  -0.0000000
 NQMom=    0.0000000   0.0000000   0.0000000   0.0000000   0.0000000   0.0000000   0.0000000   0.0000000   0.0000000   0.0000000
 NMagM=    0.0000000   0.0000000   2.7928460   0.0000000   0.0000000   2.7928460   0.0000000   2.7928460   2.7928460   2.7928460
 AtZNuc=   6.0000000   6.0000000   1.0000000   6.0000000   6.0000000   1.0000000   6.0000000   1.0000000   1.0000000   1.0000000

  Atom        31          32          33          34          35          36          37          38          39          40
 IAtWgt=          12          12          12          12           1          12          12           1          12          12
 AtmWgt=  12.0000000  12.0000000  12.0000000  12.0000000   1.0078250  12.0000000  12.0000000   1.0078250  12.0000000  12.0000000
 NucSpn=           0           0           0           0           1           0           0           1           0           0
 AtZEff=  -0.0000000  -0.0000000  -0.0000000  -0.0000000  -0.0000000  -0.0000000  -0.0000000  -0.0000000  -0.0000000  -0.0000000
 NQMom=    0.0000000   0.0000000   0.0000000   0.0000000   0.0000000   0.0000000   0.0000000   0.0000000   0.0000000   0.0000000
 NMagM=    0.0000000   0.0000000   0.0000000   0.0000000   2.7928460   0.0000000   0.0000000   2.7928460   0.0000000   0.0000000
 AtZNuc=   6.0000000   6.0000000   6.0000000   6.0000000   1.0000000   6.0000000   6.0000000   1.0000000   6.0000000   6.0000000

  Atom        41          42          43          44          45          46          47          48          49          50
 IAtWgt=           1          12           1           1           1          12          12          12          12           1
 AtmWgt=   1.0078250  12.0000000   1.0078250   1.0078250   1.0078250  12.0000000  12.0000000  12.0000000  12.0000000   1.0078250
 NucSpn=           1           0           1           1           1           0           0           0           0           1
 AtZEff=  -0.0000000  -0.0000000  -0.0000000  -0.0000000  -0.0000000  -0.0000000  -0.0000000  -0.0000000  -0.0000000  -0.0000000
 NQMom=    0.0000000   0.0000000   0.0000000   0.0000000   0.0000000   0.0000000   0.0000000   0.0000000   0.0000000   0.0000000
 NMagM=    2.7928460   0.0000000   2.7928460   2.7928460   2.7928460   0.0000000   0.0000000   0.0000000   0.0000000   2.7928460
 AtZNuc=   1.0000000   6.0000000   1.0000000   1.0000000   1.0000000   6.0000000   6.0000000   6.0000000   6.0000000   1.0000000

  Atom        51          52          53          54          55          56          57          58          59          60
 IAtWgt=          12          12           1          12          12           1          12           1           1           1
 AtmWgt=  12.0000000  12.0000000   1.0078250  12.0000000  12.0000000   1.0078250  12.0000000   1.0078250   1.0078250   1.0078250
 NucSpn=           0           0           1           0           0           1           0           1           1           1
 AtZEff=  -0.0000000  -0.0000000  -0.0000000  -0.0000000  -0.0000000  -0.0000000  -0.0000000  -0.0000000  -0.0000000  -0.0000000
 NQMom=    0.0000000   0.0000000   0.0000000   0.0000000   0.0000000   0.0000000   0.0000000   0.0000000   0.0000000   0.0000000
 NMagM=    0.0000000   0.0000000   2.7928460   0.0000000   0.0000000   2.7928460   0.0000000   2.7928460   2.7928460   2.7928460
 AtZNuc=   6.0000000   6.0000000   1.0000000   6.0000000   6.0000000   1.0000000   6.0000000   1.0000000   1.0000000   1.0000000

  Atom        61          62          63          64          65          66          67          68          69          70
 IAtWgt=          12          12          14          14          12           1          12           1           1          12
 AtmWgt=  12.0000000  12.0000000  14.0030740  14.0030740  12.0000000   1.0078250  12.0000000   1.0078250   1.0078250  12.0000000
 NucSpn=           0           0           2           2           0           1           0           1           1           0
 AtZEff=  -0.0000000  -0.0000000  -0.0000000  -0.0000000  -0.0000000  -0.0000000  -0.0000000  -0.0000000  -0.0000000  -0.0000000
 NQMom=    0.0000000   0.0000000   2.0440000   2.0440000   0.0000000   0.0000000   0.0000000   0.0000000   0.0000000   0.0000000
 NMagM=    0.0000000   0.0000000   0.4037610   0.4037610   0.0000000   2.7928460   0.0000000   2.7928460   2.7928460   0.0000000
 AtZNuc=   6.0000000   6.0000000   7.0000000   7.0000000   6.0000000   1.0000000   6.0000000   1.0000000   1.0000000   6.0000000

  Atom        71          72          73          74          75          76          77          78          79          80
 IAtWgt=           1           1          12           1           1           1           1           1          12          12
 AtmWgt=   1.0078250   1.0078250  12.0000000   1.0078250   1.0078250   1.0078250   1.0078250   1.0078250  12.0000000  12.0000000
 NucSpn=           1           1           0           1           1           1           1           1           0           0
 AtZEff=  -0.0000000  -0.0000000  -0.0000000  -0.0000000  -0.0000000  -0.0000000  -0.0000000  -0.0000000  -0.0000000  -0.0000000
 NQMom=    0.0000000   0.0000000   0.0000000   0.0000000   0.0000000   0.0000000   0.0000000   0.0000000   0.0000000   0.0000000
 NMagM=    2.7928460   2.7928460   0.0000000   2.7928460   2.7928460   2.7928460   2.7928460   2.7928460   0.0000000   0.0000000
 AtZNuc=   1.0000000   1.0000000   6.0000000   1.0000000   1.0000000   1.0000000   1.0000000   1.0000000   6.0000000   6.0000000

  Atom        81          82          83          84          85          86          87          88          89          90
 IAtWgt=          14          14          12           1          12           1           1          12           1           1
 AtmWgt=  14.0030740  14.0030740  12.0000000   1.0078250  12.0000000   1.0078250   1.0078250  12.0000000   1.0078250   1.0078250
 NucSpn=           2           2           0           1           0           1           1           0           1           1
 AtZEff=  -0.0000000  -0.0000000  -0.0000000  -0.0000000  -0.0000000  -0.0000000  -0.0000000  -0.0000000  -0.0000000  -0.0000000
 NQMom=    2.0440000   2.0440000   0.0000000   0.0000000   0.0000000   0.0000000   0.0000000   0.0000000   0.0000000   0.0000000
 NMagM=    0.4037610   0.4037610   0.0000000   2.7928460   0.0000000   2.7928460   2.7928460   0.0000000   2.7928460   2.7928460
 AtZNuc=   7.0000000   7.0000000   6.0000000   1.0000000   6.0000000   1.0000000   1.0000000   6.0000000   1.0000000   1.0000000

  Atom        91          92          93          94          95          96          97          98          99         100
 IAtWgt=          12           1           1           1           1           1          12          12          14          14
 AtmWgt=  12.0000000   1.0078250   1.0078250   1.0078250   1.0078250   1.0078250  12.0000000  12.0000000  14.0030740  14.0030740
 NucSpn=           0           1           1           1           1           1           0           0           2           2
 AtZEff=  -0.0000000  -0.0000000  -0.0000000  -0.0000000  -0.0000000  -0.0000000  -0.0000000  -0.0000000  -0.0000000  -0.0000000
 NQMom=    0.0000000   0.0000000   0.0000000   0.0000000   0.0000000   0.0000000   0.0000000   0.0000000   2.0440000   2.0440000
 NMagM=    0.0000000   2.7928460   2.7928460   2.7928460   2.7928460   2.7928460   0.0000000   0.0000000   0.4037610   0.4037610
 AtZNuc=   6.0000000   1.0000000   1.0000000   1.0000000   1.0000000   1.0000000   6.0000000   6.0000000   7.0000000   7.0000000

  Atom       101         102         103         104         105         106         107         108         109         110
 IAtWgt=          12           1          12           1           1          12           1           1          12           1
 AtmWgt=  12.0000000   1.0078250  12.0000000   1.0078250   1.0078250  12.0000000   1.0078250   1.0078250  12.0000000   1.0078250
 NucSpn=           0           1           0           1           1           0           1           1           0           1
 AtZEff=  -0.0000000  -0.0000000  -0.0000000  -0.0000000  -0.0000000  -0.0000000  -0.0000000  -0.0000000  -0.0000000  -0.0000000
 NQMom=    0.0000000   0.0000000   0.0000000   0.0000000   0.0000000   0.0000000   0.0000000   0.0000000   0.0000000   0.0000000
 NMagM=    0.0000000   2.7928460   0.0000000   2.7928460   2.7928460   0.0000000   2.7928460   2.7928460   0.0000000   2.7928460
 AtZNuc=   6.0000000   1.0000000   6.0000000   1.0000000   1.0000000   6.0000000   1.0000000   1.0000000   6.0000000   1.0000000

  Atom       111         112         113         114         115         116         117         118         119         120
 IAtWgt=           1           1           1           1          12          12          14          14          12           1
 AtmWgt=   1.0078250   1.0078250   1.0078250   1.0078250  12.0000000  12.0000000  14.0030740  14.0030740  12.0000000   1.0078250
 NucSpn=           1           1           1           1           0           0           2           2           0           1
 AtZEff=  -0.0000000  -0.0000000  -0.0000000  -0.0000000  -0.0000000  -0.0000000  -0.0000000  -0.0000000  -0.0000000  -0.0000000
 NQMom=    0.0000000   0.0000000   0.0000000   0.0000000   0.0000000   0.0000000   2.0440000   2.0440000   0.0000000   0.0000000
 NMagM=    2.7928460   2.7928460   2.7928460   2.7928460   0.0000000   0.0000000   0.4037610   0.4037610   0.0000000   2.7928460
 AtZNuc=   1.0000000   1.0000000   1.0000000   1.0000000   6.0000000   6.0000000   7.0000000   7.0000000   6.0000000   1.0000000

  Atom       121         122         123         124         125         126         127         128         129         130
 IAtWgt=          12           1           1          12           1           1          12           1           1           1
 AtmWgt=  12.0000000   1.0078250   1.0078250  12.0000000   1.0078250   1.0078250  12.0000000   1.0078250   1.0078250   1.0078250
 NucSpn=           0           1           1           0           1           1           0           1           1           1
 AtZEff=  -0.0000000  -0.0000000  -0.0000000  -0.0000000  -0.0000000  -0.0000000  -0.0000000  -0.0000000  -0.0000000  -0.0000000
 NQMom=    0.0000000   0.0000000   0.0000000   0.0000000   0.0000000   0.0000000   0.0000000   0.0000000   0.0000000   0.0000000
 NMagM=    0.0000000   2.7928460   2.7928460   0.0000000   2.7928460   2.7928460   0.0000000   2.7928460   2.7928460   2.7928460
 AtZNuc=   6.0000000   1.0000000   1.0000000   6.0000000   1.0000000   1.0000000   6.0000000   1.0000000   1.0000000   1.0000000

  Atom       131         132         133         134         135         136         137         138         139         140
 IAtWgt=           1           1          12          12          14          14          12           1          12           1
 AtmWgt=   1.0078250   1.0078250  12.0000000  12.0000000  14.0030740  14.0030740  12.0000000   1.0078250  12.0000000   1.0078250
 NucSpn=           1           1           0           0           2           2           0           1           0           1
 AtZEff=  -0.0000000  -0.0000000  -0.0000000  -0.0000000  -0.0000000  -0.0000000  -0.0000000  -0.0000000  -0.0000000  -0.0000000
 NQMom=    0.0000000   0.0000000   0.0000000   0.0000000   2.0440000   2.0440000   0.0000000   0.0000000   0.0000000   0.0000000
 NMagM=    2.7928460   2.7928460   0.0000000   0.0000000   0.4037610   0.4037610   0.0000000   2.7928460   0.0000000   2.7928460
 AtZNuc=   1.0000000   1.0000000   6.0000000   6.0000000   7.0000000   7.0000000   6.0000000   1.0000000   6.0000000   1.0000000

  Atom       141         142         143         144         145         146         147         148         149         150
 IAtWgt=           1          12           1           1          12           1           1           1           1           1
 AtmWgt=   1.0078250  12.0000000   1.0078250   1.0078250  12.0000000   1.0078250   1.0078250   1.0078250   1.0078250   1.0078250
 NucSpn=           1           0           1           1           0           1           1           1           1           1
 AtZEff=  -0.0000000  -0.0000000  -0.0000000  -0.0000000  -0.0000000  -0.0000000  -0.0000000  -0.0000000  -0.0000000  -0.0000000
 NQMom=    0.0000000   0.0000000   0.0000000   0.0000000   0.0000000   0.0000000   0.0000000   0.0000000   0.0000000   0.0000000
 NMagM=    2.7928460   0.0000000   2.7928460   2.7928460   0.0000000   2.7928460   2.7928460   2.7928460   2.7928460   2.7928460
 AtZNuc=   1.0000000   6.0000000   1.0000000   1.0000000   6.0000000   1.0000000   1.0000000   1.0000000   1.0000000   1.0000000

  Atom       151         152         153         154         155         156         157         158         159         160
 IAtWgt=          12          12          14          14          12           1          12           1           1          12
 AtmWgt=  12.0000000  12.0000000  14.0030740  14.0030740  12.0000000   1.0078250  12.0000000   1.0078250   1.0078250  12.0000000
 NucSpn=           0           0           2           2           0           1           0           1           1           0
 AtZEff=  -0.0000000  -0.0000000  -0.0000000  -0.0000000  -0.0000000  -0.0000000  -0.0000000  -0.0000000  -0.0000000  -0.0000000
 NQMom=    0.0000000   0.0000000   2.0440000   2.0440000   0.0000000   0.0000000   0.0000000   0.0000000   0.0000000   0.0000000
 NMagM=    0.0000000   0.0000000   0.4037610   0.4037610   0.0000000   2.7928460   0.0000000   2.7928460   2.7928460   0.0000000
 AtZNuc=   6.0000000   6.0000000   7.0000000   7.0000000   6.0000000   1.0000000   6.0000000   1.0000000   1.0000000   6.0000000

  Atom       161         162         163         164         165         166         167         168
 IAtWgt=           1           1          12           1           1           1           1           1
 AtmWgt=   1.0078250   1.0078250  12.0000000   1.0078250   1.0078250   1.0078250   1.0078250   1.0078250
 NucSpn=           1           1           0           1           1           1           1           1
 AtZEff=  -0.0000000  -0.0000000  -0.0000000  -0.0000000  -0.0000000  -0.0000000  -0.0000000  -0.0000000
 NQMom=    0.0000000   0.0000000   0.0000000   0.0000000   0.0000000   0.0000000   0.0000000   0.0000000
 NMagM=    2.7928460   2.7928460   0.0000000   2.7928460   2.7928460   2.7928460   2.7928460   2.7928460
 AtZNuc=   1.0000000   1.0000000   6.0000000   1.0000000   1.0000000   1.0000000   1.0000000   1.0000000
 Leave Link  101 at Tue Oct 26 15:24:35 2021, MaxMem=  7864320000 cpu:               3.4 elap:               0.1
 (Enter /apps/gaussian/g16-c01-avx/g16/l202.exe)
 Stoichiometry    C72H84N12
 Framework group  C1[X(C72H84N12)]
 Deg. of freedom   498
 Full point group                 C1      NOp   1
 Largest Abelian subgroup         C1      NOp   1
 Largest concise Abelian subgroup C1      NOp   1
                         Standard orientation:                         
 ---------------------------------------------------------------------
 Center     Atomic      Atomic             Coordinates (Angstroms)
 Number     Number       Type             X           Y           Z
 ---------------------------------------------------------------------
      1          6           0        3.988984   -1.059502   -1.229578
      2          6           0        3.950026   -2.149064   -2.194651
      3          6           0        4.086041   -1.334687    0.129195
      4          6           0        4.163232   -0.299252    1.060624
      5          1           0        4.118050   -2.350875    0.491275
      6          6           0        4.132124    1.018076    0.619009
      7          6           0        4.034990    1.309738   -0.741654
      8          1           0        4.196459    1.840891    1.314483
      9          6           0        3.958875    0.267664   -1.657982
     10          6           0        4.043557    2.690300   -1.204343
     11          1           0        3.889456    0.460955   -2.717569
     12          6           0        4.305720   -0.590885    2.480096
     13          1           0        3.811344    2.839057   -2.270402
     14          1           0        3.824386   -3.158141   -1.772301
     15          1           0        4.206642    0.271099    3.157977
     16          6           0       -0.380855   -2.000918   -3.788168
     17          6           0        0.875808   -1.942804   -4.521252
     18          6           0       -1.333078   -1.002943   -3.958009
     19          6           0       -2.556982   -1.066904   -3.291924
     20          1           0       -1.153337   -0.167445   -4.617132
     21          6           0       -2.815652   -2.136825   -2.443536
     22          6           0       -1.869609   -3.145964   -2.263059
     23          1           0       -3.755366   -2.218005   -1.919081
     24          6           0       -0.654693   -3.068864   -2.933521
     25          6           0       -2.159985   -4.285881   -1.404910
     26          1           0        0.094791   -3.837069   -2.819493
     27          6           0       -3.568065   -0.040836   -3.503816
     28          1           0       -1.311146   -4.954697   -1.193867
     29          1           0        1.077066   -0.998550   -5.050706
     30          1           0       -4.437750   -0.079377   -2.829661
     31          6           0       -0.059330    4.297301    0.174807
     32          6           0        1.274438    4.812500    0.449707
     33          6           0       -0.925533    4.012105    1.223555
     34          6           0       -2.219420    3.555290    0.973089
     35          1           0       -0.622611    4.150740    2.250086
     36          6           0       -2.636262    3.376227   -0.340495
     37          6           0       -1.778069    3.658205   -1.403461
     38          1           0       -3.633140    3.030291   -0.566933
     39          6           0       -0.491689    4.112850   -1.138532
     40          6           0       -2.231343    3.507958   -2.779073
     41          1           0        0.193326    4.345642   -1.939470
     42          6           0       -3.137473    3.296518    2.073293
     43          1           0       -1.453048    3.600588   -3.552298
     44          1           0        1.590173    4.783416    1.504177
     45          1           0       -4.079675    2.795103    1.802746
     46          6           0        0.172916   -2.295486    3.632840
     47          6           0        1.494106   -2.884704    3.798451
     48          6           0       -0.823537   -2.996632    2.964410
     49          6           0       -2.104482   -2.460313    2.832925
     50          1           0       -0.633382   -3.973306    2.546533
     51          6           0       -2.376818   -1.207577    3.369224
     52          6           0       -1.386725   -0.491910    4.042688
     53          1           0       -3.359517   -0.768537    3.289424
     54          6           0       -0.115116   -1.038978    4.165991
     55          6           0       -1.686564    0.802538    4.638321
     56          1           0        0.670112   -0.512817    4.686857
     57          6           0       -3.156853   -3.215360    2.167630
     58          1           0       -0.820129    1.368750    5.014055
     59          1           0        1.684216   -3.802258    3.220146
     60          1           0       -4.089142   -2.664260    1.969176
     61          6           0        4.059076   -3.044484   -4.346996
     62          6           0        2.879172   -2.835290   -5.317656
     63          7           0        4.081829   -1.947181   -3.431911
     64          7           0        1.665411   -2.924108   -4.568770
     65          6           0        2.882095   -3.934230   -6.383706
     66          1           0        2.998179   -1.845779   -5.795316
     67          6           0        4.199369   -3.949995   -7.149490
     68          1           0        2.045890   -3.764952   -7.065485
     69          1           0        2.721820   -4.893733   -5.888967
     70          6           0        5.367419   -4.153938   -6.190646
     71          1           0        4.324627   -3.001644   -7.677214
     72          1           0        4.181081   -4.748731   -7.893664
     73          6           0        5.376456   -3.062829   -5.127079
     74          1           0        6.310854   -4.137793   -6.740049
     75          1           0        5.275344   -5.130351   -5.709368
     76          1           0        5.514891   -2.084840   -5.591103
     77          1           0        6.198327   -3.220299   -4.425369
     78          1           0        3.912429   -4.010366   -3.830451
     79          6           0        4.346715    4.988082   -0.931741
     80          6           0        3.300378    5.804651   -0.146431
     81          7           0        4.328285    3.648045   -0.435940
     82          7           0        2.005531    5.288154   -0.460321
     83          6           0        3.361539    7.273987   -0.572528
     84          1           0        3.531305    5.714011    0.930457
     85          6           0        4.754792    7.850012   -0.351923
     86          1           0        2.620484    7.836843   -0.000843
     87          1           0        3.089524    7.337788   -1.627548
     88          6           0        5.791079    7.041898   -1.125562
     89          1           0        4.995138    7.822786    0.713447
     90          1           0        4.775426    8.893003   -0.674458
     91          6           0        5.741605    5.577835   -0.706457
     92          1           0        6.790659    7.441603   -0.943371
     93          1           0        5.587361    7.120963   -2.195874
     94          1           0        5.989470    5.479759    0.351869
     95          1           0        6.466816    4.992712   -1.276071
     96          1           0        4.085397    5.035396   -2.004530
     97          6           0        4.709603   -1.997162    4.298265
     98          6           0        3.629676   -3.009731    4.730104
     99          7           0        4.556004   -1.753154    2.898677
    100          7           0        2.351510   -2.389164    4.578272
    101          6           0        3.825231   -3.381900    6.202304
    102          1           0        3.729554   -3.909918    4.096763
    103          6           0        5.215301   -3.958593    6.440781
    104          1           0        3.057760   -4.104749    6.487093
    105          1           0        3.680455   -2.484368    6.806110
    106          6           0        6.284431   -2.959483    6.011656
    107          1           0        5.329630   -4.881155    5.866833
    108          1           0        5.333794   -4.203818    7.498118
    109          6           0        6.101525   -2.584819    4.546177
    110          1           0        7.278153   -3.387087    6.159263
    111          1           0        6.209891   -2.061201    6.628850
    112          1           0        6.220191   -3.466388    3.913730
    113          1           0        6.851904   -1.851423    4.242897
    114          1           0        4.576387   -1.076648    4.895180
    115          6           0       -4.485595    1.796241   -4.612677
    116          6           0       -3.854864    3.190969   -4.425453
    117          7           0       -3.462966    0.816779   -4.421565
    118          7           0       -3.444115    3.313520   -3.062230
    119          6           0       -4.892842    4.275310   -4.727126
    120          1           0       -3.002548    3.279466   -5.123282
    121          6           0       -5.441457    4.129283   -6.141142
    122          1           0       -4.426322    5.254286   -4.597642
    123          1           0       -5.700750    4.190302   -3.998280
    124          6           0       -6.063018    2.749462   -6.328742
    125          1           0       -4.630969    4.262908   -6.861303
    126          1           0       -6.187242    4.904936   -6.326701
    127          6           0       -5.036968    1.662012   -6.034838
    128          1           0       -6.430750    2.639553   -7.350880
    129          1           0       -6.913494    2.639670   -5.651816
    130          1           0       -4.202751    1.731281   -6.735057
    131          1           0       -5.486381    0.672846   -6.145649
    132          1           0       -5.304378    1.687552   -3.878480
    133          6           0       -3.570121   -5.644760   -0.135248
    134          6           0       -4.077134   -5.145640    1.233051
    135          7           0       -3.318382   -4.504352   -0.958564
    136          7           0       -3.014561   -4.431137    1.867004
    137          6           0       -4.461507   -6.339278    2.111716
    138          1           0       -4.960432   -4.504532    1.059595
    139          6           0       -5.524052   -7.196775    1.435439
    140          1           0       -4.825445   -5.966338    3.071525
    141          1           0       -3.563672   -6.930303    2.300666
    142          6           0       -5.025111   -7.688757    0.081023
    143          1           0       -6.432504   -6.606572    1.294802
    144          1           0       -5.771043   -8.046330    2.075336
    145          6           0       -4.643472   -6.508300   -0.803531
    146          1           0       -5.799302   -8.280493   -0.411533
    147          1           0       -4.153256   -8.330669    0.227005
    148          1           0       -5.517077   -5.883085   -0.996064
    149          1           0       -4.263704   -6.858881   -1.765589
    150          1           0       -2.655958   -6.242270    0.033762
    151          6           0       -3.811535    3.400146    4.305179
    152          6           0       -3.125348    2.496754    5.349847
    153          7           0       -2.877251    3.652663    3.254033
    154          7           0       -2.867902    1.229853    4.741032
    155          6           0       -4.055825    2.288261    6.547784
    156          1           0       -2.194537    2.994802    5.676814
    157          6           0       -4.445593    3.620506    7.176080
    158          1           0       -3.550264    1.654254    7.279341
    159          1           0       -4.945865    1.758637    6.203759
    160          6           0       -5.121797    4.516047    6.143616
    161          1           0       -3.550996    4.118308    7.557602
    162          1           0       -5.117794    3.445578    8.018515
    163          6           0       -4.202487    4.733626    4.948068
    164          1           0       -5.375249    5.479240    6.590951
    165          1           0       -6.049496    4.046532    5.808311
    166          1           0       -3.290501    5.244717    5.261459
    167          1           0       -4.693810    5.355466    4.196629
    168          1           0       -4.714315    2.878292    3.939204
 ---------------------------------------------------------------------
 Rotational constants (GHZ):           0.0160330           0.0160294           0.0160291
 Leave Link  202 at Tue Oct 26 15:24:35 2021, MaxMem=  7864320000 cpu:               0.4 elap:               0.0
 (Enter /apps/gaussian/g16-c01-avx/g16/l301.exe)
 Standard basis: Aug-CC-pVDZ (5D, 7F)
 Ernie: Thresh=  0.10000D-02 Tol=  0.10000D-05 Strict=F.
 Ernie:  168 primitive shells out of 2688 were deleted.
 There are  2856 symmetry adapted cartesian basis functions of A   symmetry.
 There are  2688 symmetry adapted basis functions of A   symmetry.
  2688 basis functions,  4536 primitive gaussians,  2856 cartesian basis functions
   300 alpha electrons      300 beta electrons
       nuclear repulsion energy     14211.7052964283 Hartrees.
 IExCor=    0 DFT=F Ex=HF Corr=None ExCW=0 ScaHFX=  1.000000
 ScaDFX=  1.000000  1.000000  1.000000  1.000000 ScalE2=  1.000000  1.000000
 IRadAn=      7 IRanWt=     -1 IRanGd=            0 ICorTp=0 IEmpDi=  4
 NAtoms=  168 NActive=  168 NUniq=  168 SFac= 1.00D+00 NAtFMM=   60 NAOKFM=T Big=T
 Integral buffers will be    131072 words long.
 Raffenetti 1 integral format.
 Two-electron integral symmetry is turned on.
 Leave Link  301 at Tue Oct 26 15:24:35 2021, MaxMem=  7864320000 cpu:               3.8 elap:               0.1
 (Enter /apps/gaussian/g16-c01-avx/g16/l302.exe)
 NPDir=0 NMtPBC=     1 NCelOv=     1 NCel=       1 NClECP=     1 NCelD=      1
         NCelK=      1 NCelE2=     1 NClLst=     1 CellRange=     0.0.
 One-electron integrals computed using PRISM.
 One-electron integral symmetry used in STVInt
 NBasis=  2688 RedAO= T EigKep=  1.02D-06  NBF=  2688
 NBsUse=  2662 1.00D-06 EigRej=  8.81D-07 NBFU=  2662
 Leave Link  302 at Tue Oct 26 15:24:58 2021, MaxMem=  7864320000 cpu:             728.7 elap:              23.0
 (Enter /apps/gaussian/g16-c01-avx/g16/l303.exe)
 DipDrv:  MaxL=1.
 Leave Link  303 at Tue Oct 26 15:25:00 2021, MaxMem=  7864320000 cpu:              51.2 elap:               1.9
 (Enter /apps/gaussian/g16-c01-avx/g16/l401.exe)
 ExpMin= 2.97D-02 ExpMax= 9.05D+03 ExpMxC= 3.09D+02 IAcc=3 IRadAn=         7 AccDes= 0.00D+00
 Harris functional with IExCor=  205 and IRadAn=       7 diagonalized for initial guess.
 HarFok:  IExCor=  205 AccDes= 0.00D+00 IRadAn=         7 IDoV= 1 UseB2=F ITyADJ=14
 ICtDFT=  3500011 ScaDFX=  1.000000  1.000000  1.000000  1.000000
 FoFCou: FMM=F IPFlag=           0 FMFlag=      100000 FMFlg1=        2001
         NFxFlg=           0 DoJE=T BraDBF=F KetDBF=T FulRan=T
         wScrn=  0.000000 ICntrl=       500 IOpCl=  0 I1Cent=   200000004 NGrid=           0
         NMat0=    1 NMatS0=      1 NMatT0=    0 NMatD0=    1 NMtDS0=    0 NMtDT0=    0
 Petite list used in FoFCou.
 Harris En= -3434.17827556057    
 JPrj=0 DoOrth=F DoCkMO=F.
 Leave Link  401 at Tue Oct 26 15:26:10 2021, MaxMem=  7864320000 cpu:            2221.0 elap:              70.0
 (Enter /apps/gaussian/g16-c01-avx/g16/l508.exe)
 Integral symmetry usage will be decided dynamically.
 Tight linear equation convergence will be used.
 RHF wavefunction.
 Linear searches until partial convergence.
 Full line searches.
 Fock matrices will be formed incrementally for  20 cycles.
 FoFJK:  IHMeth= 1 ICntrl=       0 DoSepK=F KAlg= 0 I1Cent=           0 FoldK=F
 IRaf= 810000000 NMat=       1 IRICut=       1 DoRegI=T DoRafI=F ISym2E= 1 IDoP0=0 IntGTp=1.
 FoFCou: FMM=T IPFlag=           0 FMFlag=      100000 FMFlg1=        2001
         NFxFlg=           0 DoJE=F BraDBF=F KetDBF=F FulRan=T
         wScrn=  0.000000 ICntrl=         0 IOpCl=  0 I1Cent=           0 NGrid=           0
         NMat0=    1 NMatS0=      1 NMatT0=    0 NMatD0=    1 NMtDS0=    0 NMtDT0=    0
 Petite list used in FoFCou.
 FMM levels:  10  Number of levels for PrismC:   9
 Iteration   1 EE= -3426.07017981226                                    Grad=2.776D+00 Max rot=    2.8666 deg.
 Gradient too large for Newton-Raphson -- use scaled steepest descent instead.
 Alpha Gap=     0.478 HL deriv= 6.42D-06
     ILin= 1 X=0.000D+00 Y=-3.426070179812D+03 DE= 0.00D+00 F= -9.38D+00
 RMSU=  5.51D-03    CP:  7.83D-01
     ILin= 2 X=3.000D-01 Y=-3.428196164092D+03 DE=-2.13D+00 F= -4.78D+00 OKLS=F
 RMSU=  1.25D-03    CP:  6.69D-01  1.50D+00
     ILin= 3 X=5.000D-01 Y=-3.428840845265D+03 DE=-2.77D+00 F= -1.67D+00
 RMSU=  1.25D-03    CP:  5.45D-01  2.01D+00  3.00D+00
     ILin= 4 X=8.000D-01 Y=-3.428639876268D+03 DE=-2.57D+00 F=  3.00D+00
     An  expanding polynomial of degree  4 produced  0.6072
 RMSU=  3.37D-06    CP:  6.18D-01  1.72D+00  1.86D+00  4.26D-05
 Iteration   2 EE= -3428.92999247875     Delta-E=       -2.859812666487 Grad=9.490D-01 Max rot=    0.7985 deg.
 Gradient too large for Newton-Raphson -- use scaled steepest descent instead.
 Alpha Gap=     0.480 HL deriv= 4.44D-05
     ILin= 1 X=0.000D+00 Y=-3.428929992479D+03 DE= 0.00D+00 F= -5.52D-01
 RMSU=  1.63D-03    CP:  5.54D-01  1.78D+00  2.96D+00  2.66D-04  3.00D+00
     ILin= 2 X=4.000D-01 Y=-3.429094136157D+03 DE=-1.64D-01 F= -2.68D-01 OKLS=F
 RMSU=  4.33D-04    CP:  4.89D-01  1.81D+00  3.00D+00  1.61D+00  3.00D+00
                    CP:  2.07D+00
     ILin= 3 X=9.000D-01 Y=-3.429139934103D+03 DE=-2.10D-01 F=  8.49D-02
     Accept linear search using points  2 and  3.
     An  expanding polynomial of degree  3 produced  0.6862
 RMSU=  2.02D-06    CP:  5.15D-01  1.80D+00  3.00D+00  8.64D-01  3.00D+00
                    CP:  1.64D+00  4.36D-01
 Iteration   3 EE= -3429.14196779368     Delta-E=       -0.211975314924 Grad=3.334D-01 Max rot=    0.2894 deg.
 Gradient too large for Newton-Raphson -- use scaled steepest descent instead.
 Alpha Gap=     0.479 HL deriv= 8.64D-06
     ILin= 1 X=0.000D+00 Y=-3.429141967794D+03 DE= 0.00D+00 F= -7.48D-02
 RMSU=  6.19D-04    CP:  4.86D-01  1.78D+00  3.00D+00  1.63D+00  3.00D+00
                    CP:  1.97D+00  1.10D+00  3.00D+00
     ILin= 2 X=6.000D-01 Y=-3.429171435756D+03 DE=-2.95D-02 F= -2.34D-02 OKLS=F
 RMSU=  8.02D-05    CP:  4.58D-01  1.74D+00  3.00D+00  2.60D+00 -2.25D+00
                    CP:  2.34D+00  2.06D+00  3.00D+00  2.13D+00
     ILin= 3 X=1.300D+00 Y=-3.429166863823D+03 DE=-2.49D-02 F=  3.65D-02
     An  expanding polynomial of degree  3 produced  0.8737
 RMSU=  4.83D-06    CP:  4.75D-01  1.77D+00  3.00D+00  1.99D+00 -1.16D-01
                    CP:  2.12D+00  1.45D+00  3.00D+00  1.44D+00  2.84D-01
 Iteration   4 EE= -3429.17464135275     Delta-E=       -0.032673559072 Grad=1.059D-01 Max rot=    0.2578 deg.
 Gradient too large for Newton-Raphson -- use scaled steepest descent instead.
 Alpha Gap=     0.486 HL deriv= 6.80D-06
     ILin= 1 X=0.000D+00 Y=-3.429174641353D+03 DE= 0.00D+00 F= -1.59D-02
 RMSU=  2.70D-04    CP:  4.65D-01  1.75D+00  3.00D+00  2.12D+00  3.00D+00
                    CP:  2.30D+00  1.80D+00  3.00D+00  1.47D+00  1.03D+00
                    CP:  3.00D+00
     ILin= 2 X=8.000D-01 Y=-3.429179412145D+03 DE=-4.77D-03 F=  3.96D-03 OKLS=T
     Accept linear search using points  1 and  2.
     An  expanding polynomial of degree  2 produced  0.5852
 RMSU=  5.44D-06    CP:  4.68D-01  1.75D+00  3.00D+00  2.09D+00  3.00D+00
                    CP:  2.25D+00  1.70D+00  3.00D+00  1.46D+00  8.20D-01
                    CP:  3.00D+00  7.30D-01
 Iteration   5 EE= -3429.17969067768     Delta-E=       -0.005049324936 Grad=3.986D-02 Max rot=    0.0878 deg.
 Gradient too large for Newton-Raphson -- use scaled steepest descent instead.
 Alpha Gap=     0.484 HL deriv= 7.78D-06
     ILin= 1 X=0.000D+00 Y=-3.429179690678D+03 DE= 0.00D+00 F= -2.06D-03
 RMSU=  4.72D-05    CP:  4.64D-01  1.74D+00  3.00D+00  2.15D+00  3.00D+00
                    CP:  2.30D+00  1.86D+00  3.00D+00  1.69D+00  1.15D+00
                    CP:  3.00D+00  9.86D-01  1.20D+00
     ILin= 2 X=7.000D-01 Y=-3.429180700650D+03 DE=-1.01D-03 F= -8.23D-04 OKLS=F
 RMSU=  2.26D-06    CP:  4.60D-01  1.73D+00  3.00D+00  2.22D+00  3.00D+00
                    CP:  2.35D+00  2.02D+00  3.00D+00  1.91D+00  1.51D+00
                    CP:  3.00D+00  1.24D+00  1.34D+00  1.99D+00
     ILin= 3 X=1.400D+00 Y=-3.429180842413D+03 DE=-1.15D-03 F=  4.18D-04
     Accept linear search using points  2 and  3.
     An  expanding polynomial of degree  3 produced  1.1151
 RMSU=  1.48D-10    CP:  4.61D-01  1.73D+00  3.00D+00  2.19D+00  3.00D+00
                    CP:  2.33D+00  1.95D+00  3.00D+00  1.82D+00  1.36D+00
                    CP:  3.00D+00  1.14D+00  1.29D+00  1.59D+00  4.72D-01
 Iteration   6 EE= -3429.18088954631     Delta-E=       -0.001198868631 Grad=1.707D-02 Max rot=    0.0696 deg.
 Gradient too large for Newton-Raphson -- use scaled steepest descent instead.
 Alpha Gap=     0.486 HL deriv= 1.45D-06
     ILin= 1 X=0.000D+00 Y=-3.429180889546D+03 DE= 0.00D+00 F= -6.04D-04
 RMSU=  2.98D-05    CP:  4.61D-01  1.73D+00  3.00D+00  2.18D+00  3.00D+00
                    CP:  2.35D+00  1.99D+00  3.00D+00  1.79D+00  1.43D+00
                    CP:  3.00D+00  1.34D+00  1.07D+00  1.81D+00 -2.19D-01
                    CP: -3.00D+00
     ILin= 2 X=8.000D-01 Y=-3.429181048298D+03 DE=-1.59D-04 F=  2.07D-04 OKLS=T
     Accept linear search using points  1 and  2.
     An  expanding polynomial of degree  2 produced  0.5457
 RMSU=  3.80D-08    CP:  4.61D-01  1.73D+00  3.00D+00  2.18D+00  3.00D+00
                    CP:  2.34D+00  1.98D+00  3.00D+00  1.80D+00  1.41D+00
                    CP:  3.00D+00  1.27D+00  1.14D+00  1.74D+00 -1.03D-02
                    CP: -3.00D+00  6.82D-01
 Iteration   7 EE= -3429.18106815949     Delta-E=       -0.000178613176 Grad=5.859D-03 Max rot=    0.0260 deg.
 SCF Done:  E(RHF) =  -3429.18106816     a.u. after    7 cycles
            Convg  =    0.5859D-02                    18 Fock formations.
              S**2 =  0.0000                  -V/T =  2.0002
 Leave Link  508 at Tue Oct 26 19:17:45 2021, MaxMem=  7864320000 cpu:          441294.8 elap:           13894.1
 (Enter /apps/gaussian/g16-c01-avx/g16/l502.exe)
 Integral symmetry usage will be decided dynamically.
 Closed shell SCF:
 Using DIIS extrapolation, IDIIS=  1040.
 NGot=  7864320000 LenX=  7847884898 LenY=  7839725306
 Requested convergence on RMS density matrix=1.00D-08 within 128 cycles.
 Requested convergence on MAX density matrix=1.00D-06.
 Requested convergence on             energy=1.00D-06.
 No special actions if energy rises.
 Fock matrices will be formed incrementally for  20 cycles.

 Cycle   1  Pass 1  IDiag  1:
 FoFJK:  IHMeth= 1 ICntrl=       0 DoSepK=F KAlg= 0 I1Cent=           0 FoldK=F
 IRaf= 810000000 NMat=       1 IRICut=       1 DoRegI=T DoRafI=F ISym2E= 0 IDoP0=0 IntGTp=1.
 FoFCou: FMM=T IPFlag=           0 FMFlag=      100000 FMFlg1=        2001
         NFxFlg=           0 DoJE=F BraDBF=F KetDBF=F FulRan=T
         wScrn=  0.000000 ICntrl=         0 IOpCl=  0 I1Cent=           0 NGrid=           0
         NMat0=    1 NMatS0=      1 NMatT0=    0 NMatD0=    1 NMtDS0=    0 NMtDT0=    0
 Symmetry not used in FoFCou.
 FMM levels:  10  Number of levels for PrismC:   9
 E= -3429.18106805421    
 DIIS: error= 1.12D-04 at cycle   1 NSaved=   1.
 NSaved= 1 IEnMin= 1 EnMin= -3429.18106805421     IErMin= 1 ErrMin= 1.12D-04
 ErrMax= 1.12D-04  0.00D+00 EMaxC= 1.00D-01 BMatC= 1.72D-05 BMatP= 1.72D-05
 IDIUse=3 WtCom= 9.99D-01 WtEn= 1.12D-03
 Coeff-Com:  0.100D+01
 Coeff-En:   0.100D+01
 Coeff:      0.100D+01
 Gap=     0.485 Goal=   None    Shift=    0.000
 RMSDP=7.40D-05 MaxDP=4.74D-03              OVMax= 1.59D-03

 Cycle   2  Pass 1  IDiag  1:
 RMSU=  7.19D-05    CP:  9.99D-01
 E= -3429.18112655107     Delta-E=       -0.000058496858 Rises=F Damp=F
 DIIS: error= 6.07D-05 at cycle   2 NSaved=   2.
 NSaved= 2 IEnMin= 2 EnMin= -3429.18112655107     IErMin= 2 ErrMin= 6.07D-05
 ErrMax= 6.07D-05  0.00D+00 EMaxC= 1.00D-01 BMatC= 4.00D-06 BMatP= 1.72D-05
 IDIUse=1 WtCom= 1.00D+00 WtEn= 0.00D+00
 Coeff-Com: -0.226D-01 0.102D+01
 Coeff:     -0.226D-01 0.102D+01
 Gap=     0.347 Goal=   None    Shift=    0.000
 RMSDP=1.61D-05 MaxDP=1.51D-03 DE=-5.85D-05 OVMax= 8.55D-04

 Cycle   3  Pass 1  IDiag  1:
 RMSU=  9.43D-06    CP:  9.99D-01  1.17D+00
 E= -3429.18113943443     Delta-E=       -0.000012883364 Rises=F Damp=F
 DIIS: error= 2.96D-05 at cycle   3 NSaved=   3.
 NSaved= 3 IEnMin= 3 EnMin= -3429.18113943443     IErMin= 3 ErrMin= 2.96D-05
 ErrMax= 2.96D-05  0.00D+00 EMaxC= 1.00D-01 BMatC= 1.90D-06 BMatP= 4.00D-06
 IDIUse=1 WtCom= 1.00D+00 WtEn= 0.00D+00
 Coeff-Com: -0.280D+00 0.395D+00 0.885D+00
 Coeff:     -0.280D+00 0.395D+00 0.885D+00
 Gap=     0.347 Goal=   None    Shift=    0.000
 RMSDP=9.86D-06 MaxDP=1.13D-03 DE=-1.29D-05 OVMax= 6.38D-04

 Cycle   4  Pass 1  IDiag  1:
 RMSU=  5.90D-06    CP:  9.99D-01  1.27D+00  1.40D+00
 E= -3429.18114497532     Delta-E=       -0.000005540889 Rises=F Damp=F
 DIIS: error= 1.64D-05 at cycle   4 NSaved=   4.
 NSaved= 4 IEnMin= 4 EnMin= -3429.18114497532     IErMin= 4 ErrMin= 1.64D-05
 ErrMax= 1.64D-05  0.00D+00 EMaxC= 1.00D-01 BMatC= 1.84D-07 BMatP= 1.90D-06
 IDIUse=1 WtCom= 1.00D+00 WtEn= 0.00D+00
 Coeff-Com:  0.155D+00-0.332D+00-0.470D+00 0.165D+01
 Coeff:      0.155D+00-0.332D+00-0.470D+00 0.165D+01
 Gap=     0.347 Goal=   None    Shift=    0.000
 RMSDP=6.45D-06 MaxDP=6.89D-04 DE=-5.54D-06 OVMax= 4.79D-04

 Cycle   5  Pass 1  IDiag  1:
 RMSU=  3.92D-06    CP:  9.99D-01  1.24D+00  1.70D+00  1.62D+00
 E= -3429.18114646262     Delta-E=       -0.000001487300 Rises=F Damp=F
 DIIS: error= 6.18D-06 at cycle   5 NSaved=   5.
 NSaved= 5 IEnMin= 5 EnMin= -3429.18114646262     IErMin= 5 ErrMin= 6.18D-06
 ErrMax= 6.18D-06  0.00D+00 EMaxC= 1.00D-01 BMatC= 3.65D-08 BMatP= 1.84D-07
 IDIUse=1 WtCom= 1.00D+00 WtEn= 0.00D+00
 Coeff-Com:  0.533D-01-0.771D-01-0.183D+00 0.893D-01 0.112D+01
 Coeff:      0.533D-01-0.771D-01-0.183D+00 0.893D-01 0.112D+01
 Gap=     0.347 Goal=   None    Shift=    0.000
 RMSDP=2.38D-06 MaxDP=1.69D-04 DE=-1.49D-06 OVMax= 1.77D-04

 Cycle   6  Pass 1  IDiag  1:
 RMSU=  1.36D-06    CP:  9.99D-01  1.23D+00  1.80D+00  1.83D+00  1.28D+00
 E= -3429.18114667582     Delta-E=       -0.000000213200 Rises=F Damp=F
 DIIS: error= 2.25D-06 at cycle   6 NSaved=   6.
 NSaved= 6 IEnMin= 6 EnMin= -3429.18114667582     IErMin= 6 ErrMin= 2.25D-06
 ErrMax= 2.25D-06  0.00D+00 EMaxC= 1.00D-01 BMatC= 5.27D-09 BMatP= 3.65D-08
 IDIUse=1 WtCom= 1.00D+00 WtEn= 0.00D+00
 Coeff-Com: -0.318D-01 0.777D-01 0.846D-01-0.404D+00 0.137D+00 0.114D+01
 Coeff:     -0.318D-01 0.777D-01 0.846D-01-0.404D+00 0.137D+00 0.114D+01
 Gap=     0.347 Goal=   None    Shift=    0.000
 RMSDP=1.04D-06 MaxDP=1.01D-04 DE=-2.13D-07 OVMax= 8.54D-05

 Cycle   7  Pass 1  IDiag  1:
 RMSU=  4.73D-07    CP:  9.99D-01  1.24D+00  1.83D+00  1.92D+00  1.44D+00
                    CP:  1.21D+00
 E= -3429.18114670828     Delta-E=       -0.000000032465 Rises=F Damp=F
 DIIS: error= 3.18D-07 at cycle   7 NSaved=   7.
 NSaved= 7 IEnMin= 7 EnMin= -3429.18114670828     IErMin= 7 ErrMin= 3.18D-07
 ErrMax= 3.18D-07  0.00D+00 EMaxC= 1.00D-01 BMatC= 3.12D-10 BMatP= 5.27D-09
 IDIUse=1 WtCom= 1.00D+00 WtEn= 0.00D+00
 Coeff-Com:  0.119D-02-0.425D-02-0.433D-02 0.552D-01-0.109D+00-0.741D-01
 Coeff-Com:  0.113D+01
 Coeff:      0.119D-02-0.425D-02-0.433D-02 0.552D-01-0.109D+00-0.741D-01
 Coeff:      0.113D+01
 Gap=     0.347 Goal=   None    Shift=    0.000
 RMSDP=3.19D-07 MaxDP=2.07D-05 DE=-3.25D-08 OVMax= 9.31D-06

 Cycle   8  Pass 1  IDiag  1:
 RMSU=  1.77D-07    CP:  9.99D-01  1.24D+00  1.83D+00  1.93D+00  1.42D+00
                    CP:  1.26D+00  1.33D+00
 E= -3429.18114670930     Delta-E=       -0.000000001011 Rises=F Damp=F
 DIIS: error= 1.96D-07 at cycle   8 NSaved=   8.
 NSaved= 8 IEnMin= 8 EnMin= -3429.18114670930     IErMin= 8 ErrMin= 1.96D-07
 ErrMax= 1.96D-07  0.00D+00 EMaxC= 1.00D-01 BMatC= 7.72D-11 BMatP= 3.12D-10
 IDIUse=1 WtCom= 1.00D+00 WtEn= 0.00D+00
 Coeff-Com:  0.411D-02-0.970D-02-0.133D-01 0.593D-01-0.452D-01-0.133D+00
 Coeff-Com:  0.159D+00 0.980D+00
 Coeff:      0.411D-02-0.970D-02-0.133D-01 0.593D-01-0.452D-01-0.133D+00
 Coeff:      0.159D+00 0.980D+00
 Gap=     0.347 Goal=   None    Shift=    0.000
 RMSDP=2.79D-07 MaxDP=1.93D-05 DE=-1.01D-09 OVMax= 4.59D-06

 Cycle   9  Pass 1  IDiag  1:
 RMSU=  1.18D-07    CP:  9.99D-01  1.24D+00  1.84D+00  1.93D+00  1.40D+00
                    CP:  1.32D+00  1.47D+00  1.77D+00
 E= -3429.18114670839     Delta-E=        0.000000000909 Rises=F Damp=F
 DIIS: error= 1.23D-07 at cycle   9 NSaved=   9.
 NSaved= 9 IEnMin= 8 EnMin= -3429.18114670930     IErMin= 9 ErrMin= 1.23D-07
 ErrMax= 1.23D-07  0.00D+00 EMaxC= 1.00D-01 BMatC= 1.60D-11 BMatP= 7.72D-11
 IDIUse=1 WtCom= 1.00D+00 WtEn= 0.00D+00
 Coeff-Com: -0.749D-03 0.260D-02 0.146D-02-0.162D-01 0.217D-01 0.467D-01
 Coeff-Com: -0.222D+00-0.347D+00 0.151D+01
 Coeff:     -0.749D-03 0.260D-02 0.146D-02-0.162D-01 0.217D-01 0.467D-01
 Coeff:     -0.222D+00-0.347D+00 0.151D+01
 Gap=     0.347 Goal=   None    Shift=    0.000
 RMSDP=5.57D-07 MaxDP=3.22D-05 DE= 9.09D-10 OVMax= 3.36D-06

 Cycle  10  Pass 1  IDiag  1:
 RMSU=  1.18D-07    CP:  9.99D-01  1.25D+00  1.84D+00  1.92D+00  1.37D+00
                    CP:  1.37D+00  1.67D+00  3.00D+00  3.00D+00
 E= -3429.18114670556     Delta-E=        0.000000002830 Rises=F Damp=F
 DIIS: error= 4.71D-08 at cycle  10 NSaved=  10.
 NSaved=10 IEnMin= 8 EnMin= -3429.18114670930     IErMin=10 ErrMin= 4.71D-08
 ErrMax= 4.71D-08  0.00D+00 EMaxC= 1.00D-01 BMatC= 3.13D-12 BMatP= 1.60D-11
 IDIUse=1 WtCom= 1.00D+00 WtEn= 0.00D+00
 Coeff-Com: -0.688D-03 0.171D-02 0.207D-02-0.903D-02 0.498D-02 0.257D-01
 Coeff-Com: -0.139D-01-0.229D+00 0.118D+00 0.110D+01
 Coeff:     -0.688D-03 0.171D-02 0.207D-02-0.903D-02 0.498D-02 0.257D-01
 Coeff:     -0.139D-01-0.229D+00 0.118D+00 0.110D+01
 Gap=     0.347 Goal=   None    Shift=    0.000
 RMSDP=7.52D-07 MaxDP=4.52D-05 DE= 2.83D-09 OVMax= 1.31D-06

 Cycle  11  Pass 1  IDiag  1:
 RMSU=  3.93D-07    CP:  9.99D-01  1.25D+00  1.84D+00  1.90D+00  1.31D+00
                    CP:  1.46D+00  1.86D+00  3.00D+00  3.00D+00  3.00D+00
 E= -3429.18114670227     Delta-E=        0.000000003281 Rises=F Damp=F
 DIIS: error= 4.20D-08 at cycle  11 NSaved=  11.
 NSaved=11 IEnMin= 8 EnMin= -3429.18114670930     IErMin=11 ErrMin= 4.20D-08
 ErrMax= 4.20D-08  0.00D+00 EMaxC= 1.00D-01 BMatC= 1.26D-12 BMatP= 3.13D-12
 IDIUse=1 WtCom= 1.00D+00 WtEn= 0.00D+00
 Coeff-Com:  0.422D-04-0.244D-03 0.242D-04 0.160D-02-0.344D-02-0.316D-02
 Coeff-Com:  0.342D-01 0.239D-02-0.162D+00 0.555D-01 0.108D+01
 Coeff:      0.422D-04-0.244D-03 0.242D-04 0.160D-02-0.344D-02-0.316D-02
 Coeff:      0.342D-01 0.239D-02-0.162D+00 0.555D-01 0.108D+01
 Gap=     0.347 Goal=   None    Shift=    0.000
 RMSDP=7.92D-07 MaxDP=5.54D-05 DE= 3.28D-09 OVMax= 4.80D-07

 Cycle  12  Pass 1  IDiag  1:
 RMSU=  2.50D-07    CP:  9.99D-01  1.26D+00  1.84D+00  1.88D+00  1.24D+00
                    CP:  1.55D+00  2.02D+00  3.00D+00  3.00D+00  3.00D+00
                    CP:  2.18D+00
 E= -3429.18114670048     Delta-E=        0.000000001790 Rises=F Damp=F
 DIIS: error= 3.55D-08 at cycle  12 NSaved=  12.
 NSaved=12 IEnMin= 8 EnMin= -3429.18114670930     IErMin=12 ErrMin= 3.55D-08
 ErrMax= 3.55D-08  0.00D+00 EMaxC= 1.00D-01 BMatC= 7.50D-13 BMatP= 1.26D-12
 IDIUse=1 WtCom= 1.00D+00 WtEn= 0.00D+00
 Coeff-Com:  0.138D-03-0.312D-03-0.449D-03 0.150D-02 0.242D-04-0.366D-02
 Coeff-Com: -0.140D-01 0.346D-01 0.118D+00-0.388D+00-0.332D+00 0.158D+01
 Coeff:      0.138D-03-0.312D-03-0.449D-03 0.150D-02 0.242D-04-0.366D-02
 Coeff:     -0.140D-01 0.346D-01 0.118D+00-0.388D+00-0.332D+00 0.158D+01
 Gap=     0.347 Goal=   None    Shift=    0.000
 RMSDP=1.07D-06 MaxDP=8.20D-05 DE= 1.79D-09 OVMax= 2.94D-07

 Cycle  13  Pass 1  IDiag  1:
 RMSU=  2.82D-07    CP:  9.99D-01  1.27D+00  1.85D+00  1.85D+00  1.15D+00
                    CP:  1.66D+00  2.26D+00  3.00D+00  3.00D+00  3.00D+00
                    CP:  3.00D+00  2.52D+00
 E= -3429.18114669811     Delta-E=        0.000000002379 Rises=F Damp=F
 DIIS: error= 3.37D-08 at cycle  13 NSaved=  13.
 NSaved=13 IEnMin= 8 EnMin= -3429.18114670930     IErMin=13 ErrMin= 3.37D-08
 ErrMax= 3.37D-08  0.00D+00 EMaxC= 1.00D-01 BMatC= 5.73D-13 BMatP= 7.50D-13
 IDIUse=1 WtCom= 1.00D+00 WtEn= 0.00D+00
 Coeff-Com: -0.102D-03 0.384D-03 0.140D-03-0.231D-02 0.385D-02 0.580D-02
 Coeff-Com: -0.409D-01-0.305D-01 0.238D+00-0.730D-01-0.915D+00 0.392D+00
 Coeff-Com:  0.142D+01
 Coeff:     -0.102D-03 0.384D-03 0.140D-03-0.231D-02 0.385D-02 0.580D-02
 Coeff:     -0.409D-01-0.305D-01 0.238D+00-0.730D-01-0.915D+00 0.392D+00
 Coeff:      0.142D+01
 Gap=     0.347 Goal=   None    Shift=    0.000
 RMSDP=1.33D-06 MaxDP=9.93D-05 DE= 2.38D-09 OVMax= 3.54D-07

 Cycle  14  Pass 1  IDiag  1:
 RMSU=  4.06D-07    CP:  9.99D-01  1.28D+00  1.85D+00  1.81D+00  1.03D+00
                    CP:  1.82D+00  2.53D+00  3.00D+00  3.00D+00  3.00D+00
                    CP:  3.00D+00  3.00D+00  3.00D+00
 E= -3429.18114669573     Delta-E=        0.000000002379 Rises=F Damp=F
 DIIS: error= 2.59D-08 at cycle  14 NSaved=  14.
 NSaved=14 IEnMin= 8 EnMin= -3429.18114670930     IErMin=14 ErrMin= 2.59D-08
 ErrMax= 2.59D-08  0.00D+00 EMaxC= 1.00D-01 BMatC= 4.84D-13 BMatP= 5.73D-13
 IDIUse=1 WtCom= 1.00D+00 WtEn= 0.00D+00
 Coeff-Com: -0.134D-03 0.453D-03 0.231D-03-0.258D-02 0.368D-02 0.635D-02
 Coeff-Com: -0.357D-01-0.355D-01 0.190D+00 0.338D-01-0.718D+00-0.122D+00
 Coeff-Com:  0.884D+00 0.796D+00
 Coeff:     -0.134D-03 0.453D-03 0.231D-03-0.258D-02 0.368D-02 0.635D-02
 Coeff:     -0.357D-01-0.355D-01 0.190D+00 0.338D-01-0.718D+00-0.122D+00
 Coeff:      0.884D+00 0.796D+00
 Gap=     0.347 Goal=   None    Shift=    0.000
 RMSDP=1.07D-06 MaxDP=7.18D-05 DE= 2.38D-09 OVMax= 2.75D-07

 Cycle  15  Pass 1  IDiag  1:
 RMSU=  3.85D-07    CP:  9.99D-01  1.29D+00  1.85D+00  1.78D+00  9.43D-01
                    CP:  1.93D+00  2.78D+00  3.00D+00  3.00D+00  3.00D+00
                    CP:  3.00D+00  3.00D+00  3.00D+00  2.47D+00
 E= -3429.18114669186     Delta-E=        0.000000003864 Rises=F Damp=F
 DIIS: error= 1.80D-08 at cycle  15 NSaved=  15.
 NSaved=15 IEnMin= 8 EnMin= -3429.18114670930     IErMin=15 ErrMin= 1.80D-08
 ErrMax= 1.80D-08  0.00D+00 EMaxC= 1.00D-01 BMatC= 3.12D-13 BMatP= 4.84D-13
 IDIUse=1 WtCom= 1.00D+00 WtEn= 0.00D+00
 Coeff-Com: -0.264D-04 0.124D-03-0.124D-04-0.685D-03 0.143D-02 0.162D-02
 Coeff-Com: -0.158D-01-0.346D-02 0.815D-01-0.542D-01-0.253D+00 0.402D+00
 Coeff-Com:  0.194D+00-0.183D+01 0.247D+01
 Coeff:     -0.264D-04 0.124D-03-0.124D-04-0.685D-03 0.143D-02 0.162D-02
 Coeff:     -0.158D-01-0.346D-02 0.815D-01-0.542D-01-0.253D+00 0.402D+00
 Coeff:      0.194D+00-0.183D+01 0.247D+01
 Gap=     0.347 Goal=   None    Shift=    0.000
 RMSDP=1.29D-06 MaxDP=8.94D-05 DE= 3.86D-09 OVMax= 3.06D-07

 Cycle  16  Pass 1  IDiag  1:
 RMSU=  4.82D-07    CP:  9.99D-01  1.30D+00  1.85D+00  1.74D+00  8.42D-01
                    CP:  2.06D+00  3.00D+00  3.00D+00  3.00D+00  3.00D+00
                    CP:  3.00D+00  3.00D+00  3.00D+00  3.00D+00  2.33D+00
 E= -3429.18114668817     Delta-E=        0.000000003689 Rises=F Damp=F
 DIIS: error= 1.41D-08 at cycle  16 NSaved=  16.
 NSaved=16 IEnMin= 8 EnMin= -3429.18114670930     IErMin=16 ErrMin= 1.41D-08
 ErrMax= 1.41D-08  0.00D+00 EMaxC= 1.00D-01 BMatC= 1.13D-13 BMatP= 3.12D-13
 IDIUse=1 WtCom= 1.00D+00 WtEn= 0.00D+00
 Coeff-Com: -0.941D-05 0.330D-04-0.351D-05-0.107D-03 0.137D-03 0.138D-03
 Coeff-Com: -0.623D-03 0.144D-02-0.856D-02 0.169D-01 0.397D-01 0.496D-01
 Coeff-Com: -0.324D-01-0.131D+01 0.927D+00 0.132D+01
 Coeff:     -0.941D-05 0.330D-04-0.351D-05-0.107D-03 0.137D-03 0.138D-03
 Coeff:     -0.623D-03 0.144D-02-0.856D-02 0.169D-01 0.397D-01 0.496D-01
 Coeff:     -0.324D-01-0.131D+01 0.927D+00 0.132D+01
 Gap=     0.347 Goal=   None    Shift=    0.000
 RMSDP=1.57D-06 MaxDP=1.01D-04 DE= 3.69D-09 OVMax= 3.94D-07

 Cycle  17  Pass 1  IDiag  1:
 RMSU=  3.97D-07    CP:  9.99D-01  1.32D+00  1.86D+00  1.70D+00  7.20D-01
                    CP:  2.21D+00  3.00D+00  3.00D+00  3.00D+00  3.00D+00
                    CP:  3.00D+00  3.00D+00  3.00D+00  3.00D+00  3.00D+00
                    CP:  2.77D+00
 E= -3429.18114668545     Delta-E=        0.000000002721 Rises=F Damp=F
 DIIS: error= 3.34D-09 at cycle  17 NSaved=  17.
 NSaved=17 IEnMin= 8 EnMin= -3429.18114670930     IErMin=17 ErrMin= 3.34D-09
 ErrMax= 3.34D-09  0.00D+00 EMaxC= 1.00D-01 BMatC= 2.62D-14 BMatP= 1.13D-13
 IDIUse=1 WtCom= 1.00D+00 WtEn= 0.00D+00
 Large coefficients: NSaved= 17 BigCof=    0.00 CofMax=   10.00 Det=-7.32D-15
 Inversion failed.  Reducing to 16 matrices.
 Large coefficients: NSaved= 16 BigCof=    0.00 CofMax=   10.00 Det=-7.33D-15
 Inversion failed.  Reducing to 15 matrices.
 Coeff-Com: -0.153D-04 0.565D-04-0.562D-04-0.210D-03 0.673D-03 0.280D-02
 Coeff-Com: -0.101D-01 0.318D-02 0.429D-01 0.565D-01-0.540D-01-0.362D+00
 Coeff-Com:  0.513D+00-0.648D-01 0.872D+00
 Coeff:     -0.153D-04 0.565D-04-0.562D-04-0.210D-03 0.673D-03 0.280D-02
 Coeff:     -0.101D-01 0.318D-02 0.429D-01 0.565D-01-0.540D-01-0.362D+00
 Coeff:      0.513D+00-0.648D-01 0.872D+00
 Gap=     0.347 Goal=   None    Shift=    0.000
 RMSDP=2.64D-07 MaxDP=1.82D-05 DE= 2.72D-09 OVMax= 6.08D-08

 Cycle  18  Pass 1  IDiag  1:
 RMSU=  8.65D-08    CP:  9.99D-01  1.31D+00  1.86D+00  1.71D+00  7.43D-01
                    CP:  2.18D+00  3.00D+00  3.00D+00  3.00D+00  3.00D+00
                    CP:  3.00D+00  3.00D+00  3.00D+00  3.00D+00  3.00D+00
                    CP:  2.49D+00  7.85D-01
 E= -3429.18114668528     Delta-E=        0.000000000175 Rises=F Damp=F
 DIIS: error= 2.91D-09 at cycle  18 NSaved=  16.
 NSaved=16 IEnMin= 6 EnMin= -3429.18114670930     IErMin=16 ErrMin= 2.91D-09
 ErrMax= 2.91D-09  0.00D+00 EMaxC= 1.00D-01 BMatC= 9.59D-15 BMatP= 2.62D-14
 IDIUse=1 WtCom= 1.00D+00 WtEn= 0.00D+00
 Large coefficients: NSaved= 16 BigCof=    0.00 CofMax=   10.00 Det=-7.18D-15
 Inversion failed.  Reducing to 15 matrices.
 Coeff-Com:  0.258D-04-0.608D-04-0.112D-03 0.689D-03 0.119D-02-0.728D-02
 Coeff-Com:  0.152D-02 0.270D-01 0.363D-01-0.321D-01-0.318D-01 0.218D+00
 Coeff-Com: -0.253D+00 0.276D+00 0.763D+00
 Coeff:      0.258D-04-0.608D-04-0.112D-03 0.689D-03 0.119D-02-0.728D-02
 Coeff:      0.152D-02 0.270D-01 0.363D-01-0.321D-01-0.318D-01 0.218D+00
 Coeff:     -0.253D+00 0.276D+00 0.763D+00
 Gap=     0.347 Goal=   None    Shift=    0.000
 RMSDP=2.42D-07 MaxDP=1.56D-05 DE= 1.75D-10 OVMax= 5.43D-08

 Cycle  19  Pass 1  IDiag  1:
 RMSU=  2.73D-08    CP:  9.99D-01  1.31D+00  1.86D+00  1.72D+00  7.60D-01
                    CP:  2.16D+00  3.00D+00  3.00D+00  3.00D+00  3.00D+00
                    CP:  3.00D+00  3.00D+00  3.00D+00  3.00D+00  3.00D+00
                    CP:  2.22D+00  5.65D-01  1.47D+00
 E= -3429.18114668593     Delta-E=       -0.000000000655 Rises=F Damp=F
 DIIS: error= 3.80D-09 at cycle  19 NSaved=  16.
 NSaved=16 IEnMin= 5 EnMin= -3429.18114670930     IErMin=15 ErrMin= 2.91D-09
 ErrMax= 3.80D-09  0.00D+00 EMaxC= 1.00D-01 BMatC= 9.16D-15 BMatP= 9.59D-15
 IDIUse=1 WtCom= 1.00D+00 WtEn= 0.00D+00
 Large coefficients: NSaved= 16 BigCof=    0.00 CofMax=   10.00 Det=-4.22D-15
 Inversion failed.  Reducing to 15 matrices.
 Coeff-Com: -0.639D-05-0.436D-04 0.294D-03 0.752D-03-0.541D-02 0.205D-02
 Coeff-Com:  0.212D-01 0.333D-01-0.295D-01-0.280D-01 0.192D+00-0.222D+00
 Coeff-Com:  0.269D+00 0.473D+00 0.292D+00
 Coeff:     -0.639D-05-0.436D-04 0.294D-03 0.752D-03-0.541D-02 0.205D-02
 Coeff:      0.212D-01 0.333D-01-0.295D-01-0.280D-01 0.192D+00-0.222D+00
 Coeff:      0.269D+00 0.473D+00 0.292D+00
 Gap=     0.347 Goal=   None    Shift=    0.000
 RMSDP=3.17D-08 MaxDP=2.17D-06 DE=-6.55D-10 OVMax= 6.76D-09

 Cycle  20  Pass 1  IDiag  1:
 RMSU=  7.84D-09    CP:  9.99D-01  1.31D+00  1.86D+00  1.72D+00  7.63D-01
                    CP:  2.15D+00  3.00D+00  3.00D+00  3.00D+00  3.00D+00
                    CP:  3.00D+00  3.00D+00  3.00D+00  3.00D+00  3.00D+00
                    CP:  2.19D+00  5.35D-01  1.53D+00  1.25D+00
 E= -3429.18114668531     Delta-E=        0.000000000618 Rises=F Damp=F
 DIIS: error= 9.50D-09 at cycle  20 NSaved=  16.
 NSaved=16 IEnMin= 4 EnMin= -3429.18114670930     IErMin=14 ErrMin= 2.91D-09
 ErrMax= 9.50D-09  0.00D+00 EMaxC= 1.00D-01 BMatC= 1.93D-14 BMatP= 9.16D-15
 IDIUse=1 WtCom= 1.00D+00 WtEn= 0.00D+00
 Large coefficients: NSaved= 16 BigCof=    0.00 CofMax=   10.00 Det=-2.42D-15
 Inversion failed.  Reducing to 15 matrices.
 Coeff-Com: -0.470D-04 0.229D-03 0.702D-03-0.500D-02 0.200D-02 0.190D-01
 Coeff-Com:  0.324D-01-0.253D-01-0.332D-01 0.184D+00-0.215D+00 0.249D+00
 Coeff-Com:  0.498D+00 0.509D+00-0.215D+00
 Coeff:     -0.470D-04 0.229D-03 0.702D-03-0.500D-02 0.200D-02 0.190D-01
 Coeff:      0.324D-01-0.253D-01-0.332D-01 0.184D+00-0.215D+00 0.249D+00
 Coeff:      0.498D+00 0.509D+00-0.215D+00
 Gap=     0.347 Goal=   None    Shift=    0.000
 RMSDP=2.96D-08 MaxDP=1.85D-06 DE= 6.18D-10 OVMax= 6.76D-09

 Cycle  21  Pass 1  IDiag  1:
 Restarting incremental Fock formation.
 E= -3429.18114672695     Delta-E=       -0.000000041640 Rises=F Damp=F
 DIIS: error= 8.55D-07 at cycle  21 NSaved=  16.
 NSaved=16 IEnMin=16 EnMin= -3429.18114672695     IErMin=13 ErrMin= 2.91D-09
 ErrMax= 8.55D-07  0.00D+00 EMaxC= 1.00D-01 BMatC= 3.92D-10 BMatP= 9.16D-15
 IDIUse=1 WtCom= 1.00D+00 WtEn= 0.00D+00
 Large coefficients: NSaved= 16 BigCof=    0.00 CofMax=   10.00 Det=-2.28D-15
 Inversion failed.  Reducing to 15 matrices.
 Coeff-Com:  0.147D-03-0.399D-03-0.457D-02-0.123D-01 0.154D-01 0.156D+00
 Coeff-Com:  0.115D+00-0.290D-01 0.241D+00 0.165D-01 0.148D+00 0.146D+00
 Coeff-Com:  0.262D+00-0.697D-01 0.156D-01
 Coeff:      0.147D-03-0.399D-03-0.457D-02-0.123D-01 0.154D-01 0.156D+00
 Coeff:      0.115D+00-0.290D-01 0.241D+00 0.165D-01 0.148D+00 0.146D+00
 Coeff:      0.262D+00-0.697D-01 0.156D-01
 Gap=     0.347 Goal=   None    Shift=    0.000
 RMSDP=1.79D-06 MaxDP=1.23D-04 DE=-4.16D-08 OVMax= 4.57D-07

 Cycle  22  Pass 1  IDiag  1:
 RMSU=  1.79D-06    CP:  1.00D+00
 E= -3429.18114673068     Delta-E=       -0.000000003725 Rises=F Damp=F
 DIIS: error= 8.07D-07 at cycle  22 NSaved=  16.
 NSaved=16 IEnMin=16 EnMin= -3429.18114673068     IErMin=12 ErrMin= 2.91D-09
 ErrMax= 8.07D-07  0.00D+00 EMaxC= 1.00D-01 BMatC= 3.59D-10 BMatP= 9.16D-15
 IDIUse=1 WtCom= 1.00D+00 WtEn= 0.00D+00
 Large coefficients: NSaved= 16 BigCof=    0.00 CofMax=   10.00 Det=-2.25D-15
 Inversion failed.  Reducing to 15 matrices.
 Coeff-Com:  0.172D-03-0.587D-03-0.472D-02-0.126D-01 0.143D-01 0.167D+00
 Coeff-Com:  0.136D+00-0.383D-01 0.250D+00 0.617D-01 0.147D+00 0.312D+00
 Coeff-Com: -0.474D-01 0.491D-01-0.330D-01
 Coeff:      0.172D-03-0.587D-03-0.472D-02-0.126D-01 0.143D-01 0.167D+00
 Coeff:      0.136D+00-0.383D-01 0.250D+00 0.617D-01 0.147D+00 0.312D+00
 Coeff:     -0.474D-01 0.491D-01-0.330D-01
 Gap=     0.347 Goal=   None    Shift=    0.000
 RMSDP=1.71D-07 MaxDP=1.24D-05 DE=-3.73D-09 OVMax= 4.33D-08

 Cycle  23  Pass 1  IDiag  1:
 RMSU=  6.84D-09    CP:  1.00D+00  1.10D+00
 E= -3429.18114673091     Delta-E=       -0.000000000226 Rises=F Damp=F
 DIIS: error= 8.01D-07 at cycle  23 NSaved=  16.
 NSaved=16 IEnMin=16 EnMin= -3429.18114673091     IErMin=11 ErrMin= 3.34D-09
 ErrMax= 8.01D-07  0.00D+00 EMaxC= 1.00D-01 BMatC= 3.55D-10 BMatP= 9.16D-15
 IDIUse=1 WtCom= 1.00D+00 WtEn= 0.00D+00
 Large coefficients: NSaved= 16 BigCof=    0.00 CofMax=   10.00 Det=-1.58D-15
 Inversion failed.  Reducing to 15 matrices.
 Coeff-Com:  0.174D-03-0.589D-03-0.477D-02-0.128D-01 0.148D-01 0.169D+00
 Coeff-Com:  0.136D+00-0.356D-01 0.252D+00 0.596D-01 0.150D+00 0.256D+00
 Coeff-Com:  0.518D-01-0.558D-01 0.203D-01
 Coeff:      0.174D-03-0.589D-03-0.477D-02-0.128D-01 0.148D-01 0.169D+00
 Coeff:      0.136D+00-0.356D-01 0.252D+00 0.596D-01 0.150D+00 0.256D+00
 Coeff:      0.518D-01-0.558D-01 0.203D-01
 Gap=     0.347 Goal=   None    Shift=    0.000
 RMSDP=1.93D-08 MaxDP=1.26D-06 DE=-2.26D-10 OVMax= 4.74D-09

 Cycle  24  Pass 1  IDiag  1:
 RMSU=  1.41D-09    CP:  1.00D+00  1.11D+00  9.93D-01
 E= -3429.18114673104     Delta-E=       -0.000000000131 Rises=F Damp=F
 DIIS: error= 8.01D-07 at cycle  24 NSaved=  16.
 NSaved=16 IEnMin=16 EnMin= -3429.18114673104     IErMin=11 ErrMin= 3.34D-09
 ErrMax= 8.01D-07  0.00D+00 EMaxC= 1.00D-01 BMatC= 3.55D-10 BMatP= 9.16D-15
 IDIUse=1 WtCom= 1.00D+00 WtEn= 0.00D+00
 Large coefficients: NSaved= 16 BigCof=    0.00 CofMax=   10.00 Det=-1.51D-15
 Inversion failed.  Reducing to 15 matrices.
 Coeff-Com:  0.153D-03-0.654D-03-0.473D-02-0.134D-01 0.132D-01 0.176D+00
 Coeff-Com:  0.149D+00-0.107D+00 0.269D+00 0.207D+00 0.294D+00 0.582D-01
 Coeff-Com: -0.414D-01 0.760D-01-0.759D-01
 Coeff:      0.153D-03-0.654D-03-0.473D-02-0.134D-01 0.132D-01 0.176D+00
 Coeff:      0.149D+00-0.107D+00 0.269D+00 0.207D+00 0.294D+00 0.582D-01
 Coeff:     -0.414D-01 0.760D-01-0.759D-01
 Gap=     0.347 Goal=   None    Shift=    0.000
 RMSDP=1.05D-07 MaxDP=7.38D-06 DE=-1.31D-10 OVMax= 2.65D-08

 Cycle  25  Pass 1  IDiag  1:
 RMSU=  6.22D-09    CP:  1.00D+00  1.16D+00  1.34D+00  4.90D-01
 E= -3429.18114673147     Delta-E=       -0.000000000429 Rises=F Damp=F
 DIIS: error= 7.97D-07 at cycle  25 NSaved=  16.
 NSaved=16 IEnMin=16 EnMin= -3429.18114673147     IErMin=11 ErrMin= 3.80D-09
 ErrMax= 7.97D-07  0.00D+00 EMaxC= 1.00D-01 BMatC= 3.52D-10 BMatP= 9.16D-15
 IDIUse=1 WtCom= 1.00D+00 WtEn= 0.00D+00
 Large coefficients: NSaved= 16 BigCof=    0.00 CofMax=   10.00 Det=-1.47D-15
 Inversion failed.  Reducing to 15 matrices.
 Coeff-Com:  0.217D-03-0.103D-02-0.651D-02-0.188D-01 0.196D-01 0.236D+00
 Coeff-Com:  0.216D+00-0.158D+00 0.352D+00 0.337D+00 0.706D-01-0.324D-01
 Coeff-Com: -0.696D-01 0.976D-01-0.422D-01
 Coeff:      0.217D-03-0.103D-02-0.651D-02-0.188D-01 0.196D-01 0.236D+00
 Coeff:      0.216D+00-0.158D+00 0.352D+00 0.337D+00 0.706D-01-0.324D-01
 Coeff:     -0.696D-01 0.976D-01-0.422D-01
 Gap=     0.347 Goal=   None    Shift=    0.000
 RMSDP=7.97D-07 MaxDP=5.49D-05 DE=-4.29D-10 OVMax= 2.05D-07

 Cycle  26  Pass 1  IDiag  1:
 RMSU=  1.23D-08    CP:  1.00D+00  1.61D+00  1.53D+00 -3.00D+00  9.83D-01
 E= -3429.18114673443     Delta-E=       -0.000000002961 Rises=F Damp=F
 DIIS: error= 7.72D-07 at cycle  26 NSaved=  16.
 NSaved=16 IEnMin=16 EnMin= -3429.18114673443     IErMin=10 ErrMin= 1.41D-08
 ErrMax= 7.72D-07  0.00D+00 EMaxC= 1.00D-01 BMatC= 3.36D-10 BMatP= 1.13D-13
 IDIUse=1 WtCom= 1.00D+00 WtEn= 0.00D+00
 Large coefficients: NSaved= 16 BigCof=    0.00 CofMax=   10.00 Det=-2.44D-16
 Inversion failed.  Reducing to 15 matrices.
 Coeff-Com: -0.176D-03-0.126D-02-0.149D-02-0.326D-01-0.238D-02 0.302D+00
 Coeff-Com:  0.293D+00 0.110D+00 0.303D+00 0.137D+00-0.142D+00-0.355D+00
 Coeff-Com:  0.325D+00 0.156D-02 0.639D-01
 Coeff:     -0.176D-03-0.126D-02-0.149D-02-0.326D-01-0.238D-02 0.302D+00
 Coeff:      0.293D+00 0.110D+00 0.303D+00 0.137D+00-0.142D+00-0.355D+00
 Coeff:      0.325D+00 0.156D-02 0.639D-01
 Gap=     0.347 Goal=   None    Shift=    0.000
 RMSDP=9.54D-07 MaxDP=6.51D-05 DE=-2.96D-09 OVMax= 2.40D-07

 Cycle  27  Pass 1  IDiag  1:
 RMSU=  9.57D-09    CP:  1.00D+00  2.14D+00  1.39D+00  9.11D-01 -1.58D+00
                    CP: -1.48D-01
 E= -3429.18114673358     Delta-E=        0.000000000851 Rises=F Damp=F
 DIIS: error= 7.50D-07 at cycle  27 NSaved=  16.
 NSaved=16 IEnMin=15 EnMin= -3429.18114673443     IErMin= 9 ErrMin= 1.80D-08
 ErrMax= 7.50D-07  0.00D+00 EMaxC= 1.00D-01 BMatC= 3.23D-10 BMatP= 3.12D-13
 IDIUse=1 WtCom= 1.00D+00 WtEn= 0.00D+00
 Large coefficients: NSaved= 16 BigCof=    0.00 CofMax=   10.00 Det=-1.86D-16
 Inversion failed.  Reducing to 15 matrices.
 Coeff-Com: -0.203D-03-0.211D-02-0.618D-03-0.280D-01-0.162D-01 0.262D+00
 Coeff-Com:  0.342D+00 0.411D+00 0.218D-01-0.622D-01-0.150D+00 0.408D+00
 Coeff-Com: -0.125D+00 0.351D-01-0.956D-01
 Coeff:     -0.203D-03-0.211D-02-0.618D-03-0.280D-01-0.162D-01 0.262D+00
 Coeff:      0.342D+00 0.411D+00 0.218D-01-0.622D-01-0.150D+00 0.408D+00
 Coeff:     -0.125D+00 0.351D-01-0.956D-01
 Gap=     0.347 Goal=   None    Shift=    0.000
 RMSDP=2.58D-07 MaxDP=1.80D-05 DE= 8.51D-10 OVMax= 6.35D-08

 Cycle  28  Pass 1  IDiag  1:
 RMSU=  6.08D-09    CP:  1.00D+00  2.28D+00  1.14D+00  3.00D+00 -3.00D+00
                    CP: -1.01D+00  1.49D+00
 E= -3429.18114673593     Delta-E=       -0.000000002350 Rises=F Damp=F
 DIIS: error= 7.46D-07 at cycle  28 NSaved=  16.
 NSaved=16 IEnMin=16 EnMin= -3429.18114673593     IErMin= 8 ErrMin= 2.59D-08
 ErrMax= 7.46D-07  0.00D+00 EMaxC= 1.00D-01 BMatC= 3.20D-10 BMatP= 4.84D-13
 IDIUse=1 WtCom= 1.00D+00 WtEn= 0.00D+00
 Large coefficients: NSaved= 16 BigCof=    0.00 CofMax=   10.00 Det=-1.87D-16
 Inversion failed.  Reducing to 15 matrices.
 Coeff-Com: -0.163D-02 0.207D-03 0.175D-01-0.774D-01-0.971D-01 0.520D+00
 Coeff-Com:  0.606D+00 0.276D+00-0.475D-01-0.679D+00-0.450D-01 0.323D+00
 Coeff-Com:  0.160D+00-0.193D+00 0.240D+00
 Coeff:     -0.163D-02 0.207D-03 0.175D-01-0.774D-01-0.971D-01 0.520D+00
 Coeff:      0.606D+00 0.276D+00-0.475D-01-0.679D+00-0.450D-01 0.323D+00
 Coeff:      0.160D+00-0.193D+00 0.240D+00
 Gap=     0.347 Goal=   None    Shift=    0.000
 RMSDP=5.83D-07 MaxDP=3.96D-05 DE=-2.35D-09 OVMax= 1.51D-07

 Cycle  29  Pass 1  IDiag  1:
 RMSU=  2.50D-08    CP:  1.00D+00  2.61D+00  8.84D-01  1.03D+00 -3.00D+00
                    CP: -5.98D-01  9.90D-01 -5.49D-01
 E= -3429.18114673621     Delta-E=       -0.000000000284 Rises=F Damp=F
 DIIS: error= 7.28D-07 at cycle  29 NSaved=  16.
 NSaved=16 IEnMin=16 EnMin= -3429.18114673621     IErMin= 7 ErrMin= 3.37D-08
 ErrMax= 7.28D-07  0.00D+00 EMaxC= 1.00D-01 BMatC= 3.12D-10 BMatP= 5.73D-13
 IDIUse=1 WtCom= 1.00D+00 WtEn= 0.00D+00
 Large coefficients: NSaved= 16 BigCof=    0.00 CofMax=   10.00 Det=-1.39D-16
 Inversion failed.  Reducing to 15 matrices.
 Coeff-Com: -0.785D-03 0.563D-02 0.169D-01-0.170D+00 0.678D-01 0.104D+01
 Coeff-Com: -0.535D+00 0.734D-01 0.248D+01-0.640D+00-0.989D+00-0.457D+00
 Coeff-Com:  0.110D+01-0.111D+00-0.880D+00
 Coeff:     -0.785D-03 0.563D-02 0.169D-01-0.170D+00 0.678D-01 0.104D+01
 Coeff:     -0.535D+00 0.734D-01 0.248D+01-0.640D+00-0.989D+00-0.457D+00
 Coeff:      0.110D+01-0.111D+00-0.880D+00
 Gap=     0.347 Goal=   None    Shift=    0.000
 RMSDP=7.34D-07 MaxDP=5.33D-05 DE=-2.84D-10 OVMax= 1.96D-07

 Cycle  30  Pass 1  IDiag  1:
 RMSU=  4.32D-08    CP:  1.00D+00  3.00D+00  1.47D-01 -3.00D+00 -3.00D+00
                    CP:  1.51D+00 -1.81D+00 -3.00D+00  1.86D+00
 E= -3429.18114673842     Delta-E=       -0.000000002212 Rises=F Damp=F
 DIIS: error= 7.08D-07 at cycle  30 NSaved=  16.
 NSaved=16 IEnMin=16 EnMin= -3429.18114673842     IErMin= 6 ErrMin= 3.55D-08
 ErrMax= 7.08D-07  0.00D+00 EMaxC= 1.00D-01 BMatC= 3.06D-10 BMatP= 7.50D-13
 IDIUse=1 WtCom= 1.00D+00 WtEn= 0.00D+00
 Large coefficients: NSaved= 16 BigCof=    0.00 CofMax=   10.00 Det=-1.41D-16
 Inversion failed.  Reducing to 15 matrices.
 Coeff-Com:  0.141D-01-0.188D-01-0.100D+00 0.952D-01 0.954D+00-0.104D+01
 Coeff-Com:  0.644D+00-0.428D+00 0.488D+01-0.407D+01 0.213D+00 0.235D+01
 Coeff-Com: -0.191D+01 0.148D+00-0.725D+00
 Coeff:      0.141D-01-0.188D-01-0.100D+00 0.952D-01 0.954D+00-0.104D+01
 Coeff:      0.644D+00-0.428D+00 0.488D+01-0.407D+01 0.213D+00 0.235D+01
 Coeff:     -0.191D+01 0.148D+00-0.725D+00
 Gap=     0.347 Goal=   None    Shift=    0.000
 RMSDP=8.35D-07 MaxDP=6.64D-05 DE=-2.21D-09 OVMax= 2.27D-07

 Cycle  31  Pass 1  IDiag  1:
 RMSU=  7.69D-07    CP:  1.00D+00  3.00D+00  9.77D-01 -3.00D+00 -3.00D+00
                    CP:  3.00D+00 -3.00D+00 -3.00D+00  2.90D+00  3.00D+00
 E= -3429.18114674223     Delta-E=       -0.000000003805 Rises=F Damp=F
 DIIS: error= 7.03D-07 at cycle  31 NSaved=  16.
 NSaved=16 IEnMin=16 EnMin= -3429.18114674223     IErMin= 5 ErrMin= 4.20D-08
 ErrMax= 7.03D-07  0.00D+00 EMaxC= 1.00D-01 BMatC= 3.15D-10 BMatP= 1.26D-12
 IDIUse=1 WtCom= 1.00D+00 WtEn= 0.00D+00
 Large coefficients: NSaved= 16 BigCof=    0.00 CofMax=   10.00 Det=-1.40D-16
 Inversion failed.  Reducing to 15 matrices.
 Large coefficients: NSaved= 15 BigCof=   13.15 CofMax=   10.00 Det=-1.41D-16
 Inversion failed.  Reducing to 14 matrices.
 Large coefficients: NSaved= 14 BigCof=   37.67 CofMax=   10.00 Det=-1.41D-16
 Inversion failed.  Reducing to 13 matrices.
 Large coefficients: NSaved= 13 BigCof=   40.04 CofMax=   10.00 Det=-1.41D-16
 Inversion failed.  Reducing to 12 matrices.
 Large coefficients: NSaved= 12 BigCof=   95.55 CofMax=   10.00 Det=-1.43D-16
 Inversion failed.  Reducing to 11 matrices.
 Large coefficients: NSaved= 11 BigCof=  122.65 CofMax=   10.00 Det=-1.44D-16
 Inversion failed.  Reducing to 10 matrices.
 Large coefficients: NSaved= 10 BigCof=  131.62 CofMax=   10.00 Det=-2.09D-16
 Inversion failed.  Reducing to  9 matrices.
 Large coefficients: NSaved=  9 BigCof=  128.61 CofMax=   10.00 Det=-3.78D-16
 Inversion failed.  Reducing to  8 matrices.
 Large coefficients: NSaved=  8 BigCof=   82.42 CofMax=   10.00 Det=-6.97D-16
 Inversion failed.  Reducing to  7 matrices.
 Large coefficients: NSaved=  7 BigCof=   95.84 CofMax=   10.00 Det=-7.34D-16
 Inversion failed.  Reducing to  6 matrices.
 Large coefficients: NSaved=  6 BigCof=   85.25 CofMax=   10.00 Det=-7.38D-16
 Inversion failed.  Reducing to  5 matrices.
 Large coefficients: NSaved=  5 BigCof=   27.12 CofMax=   10.00 Det=-8.51D-15
 Inversion failed.  Reducing to  4 matrices.
 Large coefficients: NSaved=  4 BigCof=   62.62 CofMax=   10.00 Det=-1.15D-14
 Inversion failed.  Reducing to  3 matrices.
 Large coefficients: NSaved=  3 BigCof=   37.53 CofMax=   10.00 Det=-9.09D-14
 Inversion failed.  Reducing to  2 matrices.
 Large coefficients: NSaved=  2 BigCof=   20.58 CofMax=   10.00 Det=-2.07D-13
 Coeff-Com:  0.206D+02-0.196D+02
 Coeff:      0.206D+02-0.196D+02
 Gap=     0.347 Goal=   None    Shift=    0.000
 RMSDP=7.33D-06 MaxDP=3.80D-04 DE=-3.81D-09 OVMax= 2.67D-06

 Cycle  32  Pass 1  IDiag  1:
 RMSU=  2.61D-06    CP:  1.00D+00 -3.16D-01  3.00D+00 -3.00D+00  3.00D+00
                    CP:  3.00D+00  3.00D+00 -3.00D+00  2.90D+00  3.00D+00
                    CP: -5.80D-02
 E= -3429.18114672450     Delta-E=        0.000000017732 Rises=F Damp=F
 DIIS: error= 7.41D-07 at cycle  32 NSaved=   3.
 NSaved= 3 IEnMin= 2 EnMin= -3429.18114674223     IErMin= 2 ErrMin= 7.03D-07
 ErrMax= 7.41D-07  0.00D+00 EMaxC= 1.00D-01 BMatC= 4.64D-10 BMatP= 3.06D-10
 IDIUse=1 WtCom= 1.00D+00 WtEn= 0.00D+00
 Large coefficients: NSaved=  3 BigCof=   17.22 CofMax=   10.00 Det=-1.06D-13
 Inversion failed.  Reducing to  2 matrices.
 Coeff-Com:  0.210D+01-0.110D+01
 Coeff:      0.210D+01-0.110D+01
 Gap=     0.347 Goal=   None    Shift=    0.000
 RMSDP=2.44D-05 MaxDP=1.33D-03 DE= 1.77D-08 OVMax= 5.99D-06

 Cycle  33  Pass 1  IDiag  1:
 RMSU=  1.57D-05    CP:  1.00D+00  3.00D+00 -3.00D+00  3.00D+00  3.00D+00
                    CP: -3.00D+00 -3.00D+00 -3.00D+00 -3.00D+00  3.00D+00
                    CP:  3.00D+00 -4.53D-01
 E= -3429.18114675623     Delta-E=       -0.000000031730 Rises=F Damp=F
 DIIS: error= 4.80D-08 at cycle  33 NSaved=   3.
 NSaved= 3 IEnMin= 3 EnMin= -3429.18114675623     IErMin= 3 ErrMin= 4.80D-08
 ErrMax= 4.80D-08  0.00D+00 EMaxC= 1.00D-01 BMatC= 1.01D-11 BMatP= 3.15D-10
 IDIUse=1 WtCom= 1.00D+00 WtEn= 0.00D+00
 Coeff-Com:  0.106D+00-0.614D-01 0.956D+00
 Coeff:      0.106D+00-0.614D-01 0.956D+00
 Gap=     0.347 Goal=   None    Shift=    0.000
 RMSDP=8.51D-07 MaxDP=1.29D-04 DE=-3.17D-08 OVMax= 9.70D-07

 Cycle  34  Pass 1  IDiag  1:
 RMSU=  6.05D-07    CP:  1.00D+00  3.00D+00 -3.00D+00  3.00D+00  3.00D+00
                    CP: -3.00D+00 -3.00D+00 -3.00D+00 -3.00D+00  3.00D+00
                    CP:  3.00D+00 -2.48D-01  1.01D+00
 E= -3429.18114675639     Delta-E=       -0.000000000160 Rises=F Damp=F
 DIIS: error= 3.29D-08 at cycle  34 NSaved=   4.
 NSaved= 4 IEnMin= 4 EnMin= -3429.18114675639     IErMin= 4 ErrMin= 3.29D-08
 ErrMax= 3.29D-08  0.00D+00 EMaxC= 1.00D-01 BMatC= 4.74D-12 BMatP= 1.01D-11
 IDIUse=1 WtCom= 1.00D+00 WtEn= 0.00D+00
 Coeff-Com: -0.128D+00 0.118D+00 0.338D+00 0.672D+00
 Coeff:     -0.128D+00 0.118D+00 0.338D+00 0.672D+00
 Gap=     0.347 Goal=   None    Shift=    0.000
 RMSDP=6.37D-07 MaxDP=4.10D-05 DE=-1.60D-10 OVMax= 6.71D-07

 Cycle  35  Pass 1  IDiag  1:
 RMSU=  9.53D-08    CP:  1.00D+00  3.00D+00 -3.00D+00  3.00D+00  3.00D+00
                    CP: -3.00D+00 -3.00D+00 -3.00D+00 -3.00D+00  3.00D+00
                    CP:  3.00D+00 -1.91D-01  9.75D-01  1.13D+00
 E= -3429.18114675570     Delta-E=        0.000000000684 Rises=F Damp=F
 DIIS: error= 2.02D-08 at cycle  35 NSaved=   5.
 NSaved= 5 IEnMin= 4 EnMin= -3429.18114675639     IErMin= 5 ErrMin= 2.02D-08
 ErrMax= 2.02D-08  0.00D+00 EMaxC= 1.00D-01 BMatC= 7.10D-13 BMatP= 4.74D-12
 IDIUse=1 WtCom= 1.00D+00 WtEn= 0.00D+00
 Coeff-Com: -0.418D-01 0.521D-02-0.632D-01-0.946D-02 0.111D+01
 Coeff:     -0.418D-01 0.521D-02-0.632D-01-0.946D-02 0.111D+01
 Gap=     0.347 Goal=   None    Shift=    0.000
 RMSDP=5.58D-07 MaxDP=3.92D-05 DE= 6.84D-10 OVMax= 3.48D-07

 Cycle  36  Pass 1  IDiag  1:
 RMSU=  9.01D-08    CP:  1.00D+00  3.00D+00 -3.00D+00  3.00D+00  3.00D+00
                    CP: -3.00D+00 -3.00D+00 -3.00D+00 -3.00D+00  3.00D+00
                    CP:  3.00D+00 -2.23D-01  1.01D+00  1.14D+00  1.79D+00
 E= -3429.18114675671     Delta-E=       -0.000000001004 Rises=F Damp=F
 DIIS: error= 1.27D-08 at cycle  36 NSaved=   6.
 NSaved= 6 IEnMin= 6 EnMin= -3429.18114675671     IErMin= 6 ErrMin= 1.27D-08
 ErrMax= 1.27D-08  0.00D+00 EMaxC= 1.00D-01 BMatC= 1.42D-13 BMatP= 7.10D-13
 IDIUse=1 WtCom= 1.00D+00 WtEn= 0.00D+00
 Coeff-Com:  0.378D-02 0.715D-03-0.496D-01-0.103D+00-0.107D+00 0.126D+01
 Coeff:      0.378D-02 0.715D-03-0.496D-01-0.103D+00-0.107D+00 0.126D+01
 Gap=     0.347 Goal=   None    Shift=    0.000
 RMSDP=1.23D-07 MaxDP=9.78D-06 DE=-1.00D-09 OVMax= 3.18D-07

 Cycle  37  Pass 1  IDiag  1:
 RMSU=  9.38D-08    CP:  1.00D+00  3.00D+00 -3.00D+00  3.00D+00  3.00D+00
                    CP: -3.00D+00 -3.00D+00 -3.00D+00 -3.00D+00  3.00D+00
                    CP:  3.00D+00 -2.38D-01  1.00D+00  1.13D+00  1.78D+00
                    CP:  1.01D+00
 E= -3429.18114675523     Delta-E=        0.000000001477 Rises=F Damp=F
 DIIS: error= 9.49D-09 at cycle  37 NSaved=   7.
 NSaved= 7 IEnMin= 6 EnMin= -3429.18114675671     IErMin= 7 ErrMin= 9.49D-09
 ErrMax= 9.49D-09  0.00D+00 EMaxC= 1.00D-01 BMatC= 8.31D-14 BMatP= 1.42D-13
 IDIUse=1 WtCom= 1.00D+00 WtEn= 0.00D+00
 Coeff-Com:  0.648D-02 0.732D-02-0.213D-01-0.585D-01-0.353D+00 0.691D+00
 Coeff-Com:  0.727D+00
 Coeff:      0.648D-02 0.732D-02-0.213D-01-0.585D-01-0.353D+00 0.691D+00
 Coeff:      0.727D+00
 Gap=     0.347 Goal=   None    Shift=    0.000
 RMSDP=1.02D-07 MaxDP=6.78D-06 DE= 1.48D-09 OVMax= 1.66D-07

 Cycle  38  Pass 1  IDiag  1:
 RMSU=  4.37D-08    CP:  1.00D+00  3.00D+00 -3.00D+00  3.00D+00  3.00D+00
                    CP: -3.00D+00 -3.00D+00 -3.00D+00 -3.00D+00  3.00D+00
                    CP:  3.00D+00 -2.32D-01  1.00D+00  1.11D+00  1.87D+00
                    CP:  1.53D+00  6.32D-01
 E= -3429.18114675627     Delta-E=       -0.000000001040 Rises=F Damp=F
 DIIS: error= 7.00D-09 at cycle  38 NSaved=   8.
 NSaved= 8 IEnMin= 6 EnMin= -3429.18114675671     IErMin= 8 ErrMin= 7.00D-09
 ErrMax= 7.00D-09  0.00D+00 EMaxC= 1.00D-01 BMatC= 3.10D-14 BMatP= 8.31D-14
 IDIUse=1 WtCom= 1.00D+00 WtEn= 0.00D+00
 Coeff-Com: -0.865D-02 0.128D-01-0.624D-02-0.681D-02-0.180D+00 0.213D+00
 Coeff-Com:  0.418D+00 0.559D+00
 Coeff:     -0.865D-02 0.128D-01-0.624D-02-0.681D-02-0.180D+00 0.213D+00
 Coeff:      0.418D+00 0.559D+00
 Gap=     0.347 Goal=   None    Shift=    0.000
 RMSDP=3.69D-08 MaxDP=2.39D-06 DE=-1.04D-09 OVMax= 4.10D-08

 Cycle  39  Pass 1  IDiag  1:
 RMSU=  2.14D-08    CP:  1.00D+00  3.00D+00 -3.00D+00  3.00D+00  3.00D+00
                    CP: -3.00D+00 -3.00D+00 -3.00D+00 -3.00D+00  3.00D+00
                    CP:  3.00D+00 -2.28D-01  9.99D-01  1.12D+00  1.87D+00
                    CP:  1.50D+00  8.05D-01  1.03D+00
 E= -3429.18114675596     Delta-E=        0.000000000306 Rises=F Damp=F
 DIIS: error= 7.46D-09 at cycle  39 NSaved=   9.
 NSaved= 9 IEnMin= 6 EnMin= -3429.18114675671     IErMin= 8 ErrMin= 7.00D-09
 ErrMax= 7.46D-09  0.00D+00 EMaxC= 1.00D-01 BMatC= 2.76D-14 BMatP= 3.10D-14
 IDIUse=1 WtCom= 1.00D+00 WtEn= 0.00D+00
 Coeff-Com: -0.820D-02 0.127D-01-0.655D-02-0.827D-02-0.191D+00 0.224D+00
 Coeff-Com:  0.444D+00 0.602D+00-0.680D-01
 Coeff:     -0.820D-02 0.127D-01-0.655D-02-0.827D-02-0.191D+00 0.224D+00
 Coeff:      0.444D+00 0.602D+00-0.680D-01
 Gap=     0.347 Goal=   None    Shift=    0.000
 RMSDP=4.11D-09 MaxDP=3.84D-07 DE= 3.06D-10 OVMax= 1.06D-09

 SCF Done:  E(RHF) =  -3429.18114676     A.U. after   39 cycles
            NFock= 39  Conv=0.41D-08     -V/T= 2.0002
 KE= 3.428588135178D+03 PE=-3.642095176686D+04 EE= 1.535147718850D+04
 Leave Link  502 at Wed Oct 27 01:38:29 2021, MaxMem=  7864320000 cpu:          724997.0 elap:           22843.9
 (Enter /apps/gaussian/g16-c01-avx/g16/l508.exe)
 QCSCF skips out because SCF is already converged.
 Leave Link  508 at Wed Oct 27 01:38:30 2021, MaxMem=  7864320000 cpu:               0.0 elap:               0.0
 (Enter /apps/gaussian/g16-c01-avx/g16/l801.exe)
 ExpMin= 2.97D-02 ExpMax= 9.05D+03 ExpMxC= 3.09D+02 IAcc=3 IRadAn=         7 AccDes= 0.00D+00
 HarFok:  IExCor=  205 AccDes= 0.00D+00 IRadAn=         7 IDoV=-2 UseB2=F ITyADJ=14
 ICtDFT= 12500011 ScaDFX=  1.000000  1.000000  1.000000  1.000000
 GSVD:  LWork=       -7728 too small for GESVD, short by       36540 words or       36540 for optimal perf.
 Largest valence mixing into a core orbital is  1.19D-04
 Largest core mixing into a valence orbital is  4.70D-05
 Range of M.O.s used for correlation:    85  2662
 NBasis=  2688 NAE=   300 NBE=   300 NFC=    84 NFV=     0
 NROrb=   2578 NOA=   216 NOB=   216 NVA=  2362 NVB=  2362

 **** Warning!!: The largest alpha MO coefficient is  0.12985483D+03

 Leave Link  801 at Wed Oct 27 01:38:31 2021, MaxMem=  7864320000 cpu:              25.9 elap:               0.8
 (Enter /apps/gaussian/g16-c01-avx/g16/l906.exe)
 FulOut=F Deriv=F AODrv=F NAtomX=   168
   MMem=           0  MDisk=         216 MDiskD=         216
  W3Min=  1457108352 MinDsk=  1274457188 NBas6D=        2856
 NBas2D=     4083576    NTT=     4079796    LW2=     2000000
    MDV=  7832012542 MDiskM=       38077 NBas2p=     2227041
 Disk-based method using OVN memory for216 occupieds at a time.
 Estimated scratch disk usage=************ words.
 IMap=   1   2   3   4   5   6   7   8   9  10  11  12  13  14  15  16  17  18  19  20
 IMap=  21  22  23  24  25  26  27  28  29  30  31  32  33  34  35  36  37  38  39  40
 IMap=  41  42  43  44  45  46  47  48  49  50  51  52  53  54  55  56  57  58  59  60
 IMap=  61  62  63  64  65  66  67  68  69  70  71  72  73  74  75  76  77  78  79  80
 IMap=  81  82  83  84  85  86  87  88  89  90  91  92  93  94  95  96  97  98  99 100
 IMap= 101 102 103 104 105 106 107 108 109 110 111 112 113 114 115 116 117 118 119 120
 IMap= 121 122 123 124 125 126 127 128 129 130 131 132 133 134 135 136 137 138 139 140
 IMap= 141 142 143 144 145 146 147 148 149 150 151 152 153 154 155 156 157 158 159 160
 IMap= 161 162 163 164 165 166 167 168 169 170 171 172 173 174 175 176 177 178 179 180
 IMap= 181 182 183 184 185 186 187 188 189 190 191 192 193 194 195 196 197 198 199 200
 IMap= 201 202 203 204 205 206 207 208 209 210 211 212 213 214 215 216
 Actual    scratch disk usage=************ words.
 JobTyp=1 Pass  1:  I=   1 to 216 NPSUse= 32 ParTrn=T ParDer=T DoDerP=F.
