 Entering Gaussian System, Link 0=g16
 Initial command:
 /apps/gaussian/g16-c01-avx/g16/l1.exe "/rds/general/ephemeral/user/atarzia/ephemeral/Gau-1810580.inp" -scrdir="/rds/general/ephemeral/user/atarzia/ephemeral/"
 Entering Link 1 = /apps/gaussian/g16-c01-avx/g16/l1.exe PID=   1810581.
  
 Copyright (c) 1988-2019, Gaussian, Inc.  All Rights Reserved.
  
 This is part of the Gaussian(R) 16 program.  It is based on
 the Gaussian(R) 09 system (copyright 2009, Gaussian, Inc.),
 the Gaussian(R) 03 system (copyright 2003, Gaussian, Inc.),
 the Gaussian(R) 98 system (copyright 1998, Gaussian, Inc.),
 the Gaussian(R) 94 system (copyright 1995, Gaussian, Inc.),
 the Gaussian 92(TM) system (copyright 1992, Gaussian, Inc.),
 the Gaussian 90(TM) system (copyright 1990, Gaussian, Inc.),
 the Gaussian 88(TM) system (copyright 1988, Gaussian, Inc.),
 the Gaussian 86(TM) system (copyright 1986, Carnegie Mellon
 University), and the Gaussian 82(TM) system (copyright 1983,
 Carnegie Mellon University). Gaussian is a federally registered
 trademark of Gaussian, Inc.
  
 This software contains proprietary and confidential information,
 including trade secrets, belonging to Gaussian, Inc.
  
 This software is provided under written license and may be
 used, copied, transmitted, or stored only in accord with that
 written license.
  
 The following legend is applicable only to US Government
 contracts under FAR:
  
                    RESTRICTED RIGHTS LEGEND
  
 Use, reproduction and disclosure by the US Government is
 subject to restrictions as set forth in subparagraphs (a)
 and (c) of the Commercial Computer Software - Restricted
 Rights clause in FAR 52.227-19.
  
 Gaussian, Inc.
 340 Quinnipiac St., Bldg. 40, Wallingford CT 06492
  
  
 ---------------------------------------------------------------
 Warning -- This program may not be used in any manner that
 competes with the business of Gaussian, Inc. or will provide
 assistance to any competitor of Gaussian, Inc.  The licensee
 of this program is prohibited from giving any competitor of
 Gaussian, Inc. access to this program.  By using this program,
 the user acknowledges that Gaussian, Inc. is engaged in the
 business of creating and licensing software in the field of
 computational chemistry and represents and warrants to the
 licensee that it is not a competitor of Gaussian, Inc. and that
 it will not use this program in any manner prohibited above.
 ---------------------------------------------------------------
  

 Cite this work as:
 Gaussian 16, Revision C.01,
 M. J. Frisch, G. W. Trucks, H. B. Schlegel, G. E. Scuseria, 
 M. A. Robb, J. R. Cheeseman, G. Scalmani, V. Barone, 
 G. A. Petersson, H. Nakatsuji, X. Li, M. Caricato, A. V. Marenich, 
 J. Bloino, B. G. Janesko, R. Gomperts, B. Mennucci, H. P. Hratchian, 
 J. V. Ortiz, A. F. Izmaylov, J. L. Sonnenberg, D. Williams-Young, 
 F. Ding, F. Lipparini, F. Egidi, J. Goings, B. Peng, A. Petrone, 
 T. Henderson, D. Ranasinghe, V. G. Zakrzewski, J. Gao, N. Rega, 
 G. Zheng, W. Liang, M. Hada, M. Ehara, K. Toyota, R. Fukuda, 
 J. Hasegawa, M. Ishida, T. Nakajima, Y. Honda, O. Kitao, H. Nakai, 
 T. Vreven, K. Throssell, J. A. Montgomery, Jr., J. E. Peralta, 
 F. Ogliaro, M. J. Bearpark, J. J. Heyd, E. N. Brothers, K. N. Kudin, 
 V. N. Staroverov, T. A. Keith, R. Kobayashi, J. Normand, 
 K. Raghavachari, A. P. Rendell, J. C. Burant, S. S. Iyengar, 
 J. Tomasi, M. Cossi, J. M. Millam, M. Klene, C. Adamo, R. Cammi, 
 J. W. Ochterski, R. L. Martin, K. Morokuma, O. Farkas, 
 J. B. Foresman, and D. J. Fox, Gaussian, Inc., Wallingford CT, 2019.
 
 ******************************************
 Gaussian 16:  ES64L-G16RevC.01  3-Jul-2019
                18-Oct-2021 
 ******************************************
 %chk=_4_alde1_6_ami4_1_opt_gas.chk
 %mem=60000mb
 %nprocshared=32
 Will use up to   32 processors via shared memory.
 ----------------------------------------------------------------------
 #P PBE1PBE/Def2TZVP SP SCF=(YQC,MaxCycle=900) int=(Grid=Superfinegrid)
  EmpiricalDispersion=GD3
 ----------------------------------------------------------------------
 1/38=1,172=1/1;
 2/12=2,17=6,18=5,40=1/2;
 3/5=44,7=101,11=2,25=1,30=1,74=-13,75=-7,124=31/1,2,3;
 4//1;
 5/5=2,7=900,8=4,13=1,38=1/8,2,8;
 6/7=2,8=2,9=2,10=2,28=1/1;
 99/5=1,9=1/99;
 Leave Link    1 at Mon Oct 18 07:41:46 2021, MaxMem=  7864320000 cpu:               5.6 elap:               0.2
 (Enter /apps/gaussian/g16-c01-avx/g16/l101.exe)
 -------------------------
 _4_alde1_6_ami4_1_opt_gas
 -------------------------
 Symbolic Z-matrix:
 Charge =  0 Multiplicity = 1
 C                    -0.9699   -0.9966    4.1534 
 C                    -1.9854   -2.0401    4.1754 
 C                    -1.3361    0.3495    4.152 
 C                    -0.3682    1.347     4.1537 
 H                    -2.3875    0.5935    4.1603 
 C                     0.9807    0.9911    4.1485 
 C                     1.3605   -0.3458    4.1499 
 H                     1.7176    1.7797    4.154 
 C                     0.3779   -1.336     4.1483 
 C                     2.7719   -0.7041    4.168 
 H                     0.6923   -2.3685    4.1535 
 C                    -0.764     2.7482    4.1758 
 H                     3.478     0.1277    4.0203 
 H                    -1.6178   -3.0675    4.0284 
 H                    -1.8378    2.9437    4.0315 
 C                    -3.9696   -1.8479   -0.1116 
 C                    -4.5875   -1.7449    1.203 
 C                    -3.1935   -2.958    -0.4455 
 C                    -2.6213   -3.0686   -1.7073 
 H                    -3.0592   -3.73      0.2967 
 C                    -2.8227   -2.052    -2.6412 
 C                    -3.5934   -0.9401   -2.3227 
 H                    -2.3738   -2.1576   -3.617 
 C                    -4.1615   -0.8429   -1.0522 
 C                    -3.8152    0.1032   -3.3142 
 H                    -4.7602    0.0259   -0.8249 
 C                    -1.8327   -4.2437   -2.0509 
 H                    -3.2161    0.0229   -4.2344 
 H                    -5.0587   -0.7773    1.4348 
 H                    -1.6015   -4.9243   -1.2169 
 C                     3.5836   -2.5171   -0.1227 
 C                     3.8067   -3.1053    1.1906 
 C                     4.1554   -1.289    -0.4557 
 C                     3.9622   -0.7361   -1.7161 
 H                     4.7581   -0.7876    0.2861 
 C                     3.1809   -1.4177   -2.6495 
 C                     2.6049   -2.642    -2.3319 
 H                     3.0456   -0.9745   -3.6243 
 C                     2.8076   -3.1847   -1.0628 
 C                     1.8108   -3.3543   -3.3233 
 H                     2.3556   -4.1383   -0.8362 
 C                     4.5841    0.5354   -2.0587 
 H                     1.5793   -2.7939   -4.2423 
 H                     3.2048   -3.9974    1.4231 
 H                     5.0598    1.0744   -1.2248 
 C                     0.385     4.3637   -0.1145 
 C                     0.7863    4.8498    1.1983 
 C                    -0.9653    4.2456   -0.4446 
 C                    -1.3504    3.8031   -1.7046 
 H                    -1.6991    4.5163    0.2991 
 C                    -0.3716    3.468    -2.6405 
 C                     0.9775    3.5806   -2.3258 
 H                    -0.69      3.1303   -3.6148 
 C                     1.349     4.0263   -1.0571 
 C                     1.989     3.2498   -3.3198 
 H                     2.4013    4.1112   -0.8327 
 C                    -2.7631    3.7063   -2.0445 
 H                     1.617     2.7704   -4.2386 
 H                     1.8605    4.7745    1.4277 
 H                    -3.4663    3.8468   -1.209 
 C                    -4.1667   -2.8338    4.3843 
 C                    -5.214    -2.568     3.2915 
 N                    -3.2028   -1.7817    4.3768 
 N                    -4.6028   -2.7132    2.0103 
 H                    -5.6527   -1.5689    3.4438 
 H                    -5.9975   -3.3274    3.3734 
 H                    -3.716    -3.8261    4.2222 
 H                    -4.6702   -2.8156    5.3556 
 C                     4.5493   -2.1981    4.3705 
 C                     4.8384   -3.2379    3.2764 
 N                     3.1565   -1.8881    4.367 
 N                     4.6551   -2.6353    1.9961 
 H                     4.1922   -4.117     3.4304 
 H                     5.8878   -3.5378    3.3549 
 H                     5.1837   -1.3123    4.2069 
 H                     4.7876   -2.644     5.341 
 C                    -0.3596    5.0343    4.3819 
 C                     0.3915    5.8071    3.2862 
 N                     0.0692    3.6733    4.3744 
 N                    -0.0428    5.3484    2.0067 
 H                     1.4765    5.6879    3.4362 
 H                     0.1255    6.8654    3.3673 
 H                    -1.4447    5.1402    4.2226 
 H                    -0.0893    5.4621    5.3521 
 C                    -0.6859   -5.6365   -3.5262 
 C                     0.6544   -5.2049   -4.1419 
 N                    -1.4632   -4.4762   -3.2336 
 N                     1.4371   -4.5455   -3.1475 
 H                     0.4626   -4.5714   -5.0228 
 H                     1.1974   -6.1037   -4.4495 
 H                    -0.494    -6.2568   -2.636 
 H                    -1.2332   -6.2238   -4.2697 
 C                    -4.8418    2.0296   -4.1311 
 C                    -4.5457    3.4064   -3.5158 
 N                    -4.6596    1.0224   -3.1369 
 N                    -3.1517    3.501    -3.2261 
 H                    -5.1771    3.5496   -2.6243 
 H                    -4.7831    4.1739   -4.2588 
 H                    -4.1985    1.8796   -5.0129 
 H                    -5.8921    2.0078   -4.4371 
 C                     5.213     2.228    -3.5321 
 C                     4.1677    3.174    -4.1439 
 N                     4.5978    0.974    -3.2406 
 N                     3.2079    3.5211   -3.1466 
 H                     3.7127    2.6924   -5.0242 
 H                     4.674     4.094    -4.4516 
 H                     5.6561    2.7027   -2.642 
 H                     5.9938    2.0492   -4.2776 
 
 ITRead=  0  0  0  0  0  0  0  0  0  0  0  0  0  0  0  0  0  0  0  0
 ITRead=  0  0  0  0  0  0  0  0  0  0  0  0  0  0  0  0  0  0  0  0
 ITRead=  0  0  0  0  0  0  0  0  0  0  0  0  0  0  0  0  0  0  0  0
 ITRead=  0  0  0  0  0  0  0  0  0  0  0  0  0  0  0  0  0  0  0  0
 ITRead=  0  0  0  0  0  0  0  0  0  0  0  0  0  0  0  0  0  0  0  0
 ITRead=  0  0  0  0  0  0  0  0
 MicOpt= -1 -1 -1 -1 -1 -1 -1 -1 -1 -1 -1 -1 -1 -1 -1 -1 -1 -1 -1 -1
 MicOpt= -1 -1 -1 -1 -1 -1 -1 -1 -1 -1 -1 -1 -1 -1 -1 -1 -1 -1 -1 -1
 MicOpt= -1 -1 -1 -1 -1 -1 -1 -1 -1 -1 -1 -1 -1 -1 -1 -1 -1 -1 -1 -1
 MicOpt= -1 -1 -1 -1 -1 -1 -1 -1 -1 -1 -1 -1 -1 -1 -1 -1 -1 -1 -1 -1
 MicOpt= -1 -1 -1 -1 -1 -1 -1 -1 -1 -1 -1 -1 -1 -1 -1 -1 -1 -1 -1 -1
 MicOpt= -1 -1 -1 -1 -1 -1 -1 -1
 NAtoms=    108 NQM=      108 NQMF=       0 NMMI=      0 NMMIF=      0
                NMic=       0 NMicF=      0.
                    Isotopes and Nuclear Properties:
 (Nuclear quadrupole moments (NQMom) in fm**2, nuclear magnetic moments (NMagM)
  in nuclear magnetons)

  Atom         1           2           3           4           5           6           7           8           9          10
 IAtWgt=          12          12          12          12           1          12          12           1          12          12
 AtmWgt=  12.0000000  12.0000000  12.0000000  12.0000000   1.0078250  12.0000000  12.0000000   1.0078250  12.0000000  12.0000000
 NucSpn=           0           0           0           0           1           0           0           1           0           0
 AtZEff=  -0.0000000  -0.0000000  -0.0000000  -0.0000000  -0.0000000  -0.0000000  -0.0000000  -0.0000000  -0.0000000  -0.0000000
 NQMom=    0.0000000   0.0000000   0.0000000   0.0000000   0.0000000   0.0000000   0.0000000   0.0000000   0.0000000   0.0000000
 NMagM=    0.0000000   0.0000000   0.0000000   0.0000000   2.7928460   0.0000000   0.0000000   2.7928460   0.0000000   0.0000000
 AtZNuc=   6.0000000   6.0000000   6.0000000   6.0000000   1.0000000   6.0000000   6.0000000   1.0000000   6.0000000   6.0000000

  Atom        11          12          13          14          15          16          17          18          19          20
 IAtWgt=           1          12           1           1           1          12          12          12          12           1
 AtmWgt=   1.0078250  12.0000000   1.0078250   1.0078250   1.0078250  12.0000000  12.0000000  12.0000000  12.0000000   1.0078250
 NucSpn=           1           0           1           1           1           0           0           0           0           1
 AtZEff=  -0.0000000  -0.0000000  -0.0000000  -0.0000000  -0.0000000  -0.0000000  -0.0000000  -0.0000000  -0.0000000  -0.0000000
 NQMom=    0.0000000   0.0000000   0.0000000   0.0000000   0.0000000   0.0000000   0.0000000   0.0000000   0.0000000   0.0000000
 NMagM=    2.7928460   0.0000000   2.7928460   2.7928460   2.7928460   0.0000000   0.0000000   0.0000000   0.0000000   2.7928460
 AtZNuc=   1.0000000   6.0000000   1.0000000   1.0000000   1.0000000   6.0000000   6.0000000   6.0000000   6.0000000   1.0000000

  Atom        21          22          23          24          25          26          27          28          29          30
 IAtWgt=          12          12           1          12          12           1          12           1           1           1
 AtmWgt=  12.0000000  12.0000000   1.0078250  12.0000000  12.0000000   1.0078250  12.0000000   1.0078250   1.0078250   1.0078250
 NucSpn=           0           0           1           0           0           1           0           1           1           1
 AtZEff=  -0.0000000  -0.0000000  -0.0000000  -0.0000000  -0.0000000  -0.0000000  -0.0000000  -0.0000000  -0.0000000  -0.0000000
 NQMom=    0.0000000   0.0000000   0.0000000   0.0000000   0.0000000   0.0000000   0.0000000   0.0000000   0.0000000   0.0000000
 NMagM=    0.0000000   0.0000000   2.7928460   0.0000000   0.0000000   2.7928460   0.0000000   2.7928460   2.7928460   2.7928460
 AtZNuc=   6.0000000   6.0000000   1.0000000   6.0000000   6.0000000   1.0000000   6.0000000   1.0000000   1.0000000   1.0000000

  Atom        31          32          33          34          35          36          37          38          39          40
 IAtWgt=          12          12          12          12           1          12          12           1          12          12
 AtmWgt=  12.0000000  12.0000000  12.0000000  12.0000000   1.0078250  12.0000000  12.0000000   1.0078250  12.0000000  12.0000000
 NucSpn=           0           0           0           0           1           0           0           1           0           0
 AtZEff=  -0.0000000  -0.0000000  -0.0000000  -0.0000000  -0.0000000  -0.0000000  -0.0000000  -0.0000000  -0.0000000  -0.0000000
 NQMom=    0.0000000   0.0000000   0.0000000   0.0000000   0.0000000   0.0000000   0.0000000   0.0000000   0.0000000   0.0000000
 NMagM=    0.0000000   0.0000000   0.0000000   0.0000000   2.7928460   0.0000000   0.0000000   2.7928460   0.0000000   0.0000000
 AtZNuc=   6.0000000   6.0000000   6.0000000   6.0000000   1.0000000   6.0000000   6.0000000   1.0000000   6.0000000   6.0000000

  Atom        41          42          43          44          45          46          47          48          49          50
 IAtWgt=           1          12           1           1           1          12          12          12          12           1
 AtmWgt=   1.0078250  12.0000000   1.0078250   1.0078250   1.0078250  12.0000000  12.0000000  12.0000000  12.0000000   1.0078250
 NucSpn=           1           0           1           1           1           0           0           0           0           1
 AtZEff=  -0.0000000  -0.0000000  -0.0000000  -0.0000000  -0.0000000  -0.0000000  -0.0000000  -0.0000000  -0.0000000  -0.0000000
 NQMom=    0.0000000   0.0000000   0.0000000   0.0000000   0.0000000   0.0000000   0.0000000   0.0000000   0.0000000   0.0000000
 NMagM=    2.7928460   0.0000000   2.7928460   2.7928460   2.7928460   0.0000000   0.0000000   0.0000000   0.0000000   2.7928460
 AtZNuc=   1.0000000   6.0000000   1.0000000   1.0000000   1.0000000   6.0000000   6.0000000   6.0000000   6.0000000   1.0000000

  Atom        51          52          53          54          55          56          57          58          59          60
 IAtWgt=          12          12           1          12          12           1          12           1           1           1
 AtmWgt=  12.0000000  12.0000000   1.0078250  12.0000000  12.0000000   1.0078250  12.0000000   1.0078250   1.0078250   1.0078250
 NucSpn=           0           0           1           0           0           1           0           1           1           1
 AtZEff=  -0.0000000  -0.0000000  -0.0000000  -0.0000000  -0.0000000  -0.0000000  -0.0000000  -0.0000000  -0.0000000  -0.0000000
 NQMom=    0.0000000   0.0000000   0.0000000   0.0000000   0.0000000   0.0000000   0.0000000   0.0000000   0.0000000   0.0000000
 NMagM=    0.0000000   0.0000000   2.7928460   0.0000000   0.0000000   2.7928460   0.0000000   2.7928460   2.7928460   2.7928460
 AtZNuc=   6.0000000   6.0000000   1.0000000   6.0000000   6.0000000   1.0000000   6.0000000   1.0000000   1.0000000   1.0000000

  Atom        61          62          63          64          65          66          67          68          69          70
 IAtWgt=          12          12          14          14           1           1           1           1          12          12
 AtmWgt=  12.0000000  12.0000000  14.0030740  14.0030740   1.0078250   1.0078250   1.0078250   1.0078250  12.0000000  12.0000000
 NucSpn=           0           0           2           2           1           1           1           1           0           0
 AtZEff=  -0.0000000  -0.0000000  -0.0000000  -0.0000000  -0.0000000  -0.0000000  -0.0000000  -0.0000000  -0.0000000  -0.0000000
 NQMom=    0.0000000   0.0000000   2.0440000   2.0440000   0.0000000   0.0000000   0.0000000   0.0000000   0.0000000   0.0000000
 NMagM=    0.0000000   0.0000000   0.4037610   0.4037610   2.7928460   2.7928460   2.7928460   2.7928460   0.0000000   0.0000000
 AtZNuc=   6.0000000   6.0000000   7.0000000   7.0000000   1.0000000   1.0000000   1.0000000   1.0000000   6.0000000   6.0000000

  Atom        71          72          73          74          75          76          77          78          79          80
 IAtWgt=          14          14           1           1           1           1          12          12          14          14
 AtmWgt=  14.0030740  14.0030740   1.0078250   1.0078250   1.0078250   1.0078250  12.0000000  12.0000000  14.0030740  14.0030740
 NucSpn=           2           2           1           1           1           1           0           0           2           2
 AtZEff=  -0.0000000  -0.0000000  -0.0000000  -0.0000000  -0.0000000  -0.0000000  -0.0000000  -0.0000000  -0.0000000  -0.0000000
 NQMom=    2.0440000   2.0440000   0.0000000   0.0000000   0.0000000   0.0000000   0.0000000   0.0000000   2.0440000   2.0440000
 NMagM=    0.4037610   0.4037610   2.7928460   2.7928460   2.7928460   2.7928460   0.0000000   0.0000000   0.4037610   0.4037610
 AtZNuc=   7.0000000   7.0000000   1.0000000   1.0000000   1.0000000   1.0000000   6.0000000   6.0000000   7.0000000   7.0000000

  Atom        81          82          83          84          85          86          87          88          89          90
 IAtWgt=           1           1           1           1          12          12          14          14           1           1
 AtmWgt=   1.0078250   1.0078250   1.0078250   1.0078250  12.0000000  12.0000000  14.0030740  14.0030740   1.0078250   1.0078250
 NucSpn=           1           1           1           1           0           0           2           2           1           1
 AtZEff=  -0.0000000  -0.0000000  -0.0000000  -0.0000000  -0.0000000  -0.0000000  -0.0000000  -0.0000000  -0.0000000  -0.0000000
 NQMom=    0.0000000   0.0000000   0.0000000   0.0000000   0.0000000   0.0000000   2.0440000   2.0440000   0.0000000   0.0000000
 NMagM=    2.7928460   2.7928460   2.7928460   2.7928460   0.0000000   0.0000000   0.4037610   0.4037610   2.7928460   2.7928460
 AtZNuc=   1.0000000   1.0000000   1.0000000   1.0000000   6.0000000   6.0000000   7.0000000   7.0000000   1.0000000   1.0000000

  Atom        91          92          93          94          95          96          97          98          99         100
 IAtWgt=           1           1          12          12          14          14           1           1           1           1
 AtmWgt=   1.0078250   1.0078250  12.0000000  12.0000000  14.0030740  14.0030740   1.0078250   1.0078250   1.0078250   1.0078250
 NucSpn=           1           1           0           0           2           2           1           1           1           1
 AtZEff=  -0.0000000  -0.0000000  -0.0000000  -0.0000000  -0.0000000  -0.0000000  -0.0000000  -0.0000000  -0.0000000  -0.0000000
 NQMom=    0.0000000   0.0000000   0.0000000   0.0000000   2.0440000   2.0440000   0.0000000   0.0000000   0.0000000   0.0000000
 NMagM=    2.7928460   2.7928460   0.0000000   0.0000000   0.4037610   0.4037610   2.7928460   2.7928460   2.7928460   2.7928460
 AtZNuc=   1.0000000   1.0000000   6.0000000   6.0000000   7.0000000   7.0000000   1.0000000   1.0000000   1.0000000   1.0000000

  Atom       101         102         103         104         105         106         107         108
 IAtWgt=          12          12          14          14           1           1           1           1
 AtmWgt=  12.0000000  12.0000000  14.0030740  14.0030740   1.0078250   1.0078250   1.0078250   1.0078250
 NucSpn=           0           0           2           2           1           1           1           1
 AtZEff=  -0.0000000  -0.0000000  -0.0000000  -0.0000000  -0.0000000  -0.0000000  -0.0000000  -0.0000000
 NQMom=    0.0000000   0.0000000   2.0440000   2.0440000   0.0000000   0.0000000   0.0000000   0.0000000
 NMagM=    0.0000000   0.0000000   0.4037610   0.4037610   2.7928460   2.7928460   2.7928460   2.7928460
 AtZNuc=   6.0000000   6.0000000   7.0000000   7.0000000   1.0000000   1.0000000   1.0000000   1.0000000
 Leave Link  101 at Mon Oct 18 07:41:46 2021, MaxMem=  7864320000 cpu:               3.0 elap:               0.1
 (Enter /apps/gaussian/g16-c01-avx/g16/l202.exe)
 Stoichiometry    C48H48N12
 Framework group  C1[X(C48H48N12)]
 Deg. of freedom   318
 Full point group                 C1      NOp   1
 Largest Abelian subgroup         C1      NOp   1
 Largest concise Abelian subgroup C1      NOp   1
                         Standard orientation:                         
 ---------------------------------------------------------------------
 Center     Atomic      Atomic             Coordinates (Angstroms)
 Number     Number       Type             X           Y           Z
 ---------------------------------------------------------------------
      1          6           0        1.568266    2.145484   -3.481721
      2          6           0        0.724245    1.874099   -4.636967
      3          6           0        2.668235    1.334750   -3.200886
      4          6           0        3.488103    1.605408   -2.111667
      5          1           0        2.870003    0.501381   -3.856503
      6          6           0        3.197297    2.695358   -1.290896
      7          6           0        2.104892    3.511859   -1.558347
      8          1           0        3.847780    2.891889   -0.452333
      9          6           0        1.291019    3.227942   -2.655161
     10          6           0        1.825670    4.660222   -0.707433
     11          1           0        0.449766    3.875724   -2.849074
     12          6           0        4.646595    0.764942   -1.843301
     13          1           0        2.423406    4.728241    0.214721
     14          1           0       -0.200148    2.468560   -4.703343
     15          1           0        4.720931   -0.153031   -2.446534
     16          6           0       -1.586744   -2.092260   -3.505736
     17          6           0       -0.748698   -1.803276   -4.661050
     18          6           0       -2.685160   -1.285866   -3.206813
     19          6           0       -3.499205   -1.573081   -2.117491
     20          1           0       -2.890209   -0.442615   -3.848500
     21          6           0       -3.204281   -2.675449   -1.314988
     22          6           0       -2.113227   -3.487753   -1.600478
     23          1           0       -3.850224   -2.884831   -0.476081
     24          6           0       -1.305139   -3.187094   -2.697271
     25          6           0       -1.829598   -4.648925   -0.768627
     26          1           0       -0.465009   -3.831894   -2.905441
     27          6           0       -4.656361   -0.736860   -1.830199
     28          1           0       -2.422501   -4.730918    0.155429
     29          1           0        0.175208   -2.396544   -4.741298
     30          1           0       -4.733610    0.190285   -2.418977
     31          6           0       -2.121413    3.477754    1.611671
     32          6           0       -1.847665    4.640179    0.778399
     33          6           0       -1.306138    3.180906    2.704045
     34          6           0       -1.578306    2.084751    3.513985
     35          1           0       -0.468000    3.829673    2.907864
     36          6           0       -2.674476    1.273141    3.220822
     37          6           0       -3.495499    1.556519    2.135846
     38          1           0       -2.872180    0.428880    3.863553
     39          6           0       -3.209960    2.660215    1.331764
     40          6           0       -4.650154    0.714782    1.854611
     41          1           0       -3.861397    2.866490    0.496249
     42          6           0       -0.732898    1.799655    4.665007
     43          1           0       -4.720122   -0.212668    2.443799
     44          1           0       -2.445762    4.719412   -0.142570
     45          1           0        0.188606    2.397433    4.740470
     46          6           0        3.506663   -1.588727    2.093387
     47          6           0        4.659842   -0.742761    1.818982
     48          6           0        3.216867   -2.680092    1.274141
     49          6           0        2.129751   -3.501869    1.547216
     50          1           0        3.863845   -2.873557    0.432226
     51          6           0        1.320262   -3.221832    2.648378
     52          6           0        1.596705   -2.138012    3.473422
     53          1           0        0.483247   -3.873582    2.846641
     54          6           0        2.691404   -1.322032    3.186939
     55          6           0        0.757437   -1.870599    4.633041
     56          1           0        2.892529   -0.487707    3.841423
     57          6           0        1.851597   -4.651484    0.697723
     58          1           0       -0.163802   -2.469473    4.704250
     59          1           0        4.732781    0.175644    2.421819
     60          1           0        2.444837   -4.716574   -0.227545
     61          6           0        0.189063    0.790598   -6.629773
     62          6           0       -0.223979   -0.689602   -6.639996
     63          7           0        1.048322    1.030670   -5.516169
     64          7           0       -1.077390   -0.946520   -5.525633
     65          1           0        0.680114   -1.319259   -6.638684
     66          1           0       -0.800466   -0.879975   -7.550320
     67          1           0       -0.715064    1.420183   -6.614165
     68          1           0        0.760747    0.994936   -7.540097
     69          6           0        0.723826    6.639253   -0.158280
     70          6           0       -0.755095    6.632568    0.259532
     71          7           0        0.971954    5.532280   -1.023755
     72          7           0       -0.997994    5.511369    1.107945
     73          1           0       -1.387770    6.629687   -0.642588
     74          1           0       -0.952746    7.538004    0.841307
     75          1           0        1.356439    6.625514    0.743653
     76          1           0        0.917115    7.554417   -0.726258
     77          6           0        6.637111    0.229757   -0.755324
     78          6           0        6.641980   -0.198067    0.720776
     79          7           0        5.519994    1.085371   -0.992435
     80          7           0        5.530275   -1.059072    0.963521
     81          1           0        6.633396    0.699745    1.359363
     82          1           0        7.554059   -0.772254    0.909861
     83          1           0        6.629466   -0.668074   -1.393974
     84          1           0        7.545389    0.808353   -0.949286
     85          6           0       -6.641017   -0.218365   -0.723919
     86          6           0       -6.638094    0.186836    0.758503
     87          7           0       -5.525248   -1.070252   -0.979757
     88          7           0       -5.525041    1.044044    1.008636
     89          1           0       -6.626240   -0.720602    1.383412
     90          1           0       -7.549059    0.758133    0.961160
     91          1           0       -6.636723    0.689133   -1.348805
     92          1           0       -7.550294   -0.793954   -0.921814
     93          6           0       -0.724944   -6.636100   -0.255668
     94          6           0        0.756192   -6.635701    0.154309
     95          7           0       -0.977578   -5.515979   -1.102774
     96          7           0        1.003655   -5.527521    1.018490
     97          1           0        1.384003   -6.618915   -0.750963
     98          1           0        0.956834   -7.549936    0.721214
     99          1           0       -1.352717   -6.636095    0.649765
    100          1           0       -0.921306   -7.542423   -0.836411
    101          6           0       -0.192549    0.688477    6.641019
    102          6           0        0.227493   -0.789792    6.628695
    103          7           0       -1.052978    0.941352    5.531210
    104          7           0        1.082131   -1.025691    5.510551
    105          1           0       -0.673638   -1.423617    6.617744
    106          1           0        0.804972   -0.991347    7.536061
    107          1           0        0.708535    1.322487    6.635082
    108          1           0       -0.765225    0.876138    7.554373
 ---------------------------------------------------------------------
 Rotational constants (GHZ):           0.0329773           0.0329561           0.0329482
 Leave Link  202 at Mon Oct 18 07:41:46 2021, MaxMem=  7864320000 cpu:               0.2 elap:               0.0
 (Enter /apps/gaussian/g16-c01-avx/g16/l301.exe)
 Standard basis: def2TZVP (5D, 7F)
 Ernie: Thresh=  0.10000D-02 Tol=  0.10000D-05 Strict=F.
 There are  2448 symmetry adapted cartesian basis functions of A   symmetry.
 There are  2148 symmetry adapted basis functions of A   symmetry.
  2148 basis functions,  3444 primitive gaussians,  2448 cartesian basis functions
   210 alpha electrons      210 beta electrons
       nuclear repulsion energy      8114.9989576954 Hartrees.
 IExCor= 1009 DFT=T Ex+Corr=PBE1PBE ExCW=0 ScaHFX=  0.250000
 ScaDFX=  0.750000  0.750000  1.000000  1.000000 ScalE2=  1.000000  1.000000
 IRadAn=      7 IRanWt=     -1 IRanGd=            0 ICorTp=0 IEmpDi=131
 NAtoms=  108 NActive=  108 NUniq=  108 SFac= 1.00D+00 NAtFMM=   60 NAOKFM=T Big=T
 Integral buffers will be    131072 words long.
 Raffenetti 2 integral format.
 Two-electron integral symmetry is turned on.
 R6Disp:  Grimme-D3 Dispersion energy=       -0.0751206096 Hartrees.
 Nuclear repulsion after empirical dispersion term =     8114.9238370858 Hartrees.
 Leave Link  301 at Mon Oct 18 07:41:46 2021, MaxMem=  7864320000 cpu:               1.3 elap:               0.1
 (Enter /apps/gaussian/g16-c01-avx/g16/l302.exe)
 NPDir=0 NMtPBC=     1 NCelOv=     1 NCel=       1 NClECP=     1 NCelD=      1
         NCelK=      1 NCelE2=     1 NClLst=     1 CellRange=     0.0.
 One-electron integrals computed using PRISM.
 One-electron integral symmetry used in STVInt
   1 Symmetry operations used in ECPInt.
 ECPInt:  NShTT=  363378 NPrTT= 1109280 LenC2=  236893 LenP2D=  454377.
 LDataN:  DoStor=T MaxTD1= 6 Len=  172
 NBasis=  2148 RedAO= T EigKep=  6.03D-06  NBF=  2148
 NBsUse=  2148 1.00D-06 EigRej= -1.00D+00 NBFU=  2148
 Precomputing XC quadrature grid using
 IXCGrd= 4 IRadAn=           7 IRanWt=          -1 IRanGd=           0 AccXCQ= 0.00D+00.
 Generated NRdTot=       0 NPtTot=           0 NUsed=           0 NTot=          32
 NSgBfM=  2007  1968  1984  1991  2007 MxSgAt=   108 MxSgA2=   108.
 Leave Link  302 at Mon Oct 18 07:42:01 2021, MaxMem=  7864320000 cpu:             479.0 elap:              15.1
 (Enter /apps/gaussian/g16-c01-avx/g16/l303.exe)
 DipDrv:  MaxL=1.
 Leave Link  303 at Mon Oct 18 07:42:02 2021, MaxMem=  7864320000 cpu:              24.0 elap:               0.9
 (Enter /apps/gaussian/g16-c01-avx/g16/l401.exe)
 ExpMin= 9.52D-02 ExpMax= 1.97D+04 ExpMxC= 6.73D+02 IAcc=3 IRadAn=         7 AccDes= 0.00D+00
 Harris functional with IExCor= 1009 and IRadAn=       7 diagonalized for initial guess.
 HarFok:  IExCor= 1009 AccDes= 0.00D+00 IRadAn=         7 IDoV= 1 UseB2=F ITyADJ=14
 ICtDFT=  3500011 ScaDFX=  1.000000  1.000000  1.000000  1.000000
 FoFCou: FMM=F IPFlag=           0 FMFlag=      100000 FMFlg1=        2001
         NFxFlg=           0 DoJE=T BraDBF=F KetDBF=T FulRan=T
         wScrn=  0.000000 ICntrl=       500 IOpCl=  0 I1Cent=   200000004 NGrid=           0
         NMat0=    1 NMatS0=      1 NMatT0=    0 NMatD0=    1 NMtDS0=    0 NMtDT0=    0
 Petite list used in FoFCou.
 Harris En= -2513.45941133529    
 JPrj=0 DoOrth=F DoCkMO=F.
 Leave Link  401 at Mon Oct 18 07:42:36 2021, MaxMem=  7864320000 cpu:            1082.7 elap:              34.1
 (Enter /apps/gaussian/g16-c01-avx/g16/l508.exe)
 Integral symmetry usage will be decided dynamically.
 Tight linear equation convergence will be used.
 RPBE1PBE wavefunction.
 Linear searches until partial convergence.
 Full line searches.
 Fock matrices will be formed incrementally for  20 cycles.
 FoFJK:  IHMeth= 1 ICntrl=       0 DoSepK=F KAlg= 0 I1Cent=           0 FoldK=F
 IRaf= 610000000 NMat=       1 IRICut=       1 DoRegI=T DoRafI=F ISym2E= 1 IDoP0=0 IntGTp=1.
 FoFCou: FMM=T IPFlag=           0 FMFlag=      100000 FMFlg1=        2001
         NFxFlg=           0 DoJE=F BraDBF=F KetDBF=F FulRan=T
         wScrn=  0.000000 ICntrl=         0 IOpCl=  0 I1Cent=           0 NGrid=           0
         NMat0=    1 NMatS0=      1 NMatT0=    0 NMatD0=    1 NMtDS0=    0 NMtDT0=    0
 Petite list used in FoFCou.
 FMM levels:  10  Number of levels for PrismC:   9
 Iteration   1 EE= -2511.87809605903                                    Grad=1.516D+00 Max rot=    2.2953 deg.
 Gradient too large for Newton-Raphson -- use scaled steepest descent instead.
 Alpha Gap=     0.195 HL deriv= 1.58D-05
     ILin= 1 X=0.000D+00 Y=-2.511878096059D+03 DE= 0.00D+00 F= -4.01D+00
 RMSU=  6.68D-04    CP:  1.01D+00
     ILin= 2 X=3.000D-01 Y=-2.512706793887D+03 DE=-8.29D-01 F= -1.50D+00 OKLS=F
 RMSU=  1.29D-04    CP:  1.03D+00  1.79D+00
     ILin= 3 X=5.000D-01 Y=-2.512836718488D+03 DE=-9.59D-01 F=  2.06D-01
 RMSU=  1.67D-04    CP:  1.05D+00  3.00D+00  3.00D+00
     ILin= 4 X=8.000D-01 Y=-2.512386712336D+03 DE=-5.09D-01 F=  2.80D+00
     An  expanding polynomial of degree  4 produced  0.4761
     Minimum is close to point  3 DX= -2.39D-02 DF= -2.44D-03 DXR=  5.01D-02 DFR=  2.55D-03 which will be used.
 Iteration   2 EE= -2512.83671848792     Delta-E=       -0.958622428889 Grad=4.710D-01 Max rot=    1.0873 deg.
 Gradient too large for Newton-Raphson -- use scaled steepest descent instead.
 Alpha Gap=     0.204 HL deriv= 9.63D-06
     ILin= 1 X=0.000D+00 Y=-2.512836718488D+03 DE= 0.00D+00 F= -2.59D-01
 RMSU=  1.32D-04    CP:  1.02D+00  1.80D+00  9.97D-01  1.59D-03
     ILin= 2 X=4.000D-01 Y=-2.512891854427D+03 DE=-5.51D-02 F= -1.75D-02 OKLS=F
 RMSU=  4.95D-06    CP:  1.02D+00  1.82D+00  1.02D+00  2.80D-03  1.75D+00
     ILin= 3 X=7.000D-01 Y=-2.512870152430D+03 DE=-3.34D-02 F=  1.62D-01
     An  expanding polynomial of degree  3 produced  0.4295
     Minimum is close to point  2 DX=  2.95D-02 DF= -2.62D-04 DXR=  6.88D-02 DFR=  4.75D-03 which will be used.
 Iteration   3 EE= -2512.89185442741     Delta-E=       -0.055135939490 Grad=2.338D-01 Max rot=    0.5653 deg.
 Gradient too large for Newton-Raphson -- use scaled steepest descent instead.
 Alpha Gap=     0.200 HL deriv= 1.20D-05
     ILin= 1 X=0.000D+00 Y=-2.512891854427D+03 DE= 0.00D+00 F= -4.05D-02
 RMSU=  6.47D-05    CP:  1.03D+00  2.03D+00  1.42D+00  2.90D-03  1.49D+00
                    CP:  1.38D+00
     ILin= 2 X=5.000D-01 Y=-2.512902615008D+03 DE=-1.08D-02 F= -2.54D-03 OKLS=T
     Reject lnstep IMin12=  1  2 Big=T Turn=F Min= 6.023D-01 FVal=-2.512902941084D+03 Lims=  0.00D+00  5.00D-01
 RMSU=  3.72D-06    CP:  1.03D+00  2.22D+00  1.82D+00  4.00D-03  1.89D+00
                    CP:  3.00D+00  1.82D+00
     ILin= 3 X=9.000D-01 Y=-2.512897556917D+03 DE=-5.70D-03 F=  2.78D-02
     An  expanding polynomial of degree  3 produced  0.5335
     Minimum is close to point  2 DX=  3.35D-02 DF= -4.25D-05 DXR=  6.27D-02 DFR=  3.95D-03 which will be used.
 Iteration   4 EE= -2512.90261500806     Delta-E=       -0.010760580655 Grad=1.154D-01 Max rot=    0.3039 deg.
 Gradient too large for Newton-Raphson -- use scaled steepest descent instead.
 Alpha Gap=     0.203 HL deriv= 6.48D-06
     ILin= 1 X=0.000D+00 Y=-2.512902615008D+03 DE= 0.00D+00 F= -1.17D-02
 RMSU=  2.66D-05    CP:  1.03D+00  2.08D+00  1.51D+00  3.63D-03  1.80D+00
                    CP:  2.71D+00  1.06D+00  9.57D-01
     ILin= 2 X=5.000D-01 Y=-2.512905007893D+03 DE=-2.39D-03 F=  2.08D-03 OKLS=T
     Accept linear search using points  1 and  2.
     An  expanding polynomial of degree  2 produced  0.3052
 RMSU=  8.13D-08    CP:  1.03D+00  2.06D+00  1.47D+00  3.34D-03  1.68D+00
                    CP:  2.17D+00  1.04D+00  5.72D-01  6.10D-01
 Iteration   5 EE= -2512.90489203589     Delta-E=       -0.002277027834 Grad=7.225D-02 Max rot=    0.1933 deg.
 Gradient too large for Newton-Raphson -- use scaled steepest descent instead.
 Alpha Gap=     0.202 HL deriv= 5.33D-07
     ILin= 1 X=0.000D+00 Y=-2.512904892036D+03 DE= 0.00D+00 F= -2.38D-03
 RMSU=  3.37D-06    CP:  1.03D+00  2.12D+00  1.59D+00  3.74D-03  1.83D+00
                    CP:  2.96D+00  1.25D+00  1.15D+00  1.01D+00 -5.41D-01
     ILin= 2 X=4.000D-01 Y=-2.512905639990D+03 DE=-7.48D-04 F= -1.36D-03 OKLS=F
 RMSU=  4.09D-06    CP:  1.03D+00  2.17D+00  1.71D+00  4.14D-03  1.98D+00
                    CP:  3.00D+00  1.47D+00  1.82D+00  1.41D+00 -3.00D+00
                    CP:  2.00D+00
     ILin= 3 X=8.000D-01 Y=-2.512905983092D+03 DE=-1.09D-03 F= -3.52D-04
 RMSU=  4.19D-06    CP:  1.03D+00  2.29D+00  1.96D+00  4.96D-03  2.28D+00
                    CP:  3.00D+00  1.91D+00  3.00D+00  2.23D+00 -3.00D+00
                    CP:  3.00D+00  3.00D+00
     ILin= 4 X=1.600D+00 Y=-2.512905454473D+03 DE=-5.62D-04 F=  1.67D-03
     An  expanding polynomial of degree  4 produced  0.9389
 RMSU=  1.05D-07    CP:  1.03D+00  2.19D+00  1.75D+00  4.28D-03  2.03D+00
                    CP:  3.00D+00  1.55D+00  2.08D+00  1.55D+00 -3.00D+00
                    CP:  2.35D+00  1.38D+00  5.51D-03
 Iteration   6 EE= -2512.90600752100     Delta-E=       -0.001115485104 Grad=7.522D-03 Max rot=    0.0214 deg.
 SCF Done:  E(RPBE1PBE) =  -2512.90600752     a.u. after    6 cycles
            Convg  =    0.7522D-02                    14 Fock formations.
              S**2 =  0.0000                  -V/T =  2.0046
 Leave Link  508 at Mon Oct 18 08:25:09 2021, MaxMem=  7864320000 cpu:           80939.5 elap:            2553.2
 (Enter /apps/gaussian/g16-c01-avx/g16/l502.exe)
 Integral symmetry usage will be decided dynamically.
 Closed shell SCF:
 Using DIIS extrapolation, IDIIS=  1040.
 NGot=  7864320000 LenX=  7852232570 LenY=  7846237418
 Requested convergence on RMS density matrix=1.00D-08 within 128 cycles.
 Requested convergence on MAX density matrix=1.00D-06.
 Requested convergence on             energy=1.00D-06.
 No special actions if energy rises.
 Fock matrices will be formed incrementally for  20 cycles.

 Cycle   1  Pass 1  IDiag  1:
 FoFJK:  IHMeth= 1 ICntrl=       0 DoSepK=F KAlg= 0 I1Cent=           0 FoldK=F
 IRaf= 610000000 NMat=       1 IRICut=       1 DoRegI=T DoRafI=F ISym2E= 0 IDoP0=0 IntGTp=1.
 FoFCou: FMM=T IPFlag=           0 FMFlag=      100000 FMFlg1=        2001
         NFxFlg=           0 DoJE=F BraDBF=F KetDBF=F FulRan=T
         wScrn=  0.000000 ICntrl=         0 IOpCl=  0 I1Cent=           0 NGrid=           0
         NMat0=    1 NMatS0=      1 NMatT0=    0 NMatD0=    1 NMtDS0=    0 NMtDT0=    0
 Symmetry not used in FoFCou.
 FMM levels:  10  Number of levels for PrismC:   9
 E= -2512.90600752100    
 DIIS: error= 7.14D-05 at cycle   1 NSaved=   1.
 NSaved= 1 IEnMin= 1 EnMin= -2512.90600752100     IErMin= 1 ErrMin= 7.14D-05
 ErrMax= 7.14D-05  0.00D+00 EMaxC= 1.00D-01 BMatC= 2.83D-05 BMatP= 2.83D-05
 IDIUse=1 WtCom= 1.00D+00 WtEn= 0.00D+00
 Coeff-Com:  0.100D+01
 Coeff:      0.100D+01
 Gap=     0.202 Goal=   None    Shift=    0.000
 RMSDP=1.85D-05 MaxDP=1.88D-03              OVMax= 1.52D-03

 Cycle   2  Pass 1  IDiag  1:
 RMSU=  1.81D-05    CP:  1.00D+00
 E= -2512.90600279108     Delta-E=        0.000004729927 Rises=F Damp=F
 DIIS: error= 1.11D-04 at cycle   2 NSaved=   2.
 NSaved= 2 IEnMin= 1 EnMin= -2512.90600752100     IErMin= 1 ErrMin= 7.14D-05
 ErrMax= 1.11D-04  0.00D+00 EMaxC= 1.00D-01 BMatC= 3.65D-05 BMatP= 2.83D-05
 IDIUse=3 WtCom= 4.86D-01 WtEn= 5.14D-01
 Coeff-Com:  0.541D+00 0.459D+00
 Coeff-En:   0.548D+00 0.452D+00
 Coeff:      0.545D+00 0.455D+00
 Gap=     0.194 Goal=   None    Shift=    0.000
 RMSDP=1.09D-05 MaxDP=2.11D-03 DE= 4.73D-06 OVMax= 1.22D-03

 Cycle   3  Pass 1  IDiag  1:
 RMSU=  9.55D-06    CP:  1.00D+00  1.10D+00
 E= -2512.90602904386     Delta-E=       -0.000026252788 Rises=F Damp=F
 DIIS: error= 5.07D-05 at cycle   3 NSaved=   3.
 NSaved= 3 IEnMin= 3 EnMin= -2512.90602904386     IErMin= 3 ErrMin= 5.07D-05
 ErrMax= 5.07D-05  0.00D+00 EMaxC= 1.00D-01 BMatC= 7.76D-06 BMatP= 2.83D-05
 IDIUse=1 WtCom= 1.00D+00 WtEn= 0.00D+00
 Coeff-Com:  0.607D-01 0.312D+00 0.627D+00
 Coeff:      0.607D-01 0.312D+00 0.627D+00
 Gap=     0.194 Goal=   None    Shift=    0.000
 RMSDP=2.48D-06 MaxDP=4.82D-04 DE=-2.63D-05 OVMax= 4.02D-04

 Cycle   4  Pass 1  IDiag  1:
 RMSU=  9.13D-07    CP:  1.00D+00  1.11D+00  7.80D-01
 E= -2512.90603634503     Delta-E=       -0.000007301162 Rises=F Damp=F
 DIIS: error= 4.28D-06 at cycle   4 NSaved=   4.
 NSaved= 4 IEnMin= 4 EnMin= -2512.90603634503     IErMin= 4 ErrMin= 4.28D-06
 ErrMax= 4.28D-06  0.00D+00 EMaxC= 1.00D-01 BMatC= 7.66D-08 BMatP= 7.76D-06
 IDIUse=1 WtCom= 1.00D+00 WtEn= 0.00D+00
 Coeff-Com: -0.348D-02 0.692D-01 0.187D+00 0.748D+00
 Coeff:     -0.348D-02 0.692D-01 0.187D+00 0.748D+00
 Gap=     0.194 Goal=   None    Shift=    0.000
 RMSDP=4.06D-07 MaxDP=3.41D-05 DE=-7.30D-06 OVMax= 4.76D-05

 Cycle   5  Pass 1  IDiag  1:
 RMSU=  3.53D-07    CP:  1.00D+00  1.11D+00  7.68D-01  8.69D-01
 E= -2512.90603640213     Delta-E=       -0.000000057100 Rises=F Damp=F
 DIIS: error= 3.27D-06 at cycle   5 NSaved=   5.
 NSaved= 5 IEnMin= 5 EnMin= -2512.90603640213     IErMin= 5 ErrMin= 3.27D-06
 ErrMax= 3.27D-06  0.00D+00 EMaxC= 1.00D-01 BMatC= 2.24D-08 BMatP= 7.66D-08
 IDIUse=1 WtCom= 1.00D+00 WtEn= 0.00D+00
 Coeff-Com: -0.540D-02 0.131D-01 0.514D-01 0.412D+00 0.529D+00
 Coeff:     -0.540D-02 0.131D-01 0.514D-01 0.412D+00 0.529D+00
 Gap=     0.194 Goal=   None    Shift=    0.000
 RMSDP=1.56D-07 MaxDP=1.87D-05 DE=-5.71D-08 OVMax= 1.91D-05

 Cycle   6  Pass 1  IDiag  1:
 RMSU=  6.01D-08    CP:  1.00D+00  1.12D+00  7.74D-01  9.13D-01  7.37D-01
 E= -2512.90603642392     Delta-E=       -0.000000021797 Rises=F Damp=F
 DIIS: error= 3.11D-07 at cycle   6 NSaved=   6.
 NSaved= 6 IEnMin= 6 EnMin= -2512.90603642392     IErMin= 6 ErrMin= 3.11D-07
 ErrMax= 3.11D-07  0.00D+00 EMaxC= 1.00D-01 BMatC= 3.77D-10 BMatP= 2.24D-08
 IDIUse=1 WtCom= 1.00D+00 WtEn= 0.00D+00
 Coeff-Com: -0.150D-02-0.156D-03 0.474D-02 0.904D-01 0.161D+00 0.746D+00
 Coeff:     -0.150D-02-0.156D-03 0.474D-02 0.904D-01 0.161D+00 0.746D+00
 Gap=     0.194 Goal=   None    Shift=    0.000
 RMSDP=2.47D-08 MaxDP=3.51D-06 DE=-2.18D-08 OVMax= 5.66D-06

 Cycle   7  Pass 1  IDiag  1:
 RMSU=  1.89D-08    CP:  1.00D+00  1.12D+00  7.73D-01  9.18D-01  7.30D-01
                    CP:  1.09D+00
 E= -2512.90603642438     Delta-E=       -0.000000000453 Rises=F Damp=F
 DIIS: error= 2.10D-07 at cycle   7 NSaved=   7.
 NSaved= 7 IEnMin= 7 EnMin= -2512.90603642438     IErMin= 7 ErrMin= 2.10D-07
 ErrMax= 2.10D-07  0.00D+00 EMaxC= 1.00D-01 BMatC= 9.32D-11 BMatP= 3.77D-10
 IDIUse=1 WtCom= 1.00D+00 WtEn= 0.00D+00
 Coeff-Com: -0.305D-03-0.127D-02-0.207D-02 0.773D-02 0.269D-01 0.350D+00
 Coeff-Com:  0.619D+00
 Coeff:     -0.305D-03-0.127D-02-0.207D-02 0.773D-02 0.269D-01 0.350D+00
 Coeff:      0.619D+00
 Gap=     0.194 Goal=   None    Shift=    0.000
 RMSDP=1.18D-08 MaxDP=1.26D-06 DE=-4.53D-10 OVMax= 2.08D-06

 Cycle   8  Pass 1  IDiag  1:
 RMSU=  6.09D-09    CP:  1.00D+00  1.12D+00  7.73D-01  9.17D-01  7.53D-01
                    CP:  1.08D+00  8.69D-01
 E= -2512.90603642457     Delta-E=       -0.000000000193 Rises=F Damp=F
 DIIS: error= 5.99D-08 at cycle   8 NSaved=   8.
 NSaved= 8 IEnMin= 8 EnMin= -2512.90603642457     IErMin= 8 ErrMin= 5.99D-08
 ErrMax= 5.99D-08  0.00D+00 EMaxC= 1.00D-01 BMatC= 6.27D-12 BMatP= 9.32D-11
 IDIUse=1 WtCom= 1.00D+00 WtEn= 0.00D+00
 Coeff-Com:  0.130D-03-0.465D-03-0.151D-02-0.108D-01-0.157D-01 0.975D-02
 Coeff-Com:  0.209D+00 0.809D+00
 Coeff:      0.130D-03-0.465D-03-0.151D-02-0.108D-01-0.157D-01 0.975D-02
 Coeff:      0.209D+00 0.809D+00
 Gap=     0.194 Goal=   None    Shift=    0.000
 RMSDP=3.12D-09 MaxDP=1.72D-07 DE=-1.93D-10 OVMax= 1.10D-06

 SCF Done:  E(RPBE1PBE) =  -2512.90603642     A.U. after    8 cycles
            NFock=  8  Conv=0.31D-08     -V/T= 2.0045
 KE= 2.501600897882D+03 PE=-2.207449277043D+04 EE= 8.945061999040D+03
 Leave Link  502 at Mon Oct 18 08:48:23 2021, MaxMem=  7864320000 cpu:           44156.3 elap:            1393.5
 (Enter /apps/gaussian/g16-c01-avx/g16/l508.exe)
 QCSCF skips out because SCF is already converged.
 Leave Link  508 at Mon Oct 18 08:48:23 2021, MaxMem=  7864320000 cpu:               0.9 elap:               0.0
 (Enter /apps/gaussian/g16-c01-avx/g16/l601.exe)
 Copying SCF densities to generalized density rwf, IOpCl= 0 IROHF=0.
 Hyperfine terms turned off by default for NAtoms > 100.

 **********************************************************************

            Population analysis using the SCF Density.

 **********************************************************************

 Orbital symmetries:
       Occupied  (A) (A) (A) (A) (A) (A) (A) (A) (A) (A) (A) (A)
                 (A) (A) (A) (A) (A) (A) (A) (A) (A) (A) (A) (A)
                 (A) (A) (A) (A) (A) (A) (A) (A) (A) (A) (A) (A)
                 (A) (A) (A) (A) (A) (A) (A) (A) (A) (A) (A) (A)
                 (A) (A) (A) (A) (A) (A) (A) (A) (A) (A) (A) (A)
                 (A) (A) (A) (A) (A) (A) (A) (A) (A) (A) (A) (A)
                 (A) (A) (A) (A) (A) (A) (A) (A) (A) (A) (A) (A)
                 (A) (A) (A) (A) (A) (A) (A) (A) (A) (A) (A) (A)
                 (A) (A) (A) (A) (A) (A) (A) (A) (A) (A) (A) (A)
                 (A) (A) (A) (A) (A) (A) (A) (A) (A) (A) (A) (A)
                 (A) (A) (A) (A) (A) (A) (A) (A) (A) (A) (A) (A)
                 (A) (A) (A) (A) (A) (A) (A) (A) (A) (A) (A) (A)
                 (A) (A) (A) (A) (A) (A) (A) (A) (A) (A) (A) (A)
                 (A) (A) (A) (A) (A) (A) (A) (A) (A) (A) (A) (A)
                 (A) (A) (A) (A) (A) (A) (A) (A) (A) (A) (A) (A)
                 (A) (A) (A) (A) (A) (A) (A) (A) (A) (A) (A) (A)
                 (A) (A) (A) (A) (A) (A) (A) (A) (A) (A) (A) (A)
                 (A) (A) (A) (A) (A) (A)
       Virtual   (A) (A) (A) (A) (A) (A) (A) (A) (A) (A) (A) (A)
                 (A) (A) (A) (A) (A) (A) (A) (A) (A) (A) (A) (A)
                 (A) (A) (A) (A) (A) (A) (A) (A) (A) (A) (A) (A)
                 (A) (A) (A) (A) (A) (A) (A) (A) (A) (A) (A) (A)
                 (A) (A) (A) (A) (A) (A) (A) (A) (A) (A) (A) (A)
                 (A) (A) (A) (A) (A) (A) (A) (A) (A) (A) (A) (A)
                 (A) (A) (A) (A) (A) (A) (A) (A) (A) (A) (A) (A)
                 (A) (A) (A) (A) (A) (A) (A) (A) (A) (A) (A) (A)
                 (A) (A) (A) (A) (A) (A) (A) (A) (A) (A) (A) (A)
                 (A) (A) (A) (A) (A) (A) (A) (A) (A) (A) (A) (A)
                 (A) (A) (A) (A) (A) (A) (A) (A) (A) (A) (A) (A)
                 (A) (A) (A) (A) (A) (A) (A) (A) (A) (A) (A) (A)
                 (A) (A) (A) (A) (A) (A) (A) (A) (A) (A) (A) (A)
                 (A) (A) (A) (A) (A) (A) (A) (A) (A) (A) (A) (A)
                 (A) (A) (A) (A) (A) (A) (A) (A) (A) (A) (A) (A)
                 (A) (A) (A) (A) (A) (A) (A) (A) (A) (A) (A) (A)
                 (A) (A) (A) (A) (A) (A) (A) (A) (A) (A) (A) (A)
                 (A) (A) (A) (A) (A) (A) (A) (A) (A) (A) (A) (A)
                 (A) (A) (A) (A) (A) (A) (A) (A) (A) (A) (A) (A)
                 (A) (A) (A) (A) (A) (A) (A) (A) (A) (A) (A) (A)
                 (A) (A) (A) (A) (A) (A) (A) (A) (A) (A) (A) (A)
                 (A) (A) (A) (A) (A) (A) (A) (A) (A) (A) (A) (A)
                 (A) (A) (A) (A) (A) (A) (A) (A) (A) (A) (A) (A)
                 (A) (A) (A) (A) (A) (A) (A) (A) (A) (A) (A) (A)
                 (A) (A) (A) (A) (A) (A) (A) (A) (A) (A) (A) (A)
                 (A) (A) (A) (A) (A) (A) (A) (A) (A) (A) (A) (A)
                 (A) (A) (A) (A) (A) (A) (A) (A) (A) (A) (A) (A)
                 (A) (A) (A) (A) (A) (A) (A) (A) (A) (A) (A) (A)
                 (A) (A) (A) (A) (A) (A) (A) (A) (A) (A) (A) (A)
                 (A) (A) (A) (A) (A) (A) (A) (A) (A) (A) (A) (A)
                 (A) (A) (A) (A) (A) (A) (A) (A) (A) (A) (A) (A)
                 (A) (A) (A) (A) (A) (A) (A) (A) (A) (A) (A) (A)
                 (A) (A) (A) (A) (A) (A) (A) (A) (A) (A) (A) (A)
                 (A) (A) (A) (A) (A) (A) (A) (A) (A) (A) (A) (A)
                 (A) (A) (A) (A) (A) (A) (A) (A) (A) (A) (A) (A)
                 (A) (A) (A) (A) (A) (A) (A) (A) (A) (A) (A) (A)
                 (A) (A) (A) (A) (A) (A) (A) (A) (A) (A) (A) (A)
                 (A) (A) (A) (A) (A) (A) (A) (A) (A) (A) (A) (A)
                 (A) (A) (A) (A) (A) (A) (A) (A) (A) (A) (A) (A)
                 (A) (A) (A) (A) (A) (A) (A) (A) (A) (A) (A) (A)
                 (A) (A) (A) (A) (A) (A) (A) (A) (A) (A) (A) (A)
                 (A) (A) (A) (A) (A) (A) (A) (A) (A) (A) (A) (A)
                 (A) (A) (A) (A) (A) (A) (A) (A) (A) (A) (A) (A)
                 (A) (A) (A) (A) (A) (A) (A) (A) (A) (A) (A) (A)
                 (A) (A) (A) (A) (A) (A) (A) (A) (A) (A) (A) (A)
                 (A) (A) (A) (A) (A) (A) (A) (A) (A) (A) (A) (A)
                 (A) (A) (A) (A) (A) (A) (A) (A) (A) (A) (A) (A)
                 (A) (A) (A) (A) (A) (A) (A) (A) (A) (A) (A) (A)
                 (A) (A) (A) (A) (A) (A) (A) (A) (A) (A) (A) (A)
                 (A) (A) (A) (A) (A) (A) (A) (A) (A) (A) (A) (A)
                 (A) (A) (A) (A) (A) (A) (A) (A) (A) (A) (A) (A)
                 (A) (A) (A) (A) (A) (A) (A) (A) (A) (A) (A) (A)
                 (A) (A) (A) (A) (A) (A) (A) (A) (A) (A) (A) (A)
                 (A) (A) (A) (A) (A) (A) (A) (A) (A) (A) (A) (A)
                 (A) (A) (A) (A) (A) (A) (A) (A) (A) (A) (A) (A)
                 (A) (A) (A) (A) (A) (A) (A) (A) (A) (A) (A) (A)
                 (A) (A) (A) (A) (A) (A) (A) (A) (A) (A) (A) (A)
                 (A) (A) (A) (A) (A) (A) (A) (A) (A) (A) (A) (A)
                 (A) (A) (A) (A) (A) (A) (A) (A) (A) (A) (A) (A)
                 (A) (A) (A) (A) (A) (A) (A) (A) (A) (A) (A) (A)
                 (A) (A) (A) (A) (A) (A) (A) (A) (A) (A) (A) (A)
                 (A) (A) (A) (A) (A) (A) (A) (A) (A) (A) (A) (A)
                 (A) (A) (A) (A) (A) (A) (A) (A) (A) (A) (A) (A)
                 (A) (A) (A) (A) (A) (A) (A) (A) (A) (A) (A) (A)
                 (A) (A) (A) (A) (A) (A) (A) (A) (A) (A) (A) (A)
                 (A) (A) (A) (A) (A) (A) (A) (A) (A) (A) (A) (A)
                 (A) (A) (A) (A) (A) (A) (A) (A) (A) (A) (A) (A)
                 (A) (A) (A) (A) (A) (A) (A) (A) (A) (A) (A) (A)
                 (A) (A) (A) (A) (A) (A) (A) (A) (A) (A) (A) (A)
                 (A) (A) (A) (A) (A) (A) (A) (A) (A) (A) (A) (A)
                 (A) (A) (A) (A) (A) (A) (A) (A) (A) (A) (A) (A)
                 (A) (A) (A) (A) (A) (A) (A) (A) (A) (A) (A) (A)
                 (A) (A) (A) (A) (A) (A) (A) (A) (A) (A) (A) (A)
                 (A) (A) (A) (A) (A) (A) (A) (A) (A) (A) (A) (A)
                 (A) (A) (A) (A) (A) (A) (A) (A) (A) (A) (A) (A)
                 (A) (A) (A) (A) (A) (A) (A) (A) (A) (A) (A) (A)
                 (A) (A) (A) (A) (A) (A) (A) (A) (A) (A) (A) (A)
                 (A) (A) (A) (A) (A) (A) (A) (A) (A) (A) (A) (A)
                 (A) (A) (A) (A) (A) (A) (A) (A) (A) (A) (A) (A)
                 (A) (A) (A) (A) (A) (A) (A) (A) (A) (A) (A) (A)
                 (A) (A) (A) (A) (A) (A) (A) (A) (A) (A) (A) (A)
                 (A) (A) (A) (A) (A) (A) (A) (A) (A) (A) (A) (A)
                 (A) (A) (A) (A) (A) (A) (A) (A) (A) (A) (A) (A)
                 (A) (A) (A) (A) (A) (A) (A) (A) (A) (A) (A) (A)
                 (A) (A) (A) (A) (A) (A) (A) (A) (A) (A) (A) (A)
                 (A) (A) (A) (A) (A) (A) (A) (A) (A) (A) (A) (A)
                 (A) (A) (A) (A) (A) (A) (A) (A) (A) (A) (A) (A)
                 (A) (A) (A) (A) (A) (A) (A) (A) (A) (A) (A) (A)
                 (A) (A) (A) (A) (A) (A) (A) (A) (A) (A) (A) (A)
                 (A) (A) (A) (A) (A) (A) (A) (A) (A) (A) (A) (A)
                 (A) (A) (A) (A) (A) (A) (A) (A) (A) (A) (A) (A)
                 (A) (A) (A) (A) (A) (A) (A) (A) (A) (A) (A) (A)
                 (A) (A) (A) (A) (A) (A) (A) (A) (A) (A) (A) (A)
                 (A) (A) (A) (A) (A) (A) (A) (A) (A) (A) (A) (A)
                 (A) (A) (A) (A) (A) (A) (A) (A) (A) (A) (A) (A)
                 (A) (A) (A) (A) (A) (A) (A) (A) (A) (A) (A) (A)
                 (A) (A) (A) (A) (A) (A) (A) (A) (A) (A) (A) (A)
                 (A) (A) (A) (A) (A) (A) (A) (A) (A) (A) (A) (A)
                 (A) (A) (A) (A) (A) (A) (A) (A) (A) (A) (A) (A)
                 (A) (A) (A) (A) (A) (A) (A) (A) (A) (A) (A) (A)
                 (A) (A) (A) (A) (A) (A) (A) (A) (A) (A) (A) (A)
                 (A) (A) (A) (A) (A) (A) (A) (A) (A) (A) (A) (A)
                 (A) (A) (A) (A) (A) (A) (A) (A) (A) (A) (A) (A)
                 (A) (A) (A) (A) (A) (A) (A) (A) (A) (A) (A) (A)
                 (A) (A) (A) (A) (A) (A) (A) (A) (A) (A) (A) (A)
                 (A) (A) (A) (A) (A) (A) (A) (A) (A) (A) (A) (A)
                 (A) (A) (A) (A) (A) (A) (A) (A) (A) (A) (A) (A)
                 (A) (A) (A) (A) (A) (A) (A) (A) (A) (A) (A) (A)
                 (A) (A) (A) (A) (A) (A) (A) (A) (A) (A) (A) (A)
                 (A) (A) (A) (A) (A) (A) (A) (A) (A) (A) (A) (A)
                 (A) (A) (A) (A) (A) (A) (A) (A) (A) (A) (A) (A)
                 (A) (A) (A) (A) (A) (A) (A) (A) (A) (A) (A) (A)
                 (A) (A) (A) (A) (A) (A) (A) (A) (A) (A) (A) (A)
                 (A) (A) (A) (A) (A) (A) (A) (A) (A) (A) (A) (A)
                 (A) (A) (A) (A) (A) (A) (A) (A) (A) (A) (A) (A)
                 (A) (A) (A) (A) (A) (A) (A) (A) (A) (A) (A) (A)
                 (A) (A) (A) (A) (A) (A) (A) (A) (A) (A) (A) (A)
                 (A) (A) (A) (A) (A) (A) (A) (A) (A) (A) (A) (A)
                 (A) (A) (A) (A) (A) (A) (A) (A) (A) (A) (A) (A)
                 (A) (A) (A) (A) (A) (A) (A) (A) (A) (A) (A) (A)
                 (A) (A) (A) (A) (A) (A) (A) (A) (A) (A) (A) (A)
                 (A) (A) (A) (A) (A) (A) (A) (A) (A) (A) (A) (A)
                 (A) (A) (A) (A) (A) (A) (A) (A) (A) (A) (A) (A)
                 (A) (A) (A) (A) (A) (A) (A) (A) (A) (A) (A) (A)
                 (A) (A) (A) (A) (A) (A) (A) (A) (A) (A) (A) (A)
                 (A) (A) (A) (A) (A) (A) (A) (A) (A) (A) (A) (A)
                 (A) (A) (A) (A) (A) (A) (A) (A) (A) (A) (A) (A)
                 (A) (A) (A) (A) (A) (A) (A) (A) (A) (A) (A) (A)
                 (A) (A) (A) (A) (A) (A) (A) (A) (A) (A) (A) (A)
                 (A) (A) (A) (A) (A) (A) (A) (A) (A) (A) (A) (A)
                 (A) (A) (A) (A) (A) (A) (A) (A) (A) (A) (A) (A)
                 (A) (A) (A) (A) (A) (A) (A) (A) (A) (A) (A) (A)
                 (A) (A) (A) (A) (A) (A) (A) (A) (A) (A) (A) (A)
                 (A) (A) (A) (A) (A) (A) (A) (A) (A) (A) (A) (A)
                 (A) (A) (A) (A) (A) (A) (A) (A) (A) (A) (A) (A)
                 (A) (A) (A) (A) (A) (A) (A) (A) (A) (A) (A) (A)
                 (A) (A) (A) (A) (A) (A) (A) (A) (A) (A) (A) (A)
                 (A) (A) (A) (A) (A) (A) (A) (A) (A) (A) (A) (A)
                 (A) (A) (A) (A) (A) (A) (A) (A) (A) (A) (A) (A)
                 (A) (A) (A) (A) (A) (A) (A) (A) (A) (A) (A) (A)
                 (A) (A) (A) (A) (A) (A) (A) (A) (A) (A) (A) (A)
                 (A) (A) (A) (A) (A) (A) (A) (A) (A) (A) (A) (A)
                 (A) (A) (A) (A) (A) (A) (A) (A) (A) (A) (A) (A)
                 (A) (A) (A) (A) (A) (A) (A) (A) (A) (A) (A) (A)
                 (A) (A) (A) (A) (A) (A) (A) (A) (A) (A) (A) (A)
                 (A) (A) (A) (A) (A) (A) (A) (A) (A) (A) (A) (A)
                 (A) (A) (A) (A) (A) (A) (A) (A) (A) (A) (A) (A)
                 (A) (A) (A) (A) (A) (A) (A) (A) (A) (A) (A) (A)
                 (A) (A) (A) (A) (A) (A) (A) (A) (A) (A) (A) (A)
                 (A) (A) (A) (A) (A) (A) (A) (A) (A) (A) (A) (A)
                 (A) (A) (A) (A) (A) (A) (A) (A) (A) (A) (A) (A)
                 (A) (A) (A) (A) (A) (A) (A) (A) (A) (A) (A) (A)
                 (A) (A) (A) (A) (A) (A) (A) (A) (A) (A) (A) (A)
                 (A) (A) (A) (A) (A) (A) (A) (A) (A) (A) (A) (A)
                 (A) (A) (A) (A) (A) (A) (A) (A) (A) (A) (A) (A)
                 (A) (A) (A) (A) (A) (A) (A) (A) (A) (A) (A) (A)
                 (A) (A) (A) (A) (A) (A) (A) (A) (A) (A) (A) (A)
                 (A) (A) (A) (A) (A) (A) (A) (A) (A) (A) (A) (A)
                 (A) (A) (A) (A) (A) (A) (A) (A) (A) (A) (A) (A)
                 (A) (A) (A) (A) (A) (A) (A) (A) (A) (A) (A) (A)
                 (A) (A) (A) (A) (A) (A) (A) (A) (A) (A) (A) (A)
                 (A) (A) (A) (A) (A) (A)
 The electronic state is 1-A.
 Alpha  occ. eigenvalues --  -14.37727 -14.37727 -14.37727 -14.37727 -14.37726
 Alpha  occ. eigenvalues --  -14.37726 -14.37726 -14.37726 -14.37726 -14.37725
 Alpha  occ. eigenvalues --  -14.37725 -14.37725 -10.26566 -10.26566 -10.26566
 Alpha  occ. eigenvalues --  -10.26566 -10.26566 -10.26565 -10.26565 -10.26565
 Alpha  occ. eigenvalues --  -10.26564 -10.26564 -10.26564 -10.26564 -10.24921
 Alpha  occ. eigenvalues --  -10.24921 -10.24921 -10.24920 -10.24920 -10.24919
 Alpha  occ. eigenvalues --  -10.24898 -10.24898 -10.24898 -10.24898 -10.24897
 Alpha  occ. eigenvalues --  -10.24896 -10.24071 -10.24071 -10.24071 -10.24070
 Alpha  occ. eigenvalues --  -10.24068 -10.24067 -10.24067 -10.24067 -10.24067
 Alpha  occ. eigenvalues --  -10.24067 -10.24066 -10.24066 -10.23599 -10.23599
 Alpha  occ. eigenvalues --  -10.23599 -10.23599 -10.23598 -10.23598 -10.23598
 Alpha  occ. eigenvalues --  -10.23598 -10.23591 -10.23591 -10.23591 -10.23591
 Alpha  occ. eigenvalues --   -0.97307  -0.97173  -0.97171  -0.97171  -0.97090
 Alpha  occ. eigenvalues --   -0.97088  -0.95270  -0.95269  -0.95268  -0.94945
 Alpha  occ. eigenvalues --   -0.94944  -0.94943  -0.90031  -0.89552  -0.89551
 Alpha  occ. eigenvalues --   -0.89551  -0.82295  -0.82293  -0.81766  -0.81764
 Alpha  occ. eigenvalues --   -0.81764  -0.80225  -0.80225  -0.80224  -0.78174
 Alpha  occ. eigenvalues --   -0.76440  -0.76439  -0.76439  -0.75786  -0.75785
 Alpha  occ. eigenvalues --   -0.69646  -0.69645  -0.69645  -0.69569  -0.69568
 Alpha  occ. eigenvalues --   -0.69567  -0.66284  -0.66282  -0.65650  -0.65650
 Alpha  occ. eigenvalues --   -0.65650  -0.63360  -0.62711  -0.62711  -0.62710
 Alpha  occ. eigenvalues --   -0.60696  -0.60696  -0.60696  -0.56573  -0.56572
 Alpha  occ. eigenvalues --   -0.56572  -0.56024  -0.56022  -0.55932  -0.55932
 Alpha  occ. eigenvalues --   -0.55930  -0.54131  -0.53519  -0.53519  -0.53518
 Alpha  occ. eigenvalues --   -0.52333  -0.52332  -0.52332  -0.52041  -0.50478
 Alpha  occ. eigenvalues --   -0.50477  -0.50476  -0.50362  -0.50360  -0.49862
 Alpha  occ. eigenvalues --   -0.49861  -0.49861  -0.48898  -0.48896  -0.48895
 Alpha  occ. eigenvalues --   -0.48397  -0.46711  -0.46579  -0.46578  -0.46384
 Alpha  occ. eigenvalues --   -0.46383  -0.46382  -0.46186  -0.46186  -0.46185
 Alpha  occ. eigenvalues --   -0.45340  -0.45340  -0.45339  -0.44663  -0.44662
 Alpha  occ. eigenvalues --   -0.43606  -0.43605  -0.43604  -0.43561  -0.41932
 Alpha  occ. eigenvalues --   -0.41932  -0.41931  -0.41349  -0.40596  -0.40595
 Alpha  occ. eigenvalues --   -0.40594  -0.39891  -0.39890  -0.39889  -0.39441
 Alpha  occ. eigenvalues --   -0.39440  -0.39187  -0.39186  -0.39186  -0.38561
 Alpha  occ. eigenvalues --   -0.37021  -0.37021  -0.37020  -0.36400  -0.36400
 Alpha  occ. eigenvalues --   -0.36375  -0.36375  -0.36374  -0.35426  -0.35426
 Alpha  occ. eigenvalues --   -0.35426  -0.35067  -0.35067  -0.35066  -0.34484
 Alpha  occ. eigenvalues --   -0.34484  -0.30866  -0.30866  -0.30866  -0.29828
 Alpha  occ. eigenvalues --   -0.27394  -0.27314  -0.27313  -0.27313  -0.27097
 Alpha  occ. eigenvalues --   -0.27096  -0.27007  -0.27006  -0.27006  -0.26869
 Alpha  occ. eigenvalues --   -0.26868  -0.26868  -0.25945  -0.25945  -0.25944
 Alpha  occ. eigenvalues --   -0.25500  -0.25499  -0.25499  -0.25297  -0.25296
 Alpha virt. eigenvalues --   -0.05923  -0.05922  -0.05921  -0.05578  -0.05577
 Alpha virt. eigenvalues --   -0.05577  -0.05365  -0.05364  -0.01871  -0.01870
 Alpha virt. eigenvalues --   -0.01870  -0.01328   0.04852   0.04853   0.04854
 Alpha virt. eigenvalues --    0.05817   0.05818   0.05818   0.05822   0.05823
 Alpha virt. eigenvalues --    0.05958   0.06335   0.06336   0.06336   0.06683
 Alpha virt. eigenvalues --    0.06684   0.06687   0.07116   0.07117   0.07121
 Alpha virt. eigenvalues --    0.07260   0.07265   0.07629   0.08766   0.08767
 Alpha virt. eigenvalues --    0.08770   0.09130   0.09132   0.10029   0.10435
 Alpha virt. eigenvalues --    0.10436   0.10437   0.10545   0.10546   0.10546
 Alpha virt. eigenvalues --    0.10914   0.10914   0.10915   0.11398   0.11398
 Alpha virt. eigenvalues --    0.11399   0.11756   0.11757   0.11759   0.12234
 Alpha virt. eigenvalues --    0.12234   0.12430   0.12621   0.12622   0.12623
 Alpha virt. eigenvalues --    0.12925   0.12926   0.13642   0.13807   0.13808
 Alpha virt. eigenvalues --    0.13809   0.14644   0.14647   0.14648   0.14974
 Alpha virt. eigenvalues --    0.14974   0.14975   0.15176   0.15177   0.15179
 Alpha virt. eigenvalues --    0.15692   0.15989   0.16481   0.16481   0.16481
 Alpha virt. eigenvalues --    0.17015   0.17019   0.17102   0.17102   0.17103
 Alpha virt. eigenvalues --    0.18150   0.18154   0.18358   0.18358   0.18359
 Alpha virt. eigenvalues --    0.18732   0.18732   0.18735   0.19735   0.19738
 Alpha virt. eigenvalues --    0.19738   0.20469   0.20469   0.20472   0.21312
 Alpha virt. eigenvalues --    0.21514   0.21520   0.21667   0.21669   0.21669
 Alpha virt. eigenvalues --    0.22173   0.22175   0.22179   0.22244   0.23487
 Alpha virt. eigenvalues --    0.23487   0.23488   0.23522   0.23889   0.23894
 Alpha virt. eigenvalues --    0.23989   0.23994   0.23999   0.24345   0.24346
 Alpha virt. eigenvalues --    0.24351   0.24877   0.24877   0.24883   0.25494
 Alpha virt. eigenvalues --    0.25495   0.25723   0.25725   0.25726   0.26538
 Alpha virt. eigenvalues --    0.26539   0.26541   0.27218   0.27224   0.27281
 Alpha virt. eigenvalues --    0.27838   0.27838   0.27840   0.27976   0.27979
 Alpha virt. eigenvalues --    0.27980   0.28862   0.28865   0.28866   0.28928
 Alpha virt. eigenvalues --    0.29468   0.29471   0.29474   0.29995   0.29996
 Alpha virt. eigenvalues --    0.29999   0.30546   0.30548   0.30550   0.30827
 Alpha virt. eigenvalues --    0.30829   0.31291   0.31438   0.31439   0.31443
 Alpha virt. eigenvalues --    0.32378   0.32379   0.32460   0.32463   0.32464
 Alpha virt. eigenvalues --    0.33279   0.33280   0.33280   0.33718   0.33718
 Alpha virt. eigenvalues --    0.34481   0.34483   0.34489   0.35216   0.35220
 Alpha virt. eigenvalues --    0.35220   0.35428   0.36162   0.36162   0.36163
 Alpha virt. eigenvalues --    0.36645   0.36741   0.36742   0.36743   0.36848
 Alpha virt. eigenvalues --    0.36848   0.36854   0.37289   0.37290   0.37292
 Alpha virt. eigenvalues --    0.37424   0.37429   0.37858   0.37860   0.37865
 Alpha virt. eigenvalues --    0.38443   0.38444   0.38445   0.38877   0.38878
 Alpha virt. eigenvalues --    0.38881   0.39222   0.39225   0.39346   0.39489
 Alpha virt. eigenvalues --    0.39490   0.39491   0.40087   0.40088   0.40090
 Alpha virt. eigenvalues --    0.40763   0.40764   0.41168   0.41719   0.41720
 Alpha virt. eigenvalues --    0.41720   0.42328   0.42402   0.42405   0.42408
 Alpha virt. eigenvalues --    0.42648   0.42649   0.42650   0.43151   0.43153
 Alpha virt. eigenvalues --    0.43307   0.43308   0.43311   0.43384   0.43386
 Alpha virt. eigenvalues --    0.43389   0.43648   0.43800   0.43803   0.43807
 Alpha virt. eigenvalues --    0.43995   0.43996   0.44364   0.44367   0.44368
 Alpha virt. eigenvalues --    0.44636   0.44638   0.44845   0.44848   0.44849
 Alpha virt. eigenvalues --    0.45449   0.45452   0.45454   0.45467   0.45819
 Alpha virt. eigenvalues --    0.46003   0.46003   0.46003   0.46940   0.46940
 Alpha virt. eigenvalues --    0.46941   0.47384   0.47384   0.47385   0.48387
 Alpha virt. eigenvalues --    0.48397   0.48641   0.48641   0.48642   0.49306
 Alpha virt. eigenvalues --    0.49313   0.49322   0.49693   0.49739   0.49744
 Alpha virt. eigenvalues --    0.49749   0.50488   0.50488   0.50489   0.50491
 Alpha virt. eigenvalues --    0.50491   0.51471   0.51471   0.51478   0.51949
 Alpha virt. eigenvalues --    0.51950   0.51953   0.52423   0.52428   0.52433
 Alpha virt. eigenvalues --    0.52951   0.52954   0.52954   0.53082   0.53231
 Alpha virt. eigenvalues --    0.53233   0.53237   0.54031   0.54042   0.54112
 Alpha virt. eigenvalues --    0.54231   0.54234   0.54235   0.54704   0.54710
 Alpha virt. eigenvalues --    0.54712   0.55541   0.55806   0.55907   0.55911
 Alpha virt. eigenvalues --    0.56242   0.56246   0.56249   0.56919   0.56922
 Alpha virt. eigenvalues --    0.56923   0.57742   0.57746   0.58675   0.58678
 Alpha virt. eigenvalues --    0.58680   0.59108   0.59109   0.59110   0.59249
 Alpha virt. eigenvalues --    0.59576   0.59594   0.60109   0.60109   0.60115
 Alpha virt. eigenvalues --    0.60970   0.60973   0.60975   0.61230   0.61239
 Alpha virt. eigenvalues --    0.61867   0.61872   0.61876   0.61957   0.62325
 Alpha virt. eigenvalues --    0.62329   0.62332   0.62985   0.62987   0.62990
 Alpha virt. eigenvalues --    0.63252   0.63254   0.63257   0.64539   0.64541
 Alpha virt. eigenvalues --    0.64544   0.65765   0.65773   0.65775   0.65776
 Alpha virt. eigenvalues --    0.65781   0.66625   0.66629   0.66630   0.66785
 Alpha virt. eigenvalues --    0.66791   0.67222   0.67224   0.67226   0.67772
 Alpha virt. eigenvalues --    0.68291   0.68293   0.68294   0.68875   0.68882
 Alpha virt. eigenvalues --    0.68885   0.68981   0.69155   0.69156   0.69654
 Alpha virt. eigenvalues --    0.69655   0.69658   0.69824   0.70013   0.70015
 Alpha virt. eigenvalues --    0.70019   0.70566   0.70566   0.70567   0.71882
 Alpha virt. eigenvalues --    0.71997   0.71998   0.72000   0.72929   0.73370
 Alpha virt. eigenvalues --    0.73380   0.73570   0.73572   0.73573   0.73648
 Alpha virt. eigenvalues --    0.73649   0.73662   0.74390   0.74398   0.74400
 Alpha virt. eigenvalues --    0.75324   0.75329   0.75330   0.76366   0.76583
 Alpha virt. eigenvalues --    0.76587   0.76589   0.76673   0.76681   0.77726
 Alpha virt. eigenvalues --    0.77729   0.77736   0.78030   0.78033   0.78034
 Alpha virt. eigenvalues --    0.78200   0.78207   0.79097   0.79105   0.79107
 Alpha virt. eigenvalues --    0.79857   0.80384   0.80389   0.80390   0.80824
 Alpha virt. eigenvalues --    0.80824   0.80824   0.81399   0.81408   0.81783
 Alpha virt. eigenvalues --    0.81785   0.81786   0.82260   0.82532   0.82538
 Alpha virt. eigenvalues --    0.82543   0.84730   0.84733   0.84828   0.84836
 Alpha virt. eigenvalues --    0.84837   0.84963   0.84963   0.84964   0.85020
 Alpha virt. eigenvalues --    0.85756   0.85757   0.85758   0.86419   0.86424
 Alpha virt. eigenvalues --    0.86793   0.86796   0.86798   0.87804   0.87807
 Alpha virt. eigenvalues --    0.87807   0.87916   0.87917   0.87917   0.88237
 Alpha virt. eigenvalues --    0.88577   0.88578   0.89374   0.89379   0.89380
 Alpha virt. eigenvalues --    0.89972   0.90322   0.90324   0.90330   0.91501
 Alpha virt. eigenvalues --    0.91507   0.91513   0.91679   0.91687   0.92044
 Alpha virt. eigenvalues --    0.92046   0.92048   0.92138   0.92142   0.92146
 Alpha virt. eigenvalues --    0.92520   0.93629   0.93638   0.93644   0.94704
 Alpha virt. eigenvalues --    0.94710   0.94719   0.95274   0.95281   0.95286
 Alpha virt. eigenvalues --    0.96047   0.96058   0.96061   0.96076   0.96080
 Alpha virt. eigenvalues --    0.96271   0.97211   0.97212   0.97213   0.97252
 Alpha virt. eigenvalues --    0.97255   0.98085   0.98093   0.98100   0.98529
 Alpha virt. eigenvalues --    0.99540   0.99542   0.99548   1.00144   1.00147
 Alpha virt. eigenvalues --    1.00148   1.01481   1.01492   1.01909   1.02290
 Alpha virt. eigenvalues --    1.02291   1.02296   1.04437   1.04437   1.04441
 Alpha virt. eigenvalues --    1.05552   1.05910   1.05911   1.05913   1.06236
 Alpha virt. eigenvalues --    1.06241   1.06784   1.06792   1.06804   1.07339
 Alpha virt. eigenvalues --    1.07341   1.07345   1.08974   1.08980   1.08981
 Alpha virt. eigenvalues --    1.09747   1.09755   1.09954   1.10896   1.10907
 Alpha virt. eigenvalues --    1.10909   1.12221   1.12224   1.12228   1.12777
 Alpha virt. eigenvalues --    1.13671   1.13682   1.13929   1.13932   1.13936
 Alpha virt. eigenvalues --    1.15047   1.15054   1.15055   1.17984   1.17986
 Alpha virt. eigenvalues --    1.17986   1.18520   1.18523   1.18524   1.19366
 Alpha virt. eigenvalues --    1.19373   1.19599   1.19602   1.19604   1.20432
 Alpha virt. eigenvalues --    1.20749   1.20755   1.20757   1.21589   1.21593
 Alpha virt. eigenvalues --    1.21951   1.21957   1.21958   1.22762   1.22767
 Alpha virt. eigenvalues --    1.22769   1.23314   1.23315   1.23318   1.23856
 Alpha virt. eigenvalues --    1.23862   1.24985   1.24991   1.25081   1.25179
 Alpha virt. eigenvalues --    1.25179   1.25187   1.25832   1.25838   1.25838
 Alpha virt. eigenvalues --    1.27054   1.27055   1.27060   1.27372   1.27374
 Alpha virt. eigenvalues --    1.27374   1.27741   1.27929   1.27934   1.28083
 Alpha virt. eigenvalues --    1.28084   1.28087   1.28877   1.28879   1.28881
 Alpha virt. eigenvalues --    1.30000   1.30000   1.30001   1.30951   1.30953
 Alpha virt. eigenvalues --    1.30961   1.31410   1.31422   1.34053   1.34056
 Alpha virt. eigenvalues --    1.34059   1.35756   1.36154   1.36156   1.36160
 Alpha virt. eigenvalues --    1.36345   1.36354   1.36358   1.37511   1.37834
 Alpha virt. eigenvalues --    1.37841   1.37845   1.38052   1.38056   1.39211
 Alpha virt. eigenvalues --    1.39211   1.39213   1.39675   1.39676   1.39740
 Alpha virt. eigenvalues --    1.39740   1.39741   1.40373   1.40374   1.40379
 Alpha virt. eigenvalues --    1.40788   1.40791   1.40798   1.41773   1.42683
 Alpha virt. eigenvalues --    1.43239   1.43243   1.43245   1.44187   1.44187
 Alpha virt. eigenvalues --    1.44192   1.44809   1.44813   1.44814   1.45659
 Alpha virt. eigenvalues --    1.45669   1.45672   1.46144   1.46153   1.46786
 Alpha virt. eigenvalues --    1.46787   1.46789   1.46840   1.47203   1.47204
 Alpha virt. eigenvalues --    1.47205   1.47692   1.47701   1.48288   1.48289
 Alpha virt. eigenvalues --    1.48290   1.50042   1.50049   1.50052   1.50104
 Alpha virt. eigenvalues --    1.50111   1.50650   1.51454   1.51455   1.51461
 Alpha virt. eigenvalues --    1.51729   1.51731   1.51735   1.53614   1.53618
 Alpha virt. eigenvalues --    1.53622   1.53742   1.53749   1.54222   1.54225
 Alpha virt. eigenvalues --    1.54226   1.54552   1.54560   1.54973   1.55173
 Alpha virt. eigenvalues --    1.55174   1.55176   1.55548   1.55553   1.55553
 Alpha virt. eigenvalues --    1.56620   1.56620   1.56623   1.57329   1.57540
 Alpha virt. eigenvalues --    1.57546   1.57548   1.58067   1.58161   1.58163
 Alpha virt. eigenvalues --    1.58166   1.58971   1.58973   1.59268   1.59272
 Alpha virt. eigenvalues --    1.59274   1.59797   1.59798   1.59806   1.61323
 Alpha virt. eigenvalues --    1.61332   1.61497   1.61504   1.61505   1.61741
 Alpha virt. eigenvalues --    1.61744   1.61747   1.63169   1.63171   1.63182
 Alpha virt. eigenvalues --    1.63483   1.63605   1.63606   1.63617   1.65064
 Alpha virt. eigenvalues --    1.65067   1.65067   1.66558   1.67028   1.67030
 Alpha virt. eigenvalues --    1.67558   1.67559   1.67563   1.68115   1.68120
 Alpha virt. eigenvalues --    1.68123   1.68568   1.69028   1.69029   1.69032
 Alpha virt. eigenvalues --    1.69526   1.69527   1.69530   1.69592   1.69596
 Alpha virt. eigenvalues --    1.70065   1.70068   1.70069   1.71635   1.71645
 Alpha virt. eigenvalues --    1.71807   1.71808   1.71809   1.72242   1.72878
 Alpha virt. eigenvalues --    1.72879   1.72887   1.73923   1.73925   1.73930
 Alpha virt. eigenvalues --    1.74178   1.74180   1.74187   1.74461   1.74860
 Alpha virt. eigenvalues --    1.74869   1.75478   1.75491   1.75497   1.76181
 Alpha virt. eigenvalues --    1.76182   1.76191   1.76728   1.76934   1.76938
 Alpha virt. eigenvalues --    1.76939   1.77689   1.77753   1.77763   1.77845
 Alpha virt. eigenvalues --    1.77846   1.77854   1.78293   1.78295   1.78298
 Alpha virt. eigenvalues --    1.80083   1.80090   1.80401   1.80406   1.80411
 Alpha virt. eigenvalues --    1.80521   1.80900   1.80902   1.80907   1.84136
 Alpha virt. eigenvalues --    1.84144   1.84147   1.85400   1.85407   1.85415
 Alpha virt. eigenvalues --    1.85728   1.85730   1.85731   1.85905   1.85909
 Alpha virt. eigenvalues --    1.87065   1.87071   1.87078   1.87717   1.87719
 Alpha virt. eigenvalues --    1.87723   1.88405   1.88914   1.88917   1.90065
 Alpha virt. eigenvalues --    1.90066   1.90069   1.90969   1.90971   1.90973
 Alpha virt. eigenvalues --    1.91546   1.91550   1.92171   1.92172   1.92173
 Alpha virt. eigenvalues --    1.93951   1.93952   1.93958   1.94412   1.95363
 Alpha virt. eigenvalues --    1.95372   1.95379   1.96682   1.96687   1.97328
 Alpha virt. eigenvalues --    1.97331   1.97332   1.97498   1.97716   1.97716
 Alpha virt. eigenvalues --    1.97717   1.99167   1.99169   1.99190   1.99192
 Alpha virt. eigenvalues --    1.99194   1.99330   2.00113   2.00113   2.00115
 Alpha virt. eigenvalues --    2.01110   2.01113   2.01116   2.02048   2.02049
 Alpha virt. eigenvalues --    2.02052   2.02407   2.02409   2.02892   2.02897
 Alpha virt. eigenvalues --    2.02898   2.03026   2.05246   2.05250   2.05268
 Alpha virt. eigenvalues --    2.07204   2.07217   2.07367   2.07368   2.07381
 Alpha virt. eigenvalues --    2.07446   2.08183   2.08195   2.08197   2.08332
 Alpha virt. eigenvalues --    2.08334   2.08337   2.11638   2.12578   2.12585
 Alpha virt. eigenvalues --    2.12599   2.13821   2.13822   2.13833   2.14065
 Alpha virt. eigenvalues --    2.14074   2.14719   2.14730   2.14731   2.14879
 Alpha virt. eigenvalues --    2.15553   2.15554   2.15557   2.16138   2.16144
 Alpha virt. eigenvalues --    2.16144   2.17365   2.17366   2.17369   2.17743
 Alpha virt. eigenvalues --    2.17749   2.18246   2.18453   2.18454   2.18458
 Alpha virt. eigenvalues --    2.19641   2.19647   2.19651   2.20981   2.20989
 Alpha virt. eigenvalues --    2.21427   2.21430   2.21435   2.23437   2.23640
 Alpha virt. eigenvalues --    2.23655   2.24163   2.24177   2.24185   2.26890
 Alpha virt. eigenvalues --    2.26893   2.26898   2.28567   2.28973   2.28979
 Alpha virt. eigenvalues --    2.28982   2.30111   2.30112   2.30117   2.30491
 Alpha virt. eigenvalues --    2.30495   2.30691   2.30697   2.30997   2.31004
 Alpha virt. eigenvalues --    2.31006   2.31874   2.31876   2.31881   2.32487
 Alpha virt. eigenvalues --    2.32488   2.32488   2.34685   2.35108   2.35110
 Alpha virt. eigenvalues --    2.35115   2.35818   2.35831   2.35834   2.38459
 Alpha virt. eigenvalues --    2.38548   2.38548   2.38550   2.39239   2.39242
 Alpha virt. eigenvalues --    2.39997   2.40000   2.40001   2.40615   2.40811
 Alpha virt. eigenvalues --    2.40815   2.40927   2.40933   2.40934   2.41373
 Alpha virt. eigenvalues --    2.41537   2.41539   2.41543   2.42532   2.42533
 Alpha virt. eigenvalues --    2.42535   2.43336   2.43345   2.43896   2.43902
 Alpha virt. eigenvalues --    2.44699   2.44708   2.44712   2.45199   2.45202
 Alpha virt. eigenvalues --    2.45210   2.45405   2.45410   2.45421   2.47046
 Alpha virt. eigenvalues --    2.49478   2.49481   2.49483   2.51393   2.51399
 Alpha virt. eigenvalues --    2.51403   2.52426   2.53080   2.53085   2.53087
 Alpha virt. eigenvalues --    2.53450   2.53493   2.53501   2.53507   2.53808
 Alpha virt. eigenvalues --    2.53816   2.54151   2.54155   2.54157   2.54864
 Alpha virt. eigenvalues --    2.55060   2.55062   2.55063   2.56040   2.56043
 Alpha virt. eigenvalues --    2.56045   2.57116   2.57119   2.57123   2.58455
 Alpha virt. eigenvalues --    2.58462   2.58468   2.59320   2.59327   2.59954
 Alpha virt. eigenvalues --    2.60795   2.60799   2.60809   2.61024   2.61028
 Alpha virt. eigenvalues --    2.61579   2.61581   2.61581   2.62612   2.62616
 Alpha virt. eigenvalues --    2.62617   2.62665   2.63128   2.63132   2.63135
 Alpha virt. eigenvalues --    2.63245   2.63249   2.64168   2.64170   2.64173
 Alpha virt. eigenvalues --    2.64979   2.64980   2.64983   2.65053   2.65157
 Alpha virt. eigenvalues --    2.65158   2.65159   2.65308   2.65322   2.66507
 Alpha virt. eigenvalues --    2.66510   2.66516   2.66933   2.66936   2.66942
 Alpha virt. eigenvalues --    2.67923   2.67925   2.67927   2.68513   2.68516
 Alpha virt. eigenvalues --    2.69259   2.69259   2.69261   2.70119   2.70817
 Alpha virt. eigenvalues --    2.70823   2.70825   2.71060   2.71388   2.71392
 Alpha virt. eigenvalues --    2.71402   2.71404   2.71408   2.71990   2.71991
 Alpha virt. eigenvalues --    2.71997   2.72149   2.72161   2.72163   2.73367
 Alpha virt. eigenvalues --    2.73377   2.73382   2.73521   2.73654   2.73657
 Alpha virt. eigenvalues --    2.75073   2.75077   2.75077   2.75294   2.75302
 Alpha virt. eigenvalues --    2.75707   2.75871   2.75875   2.75878   2.76022
 Alpha virt. eigenvalues --    2.76024   2.76026   2.78349   2.78358   2.78542
 Alpha virt. eigenvalues --    2.78550   2.78554   2.79590   2.79605   2.79606
 Alpha virt. eigenvalues --    2.79609   2.80256   2.80258   2.80259   2.81345
 Alpha virt. eigenvalues --    2.81347   2.82925   2.82931   2.82934   2.83013
 Alpha virt. eigenvalues --    2.83016   2.83017   2.83120   2.83125   2.83391
[...]
 Alpha virt. eigenvalues --    3.22174   3.23062   3.23064   3.23069   3.23463
 Alpha virt. eigenvalues --    3.23616   3.23617   3.23716   3.23719   3.23721
 Alpha virt. eigenvalues --    3.24854   3.24858   3.24860   3.25398   3.25400
 Alpha virt. eigenvalues --    3.25403   3.25618   3.25621   3.25720   3.25721
 Alpha virt. eigenvalues --    3.25723   3.25936   3.25937   3.25939   3.26060
 Alpha virt. eigenvalues --    3.26481   3.26936   3.26937   3.26937   3.27606
 Alpha virt. eigenvalues --    3.27610   3.28151   3.28152   3.28155   3.29437
 Alpha virt. eigenvalues --    3.29727   3.29735   3.29736   3.30270   3.30270
 Alpha virt. eigenvalues --    3.30276   3.30710   3.30717   3.30753   3.30754
 Alpha virt. eigenvalues --    3.30759   3.31916   3.31920   3.31923   3.32544
 Alpha virt. eigenvalues --    3.32546   3.32549   3.32694   3.32698   3.33346
 Alpha virt. eigenvalues --    3.34612   3.34614   3.34617   3.34938   3.34946
 Alpha virt. eigenvalues --    3.35111   3.35121   3.35126   3.35461   3.36037
 Alpha virt. eigenvalues --    3.36042   3.36049   3.36101   3.36103   3.36105
 Alpha virt. eigenvalues --    3.36973   3.36987   3.37358   3.37360   3.37363
 Alpha virt. eigenvalues --    3.37976   3.37981   3.37982   3.40616   3.40616
 Alpha virt. eigenvalues --    3.40620   3.41233   3.41242   3.41527   3.41760
 Alpha virt. eigenvalues --    3.41761   3.41763   3.42663   3.42665   3.42825
 Alpha virt. eigenvalues --    3.42826   3.42830   3.42932   3.42939   3.42940
 Alpha virt. eigenvalues --    3.43316   3.43372   3.43376   3.43377   3.44272
 Alpha virt. eigenvalues --    3.44276   3.44277   3.45307   3.45308   3.45308
 Alpha virt. eigenvalues --    3.45366   3.46039   3.46040   3.46045   3.47168
 Alpha virt. eigenvalues --    3.47170   3.47174   3.48141   3.48672   3.48677
 Alpha virt. eigenvalues --    3.48684   3.49213   3.49218   3.49224   3.50100
 Alpha virt. eigenvalues --    3.50104   3.50105   3.50238   3.50250   3.51730
 Alpha virt. eigenvalues --    3.52989   3.52991   3.52993   3.53155   3.53157
 Alpha virt. eigenvalues --    3.53159   3.54724   3.54729   3.54733   3.55073
 Alpha virt. eigenvalues --    3.55086   3.55368   3.55783   3.55789   3.55790
 Alpha virt. eigenvalues --    3.56112   3.56114   3.56124   3.56666   3.56667
 Alpha virt. eigenvalues --    3.56673   3.60478   3.60480   3.60483   3.60802
 Alpha virt. eigenvalues --    3.61125   3.61133   3.61869   3.61871   3.61872
 Alpha virt. eigenvalues --    3.62283   3.62293   3.62295   3.62904   3.62941
 Alpha virt. eigenvalues --    3.62944   3.62946   3.63103   3.63104   3.63347
 Alpha virt. eigenvalues --    3.63349   3.63351   3.63547   3.63548   3.63551
 Alpha virt. eigenvalues --    3.64925   3.65762   3.65763   3.65765   3.67249
 Alpha virt. eigenvalues --    3.67262   3.70173   3.70173   3.70185   3.70324
 Alpha virt. eigenvalues --    3.71390   3.71398   3.71512   3.71513   3.71515
 Alpha virt. eigenvalues --    3.72588   3.72590   3.72595   3.74415   3.74417
 Alpha virt. eigenvalues --    3.74424   3.74821   3.74827   3.75155   3.75163
 Alpha virt. eigenvalues --    3.75169   3.75754   3.75759   3.75759   3.76527
 Alpha virt. eigenvalues --    3.77730   3.77732   3.77737   3.78120   3.79177
 Alpha virt. eigenvalues --    3.79180   3.79185   3.79954   3.79959   3.79960
 Alpha virt. eigenvalues --    3.80920   3.80922   3.80929   3.81084   3.81090
 Alpha virt. eigenvalues --    3.81692   3.81693   3.81700   3.83165   3.83610
 Alpha virt. eigenvalues --    3.83610   3.83617   3.83865   3.84063   3.84070
 Alpha virt. eigenvalues --    3.85827   3.85839   3.85839   3.86671   3.86674
 Alpha virt. eigenvalues --    3.86680   3.88291   3.88297   3.88722   3.88730
 Alpha virt. eigenvalues --    3.88731   3.89612   3.90429   3.90431   3.90435
 Alpha virt. eigenvalues --    3.91048   3.91049   3.92667   3.92672   3.92672
 Alpha virt. eigenvalues --    3.93626   3.93630   3.93634   3.95286   3.95289
 Alpha virt. eigenvalues --    3.95296   3.95317   3.96971   3.96975   3.98184
 Alpha virt. eigenvalues --    3.98185   3.98190   4.00051   4.00546   4.00548
 Alpha virt. eigenvalues --    4.00553   4.01358   4.01360   4.01361   4.01638
 Alpha virt. eigenvalues --    4.01646   4.02315   4.02626   4.02628   4.02629
 Alpha virt. eigenvalues --    4.04504   4.04508   4.04510   4.05738   4.06427
 Alpha virt. eigenvalues --    4.06428   4.06429   4.06670   4.06673   4.06674
 Alpha virt. eigenvalues --    4.06880   4.06882   4.09421   4.09425   4.09427
 Alpha virt. eigenvalues --    4.10498   4.10508   4.11027   4.11031   4.11035
 Alpha virt. eigenvalues --    4.11778   4.11784   4.12317   4.12321   4.12326
 Alpha virt. eigenvalues --    4.13333   4.13347   4.13622   4.13632   4.13634
 Alpha virt. eigenvalues --    4.14279   4.15304   4.15307   4.15310   4.16706
 Alpha virt. eigenvalues --    4.16717   4.16719   4.16917   4.16923   4.16925
 Alpha virt. eigenvalues --    4.18557   4.18887   4.18889   4.18893   4.19804
 Alpha virt. eigenvalues --    4.19807   4.19991   4.19994   4.19999   4.21534
 Alpha virt. eigenvalues --    4.21536   4.21541   4.24377   4.24377   4.24381
 Alpha virt. eigenvalues --    4.25616   4.25619   4.25622   4.25624   4.25750
 Alpha virt. eigenvalues --    4.25755   4.25757   4.26077   4.26079   4.27463
 Alpha virt. eigenvalues --    4.27464   4.27465   4.27469   4.27474   4.28397
 Alpha virt. eigenvalues --    4.28398   4.28404   4.31911   4.31913   4.31915
 Alpha virt. eigenvalues --    4.33053   4.33058   4.33060   4.33444   4.33455
 Alpha virt. eigenvalues --    4.33971   4.34677   4.34679   4.34684   4.36827
 Alpha virt. eigenvalues --    4.37284   4.37294   4.37299   4.37999   4.38000
 Alpha virt. eigenvalues --    4.38001   4.39258   4.39262   4.39264   4.40956
 Alpha virt. eigenvalues --    4.40965   4.42509   4.42509   4.42510   4.43766
 Alpha virt. eigenvalues --    4.43771   4.43775   4.49027   4.51223   4.51227
 Alpha virt. eigenvalues --    4.51230   4.53879   4.54244   4.54246   4.54254
 Alpha virt. eigenvalues --    4.54389   4.54397   4.57229   4.57259   4.57262
 Alpha virt. eigenvalues --    4.57269   4.57982   4.57997   4.59078   4.59079
 Alpha virt. eigenvalues --    4.59083   4.60668   4.60673   4.60708   4.60720
 Alpha virt. eigenvalues --    4.60722   4.62867   4.62870   4.62880   4.64176
 Alpha virt. eigenvalues --    4.64592   4.64595   4.64601   4.65562   4.65564
 Alpha virt. eigenvalues --    4.65569   4.66855   4.66861   4.68249   4.68250
 Alpha virt. eigenvalues --    4.68255   4.69722   4.69723   4.69726   4.70109
 Alpha virt. eigenvalues --    4.70113   4.70113   4.70132   4.74682   4.74684
 Alpha virt. eigenvalues --    4.74687   4.76016   4.76018   4.76019   4.77869
 Alpha virt. eigenvalues --    4.80545   4.80551   4.80552   4.80920   4.80926
 Alpha virt. eigenvalues --    4.81946   4.82932   4.82934   4.82939   4.85646
 Alpha virt. eigenvalues --    4.85657   4.86664   4.86667   4.86680   4.87607
 Alpha virt. eigenvalues --    4.87621   4.87628   4.93242   4.93247   4.93248
 Alpha virt. eigenvalues --    4.93726   4.93727   4.93728   4.94299   4.94305
 Alpha virt. eigenvalues --    4.94820   4.94824   4.94827   4.95324   4.95325
 Alpha virt. eigenvalues --    4.95331   4.97669   4.98115   4.98116   4.98117
 Alpha virt. eigenvalues --    5.03202   5.03204   5.03213   5.04703   5.04709
 Alpha virt. eigenvalues --    5.04713   5.05700   5.05704   5.07075   5.07079
 Alpha virt. eigenvalues --    5.07081   5.07558   5.08599   5.08614   5.08616
 Alpha virt. eigenvalues --    5.08674   5.08691   5.09550   5.09564   5.09569
 Alpha virt. eigenvalues --    5.11130   5.11138   5.11150   5.11370   5.16369
 Alpha virt. eigenvalues --    5.16369   5.16370   5.18054   5.18056   5.18057
 Alpha virt. eigenvalues --    5.18230   5.18235   5.21148   5.21149   5.21150
 Alpha virt. eigenvalues --    5.21977   5.21978   5.21981   5.22395   5.22406
 Alpha virt. eigenvalues --    5.23277   5.23279   5.23282   5.23559   5.23566
 Alpha virt. eigenvalues --    5.23575   5.25920   5.27008   5.27011   5.27016
 Alpha virt. eigenvalues --    5.31610   5.33308   5.33313   5.33314   5.33867
 Alpha virt. eigenvalues --    5.33878   5.35759   5.35764   5.35766   5.36286
 Alpha virt. eigenvalues --    5.36290   5.36298   5.36729   5.36732   5.37639
 Alpha virt. eigenvalues --    5.37641   5.37644   5.38119   5.39643   5.40339
 Alpha virt. eigenvalues --    5.40339   5.40343   5.41758   5.41761   5.41767
 Alpha virt. eigenvalues --    5.42259   5.42269   5.42272   5.43226   5.43238
 Alpha virt. eigenvalues --    5.44745   5.44757   5.44952   5.44964   5.44970
 Alpha virt. eigenvalues --    5.46540   5.46542   5.46558   5.48057   5.48061
 Alpha virt. eigenvalues --    5.48063   5.49311   5.55001   5.56502   5.56506
 Alpha virt. eigenvalues --    5.56508   5.61101   5.61103   5.61106   5.62202
 Alpha virt. eigenvalues --    5.64016   5.64023   5.64029   5.64695   5.64707
 Alpha virt. eigenvalues --    5.65374   5.65379   5.65381   5.67132   5.69784
 Alpha virt. eigenvalues --    5.69789   5.69792   5.72990   5.72999   5.73598
 Alpha virt. eigenvalues --    5.73601   5.73607   5.74389   5.74391   5.74398
 Alpha virt. eigenvalues --    5.76313   5.78759   5.78761   5.78766   5.88424
 Alpha virt. eigenvalues --    5.88438   5.89377   5.89383   5.89391   5.91352
 Alpha virt. eigenvalues --    5.93653   5.93660   5.93664   5.94915   5.94920
 Alpha virt. eigenvalues --    5.94921   5.97163   5.97168   5.97613   5.97616
 Alpha virt. eigenvalues --    5.97621   5.98447   5.98450   5.98455   6.11056
 Alpha virt. eigenvalues --    6.11057   6.11063   6.11938  22.41065  22.42376
 Alpha virt. eigenvalues --   22.42380  22.42385  22.62419  22.62425  22.62570
 Alpha virt. eigenvalues --   22.62574  22.62581  22.63002  22.67795  22.67797
 Alpha virt. eigenvalues --   22.67808  22.68058  22.68062  22.68070  22.87686
 Alpha virt. eigenvalues --   22.87699  22.88078  22.88081  22.88085  22.88935
 Alpha virt. eigenvalues --   22.88944  22.88946  22.96437  22.99100  22.99104
 Alpha virt. eigenvalues --   22.99109  23.13125  23.13131  23.13468  23.13473
 Alpha virt. eigenvalues --   23.13475  23.14425  23.14428  23.14435  23.15598
 Alpha virt. eigenvalues --   23.15601  23.15609  23.15771  23.15775  23.15785
 Alpha virt. eigenvalues --   23.15827  23.15841  23.50337  23.51180  23.51183
 Alpha virt. eigenvalues --   23.51194  32.62124  32.62124  32.62132  32.68114
 Alpha virt. eigenvalues --   32.68172  32.68177  32.68191  32.73604  32.73612
 Alpha virt. eigenvalues --   32.73613  32.74765  32.74767
          Condensed to atoms (all electrons):
 Mulliken charges:
               1
     1  C    0.366791
     2  C   -0.147241
     3  C   -0.344900
     4  C    0.366975
     5  H    0.117617
     6  C   -0.344939
     7  C    0.366836
     8  H    0.117615
     9  C   -0.344608
    10  C   -0.147209
    11  H    0.117602
    12  C   -0.147241
    13  H    0.068817
    14  H    0.068787
    15  H    0.068807
    16  C    0.366894
    17  C   -0.147251
    18  C   -0.344915
    19  C    0.366929
    20  H    0.117616
    21  C   -0.344983
    22  C    0.366816
    23  H    0.117595
    24  C   -0.344662
    25  C   -0.147143
    26  H    0.117603
    27  C   -0.147194
    28  H    0.068828
    29  H    0.068815
    30  H    0.068802
    31  C    0.366817
    32  C   -0.147157
    33  C   -0.344598
    34  C    0.366810
    35  H    0.117609
    36  C   -0.344905
    37  C    0.366952
    38  H    0.117616
    39  C   -0.344926
    40  C   -0.147208
    41  H    0.117631
    42  C   -0.147264
    43  H    0.068815
    44  H    0.068824
    45  H    0.068800
    46  C    0.366970
    47  C   -0.147175
    48  C   -0.344976
    49  C    0.366872
    50  H    0.117611
    51  C   -0.344667
    52  C    0.366861
    53  H    0.117590
    54  C   -0.344960
    55  C   -0.147268
    56  H    0.117600
    57  C   -0.147179
    58  H    0.068774
    59  H    0.068827
    60  H    0.068818
    61  C   -0.061869
    62  C   -0.061816
    63  N   -0.183767
    64  N   -0.183822
    65  H    0.068331
    66  H    0.116092
    67  H    0.068331
    68  H    0.116093
    69  C   -0.061845
    70  C   -0.061901
    71  N   -0.183839
    72  N   -0.183902
    73  H    0.068333
    74  H    0.116105
    75  H    0.068336
    76  H    0.116094
    77  C   -0.061927
    78  C   -0.061851
    79  N   -0.183814
    80  N   -0.183822
    81  H    0.068344
    82  H    0.116093
    83  H    0.068340
    84  H    0.116107
    85  C   -0.061851
    86  C   -0.061907
    87  N   -0.183775
    88  N   -0.183831
    89  H    0.068349
    90  H    0.116094
    91  H    0.068344
    92  H    0.116095
    93  C   -0.061842
    94  C   -0.061899
    95  N   -0.183874
    96  N   -0.183845
    97  H    0.068344
    98  H    0.116096
    99  H    0.068336
   100  H    0.116106
   101  C   -0.061857
   102  C   -0.061848
   103  N   -0.183768
   104  N   -0.183739
   105  H    0.068348
   106  H    0.116093
   107  H    0.068341
   108  H    0.116087
 Sum of Mulliken charges =   0.00000
 Mulliken charges with hydrogens summed into heavy atoms:
               1
     1  C    0.366791
     2  C   -0.078455
     3  C   -0.227282
     4  C    0.366975
     6  C   -0.227324
     7  C    0.366836
     9  C   -0.227006
    10  C   -0.078392
    12  C   -0.078434
    16  C    0.366894
    17  C   -0.078435
    18  C   -0.227299
    19  C    0.366929
    21  C   -0.227388
    22  C    0.366816
    24  C   -0.227059
    25  C   -0.078315
    27  C   -0.078392
    31  C    0.366817
    32  C   -0.078334
    33  C   -0.226989
    34  C    0.366810
    36  C   -0.227289
    37  C    0.366952
    39  C   -0.227295
    40  C   -0.078393
    42  C   -0.078464
    46  C    0.366970
    47  C   -0.078348
    48  C   -0.227364
    49  C    0.366872
    51  C   -0.227077
    52  C    0.366861
    54  C   -0.227360
    55  C   -0.078494
    57  C   -0.078361
    61  C    0.122555
    62  C    0.122607
    63  N   -0.183767
    64  N   -0.183822
    69  C    0.122586
    70  C    0.122537
    71  N   -0.183839
    72  N   -0.183902
    77  C    0.122521
    78  C    0.122586
    79  N   -0.183814
    80  N   -0.183822
    85  C    0.122588
    86  C    0.122537
    87  N   -0.183775
    88  N   -0.183831
    93  C    0.122601
    94  C    0.122541
    95  N   -0.183874
    96  N   -0.183845
   101  C    0.122571
   102  C    0.122594
   103  N   -0.183768
   104  N   -0.183739
 Electronic spatial extent (au):  <R**2>=          45138.5272
 Charge=              0.0000 electrons
 Dipole moment (field-independent basis, Debye):
    X=             -0.0004    Y=             -0.0009    Z=              0.0006  Tot=              0.0012
 Quadrupole moment (field-independent basis, Debye-Ang):
   XX=           -336.3318   YY=           -336.3091   ZZ=           -336.3538
   XY=              0.0022   XZ=             -0.0016   YZ=              0.0033
 Traceless Quadrupole moment (field-independent basis, Debye-Ang):
   XX=             -0.0003   YY=              0.0225   ZZ=             -0.0222
   XY=              0.0022   XZ=             -0.0016   YZ=              0.0033
 Octapole moment (field-independent basis, Debye-Ang**2):
  XXX=             -0.0161  YYY=             -0.0657  ZZZ=             -0.0150  XYY=             -1.4420
  XXY=              0.5020  XXZ=             -0.4316  XZZ=              1.4372  YZZ=             -0.4959
  YYZ=              0.4508  XYZ=             93.8964
 Hexadecapole moment (field-independent basis, Debye-Ang**3):
 XXXX=         -19292.1012 YYYY=         -19267.6249 ZZZZ=         -19260.4651 XXXY=              4.9876
 XXXZ=             -5.3501 YYYX=             -4.8041 YYYZ=             15.8425 ZZZX=              5.3803
 ZZZY=            -15.6730 XXYY=          -7116.5498 XXZZ=          -7114.5617 YYZZ=          -7109.9216
 XXYZ=             -0.0155 YYXZ=             -0.0609 ZZXY=             -0.0342
 N-N= 8.114923837086D+03 E-N=-2.207449269659D+04  KE= 2.501600897882D+03
 Leave Link  601 at Mon Oct 18 08:48:25 2021, MaxMem=  7864320000 cpu:              50.3 elap:               1.9
 (Enter /apps/gaussian/g16-c01-avx/g16/l9999.exe)
 Unable to Open any file for archive entry.
 1\1\GINC-CX3-6-1\SP\RPBE1PBE\def2TZVP\C48H48N12\ATARZIA\18-Oct-2021\0\
 \#P PBE1PBE/Def2TZVP SP SCF=(YQC,MaxCycle=900) int=(Grid=Superfinegrid
 ) EmpiricalDispersion=GD3\\_4_alde1_6_ami4_1_opt_gas\\0,1\C,0,-0.9699,
 -0.9966,4.1534\C,0,-1.9854,-2.0401,4.1754\C,0,-1.3361,0.3495,4.152\C,0
 ,-0.3682,1.347,4.1537\H,0,-2.3875,0.5935,4.1603\C,0,0.9807,0.9911,4.14
 85\C,0,1.3605,-0.3458,4.1499\H,0,1.7176,1.7797,4.154\C,0,0.3779,-1.336
 ,4.1483\C,0,2.7719,-0.7041,4.168\H,0,0.6923,-2.3685,4.1535\C,0,-0.764,
 2.7482,4.1758\H,0,3.478,0.1277,4.0203\H,0,-1.6178,-3.0675,4.0284\H,0,-
 1.8378,2.9437,4.0315\C,0,-3.9696,-1.8479,-0.1116\C,0,-4.5875,-1.7449,1
 .203\C,0,-3.1935,-2.958,-0.4455\C,0,-2.6213,-3.0686,-1.7073\H,0,-3.059
 2,-3.73,0.2967\C,0,-2.8227,-2.052,-2.6412\C,0,-3.5934,-0.9401,-2.3227\
 H,0,-2.3738,-2.1576,-3.617\C,0,-4.1615,-0.8429,-1.0522\C,0,-3.8152,0.1
 032,-3.3142\H,0,-4.7602,0.0259,-0.8249\C,0,-1.8327,-4.2437,-2.0509\H,0
 ,-3.2161,0.0229,-4.2344\H,0,-5.0587,-0.7773,1.4348\H,0,-1.6015,-4.9243
 ,-1.2169\C,0,3.5836,-2.5171,-0.1227\C,0,3.8067,-3.1053,1.1906\C,0,4.15
 54,-1.289,-0.4557\C,0,3.9622,-0.7361,-1.7161\H,0,4.7581,-0.7876,0.2861
 \C,0,3.1809,-1.4177,-2.6495\C,0,2.6049,-2.642,-2.3319\H,0,3.0456,-0.97
 45,-3.6243\C,0,2.8076,-3.1847,-1.0628\C,0,1.8108,-3.3543,-3.3233\H,0,2
 .3556,-4.1383,-0.8362\C,0,4.5841,0.5354,-2.0587\H,0,1.5793,-2.7939,-4.
 2423\H,0,3.2048,-3.9974,1.4231\H,0,5.0598,1.0744,-1.2248\C,0,0.385,4.3
 637,-0.1145\C,0,0.7863,4.8498,1.1983\C,0,-0.9653,4.2456,-0.4446\C,0,-1
 .3504,3.8031,-1.7046\H,0,-1.6991,4.5163,0.2991\C,0,-0.3716,3.468,-2.64
 05\C,0,0.9775,3.5806,-2.3258\H,0,-0.69,3.1303,-3.6148\C,0,1.349,4.0263
 ,-1.0571\C,0,1.989,3.2498,-3.3198\H,0,2.4013,4.1112,-0.8327\C,0,-2.763
 1,3.7063,-2.0445\H,0,1.617,2.7704,-4.2386\H,0,1.8605,4.7745,1.4277\H,0
 ,-3.4663,3.8468,-1.209\C,0,-4.1667,-2.8338,4.3843\C,0,-5.214,-2.568,3.
 2915\N,0,-3.2028,-1.7817,4.3768\N,0,-4.6028,-2.7132,2.0103\H,0,-5.6527
 ,-1.5689,3.4438\H,0,-5.9975,-3.3274,3.3734\H,0,-3.716,-3.8261,4.2222\H
 ,0,-4.6702,-2.8156,5.3556\C,0,4.5493,-2.1981,4.3705\C,0,4.8384,-3.2379
 ,3.2764\N,0,3.1565,-1.8881,4.367\N,0,4.6551,-2.6353,1.9961\H,0,4.1922,
 -4.117,3.4304\H,0,5.8878,-3.5378,3.3549\H,0,5.1837,-1.3123,4.2069\H,0,
 4.7876,-2.644,5.341\C,0,-0.3596,5.0343,4.3819\C,0,0.3915,5.8071,3.2862
 \N,0,0.0692,3.6733,4.3744\N,0,-0.0428,5.3484,2.0067\H,0,1.4765,5.6879,
 3.4362\H,0,0.1255,6.8654,3.3673\H,0,-1.4447,5.1402,4.2226\H,0,-0.0893,
 5.4621,5.3521\C,0,-0.6859,-5.6365,-3.5262\C,0,0.6544,-5.2049,-4.1419\N
 ,0,-1.4632,-4.4762,-3.2336\N,0,1.4371,-4.5455,-3.1475\H,0,0.4626,-4.57
 14,-5.0228\H,0,1.1974,-6.1037,-4.4495\H,0,-0.494,-6.2568,-2.636\H,0,-1
 .2332,-6.2238,-4.2697\C,0,-4.8418,2.0296,-4.1311\C,0,-4.5457,3.4064,-3
 .5158\N,0,-4.6596,1.0224,-3.1369\N,0,-3.1517,3.501,-3.2261\H,0,-5.1771
 ,3.5496,-2.6243\H,0,-4.7831,4.1739,-4.2588\H,0,-4.1985,1.8796,-5.0129\
 H,0,-5.8921,2.0078,-4.4371\C,0,5.213,2.228,-3.5321\C,0,4.1677,3.174,-4
 .1439\N,0,4.5978,0.974,-3.2406\N,0,3.2079,3.5211,-3.1466\H,0,3.7127,2.
 6924,-5.0242\H,0,4.674,4.094,-4.4516\H,0,5.6561,2.7027,-2.642\H,0,5.99
 38,2.0492,-4.2776\\Version=ES64L-G16RevC.01\State=1-A\HF=-2512.9060364
 \RMSD=3.116e-09\Dipole=-0.0000861,0.000122,-0.0004503\Quadrupole=0.002
 2978,-0.0026677,0.0003699,-0.0093753,0.013794,0.0015573\PG=C01 [X(C48H
 48N12)]\\@
 The archive entry for this job was punched.


 ARTHROPOD AXIOM: A COMPUTER SYSTEM IS LIKE A SPIDER'S WEB.
 YOU CANNOT PULL ON ONE END WITHOUT MAKING THE OTHER END MOVE.
     -- GREG WETTSTEIN
 Job cpu time:       1 days 11 hours 12 minutes 30.1 seconds.
 Elapsed time:       0 days  1 hours  6 minutes 39.4 seconds.
 File lengths (MBytes):  RWF=   2704 Int=      0 D2E=      0 Chk=    280 Scr=     16
 Normal termination of Gaussian 16 at Mon Oct 18 08:48:25 2021.
