 Entering Gaussian System, Link 0=g16
 Initial command:
 /apps/gaussian/g16-c01-avx/g16/l1.exe "/rds/general/ephemeral/user/atarzia/ephemeral/xtb_spe_DFT/Gau-3176070.inp" -scrdir="/rds/general/ephemeral/user/atarzia/ephemeral/xtb_spe_DFT/"
 Entering Link 1 = /apps/gaussian/g16-c01-avx/g16/l1.exe PID=   3176071.
  
 Copyright (c) 1988-2019, Gaussian, Inc.  All Rights Reserved.
  
 This is part of the Gaussian(R) 16 program.  It is based on
 the Gaussian(R) 09 system (copyright 2009, Gaussian, Inc.),
 the Gaussian(R) 03 system (copyright 2003, Gaussian, Inc.),
 the Gaussian(R) 98 system (copyright 1998, Gaussian, Inc.),
 the Gaussian(R) 94 system (copyright 1995, Gaussian, Inc.),
 the Gaussian 92(TM) system (copyright 1992, Gaussian, Inc.),
 the Gaussian 90(TM) system (copyright 1990, Gaussian, Inc.),
 the Gaussian 88(TM) system (copyright 1988, Gaussian, Inc.),
 the Gaussian 86(TM) system (copyright 1986, Carnegie Mellon
 University), and the Gaussian 82(TM) system (copyright 1983,
 Carnegie Mellon University). Gaussian is a federally registered
 trademark of Gaussian, Inc.
  
 This software contains proprietary and confidential information,
 including trade secrets, belonging to Gaussian, Inc.
  
 This software is provided under written license and may be
 used, copied, transmitted, or stored only in accord with that
 written license.
  
 The following legend is applicable only to US Government
 contracts under FAR:
  
                    RESTRICTED RIGHTS LEGEND
  
 Use, reproduction and disclosure by the US Government is
 subject to restrictions as set forth in subparagraphs (a)
 and (c) of the Commercial Computer Software - Restricted
 Rights clause in FAR 52.227-19.
  
 Gaussian, Inc.
 340 Quinnipiac St., Bldg. 40, Wallingford CT 06492
  
  
 ---------------------------------------------------------------
 Warning -- This program may not be used in any manner that
 competes with the business of Gaussian, Inc. or will provide
 assistance to any competitor of Gaussian, Inc.  The licensee
 of this program is prohibited from giving any competitor of
 Gaussian, Inc. access to this program.  By using this program,
 the user acknowledges that Gaussian, Inc. is engaged in the
 business of creating and licensing software in the field of
 computational chemistry and represents and warrants to the
 licensee that it is not a competitor of Gaussian, Inc. and that
 it will not use this program in any manner prohibited above.
 ---------------------------------------------------------------
  

 Cite this work as:
 Gaussian 16, Revision C.01,
 M. J. Frisch, G. W. Trucks, H. B. Schlegel, G. E. Scuseria, 
 M. A. Robb, J. R. Cheeseman, G. Scalmani, V. Barone, 
 G. A. Petersson, H. Nakatsuji, X. Li, M. Caricato, A. V. Marenich, 
 J. Bloino, B. G. Janesko, R. Gomperts, B. Mennucci, H. P. Hratchian, 
 J. V. Ortiz, A. F. Izmaylov, J. L. Sonnenberg, D. Williams-Young, 
 F. Ding, F. Lipparini, F. Egidi, J. Goings, B. Peng, A. Petrone, 
 T. Henderson, D. Ranasinghe, V. G. Zakrzewski, J. Gao, N. Rega, 
 G. Zheng, W. Liang, M. Hada, M. Ehara, K. Toyota, R. Fukuda, 
 J. Hasegawa, M. Ishida, T. Nakajima, Y. Honda, O. Kitao, H. Nakai, 
 T. Vreven, K. Throssell, J. A. Montgomery, Jr., J. E. Peralta, 
 F. Ogliaro, M. J. Bearpark, J. J. Heyd, E. N. Brothers, K. N. Kudin, 
 V. N. Staroverov, T. A. Keith, R. Kobayashi, J. Normand, 
 K. Raghavachari, A. P. Rendell, J. C. Burant, S. S. Iyengar, 
 J. Tomasi, M. Cossi, J. M. Millam, M. Klene, C. Adamo, R. Cammi, 
 J. W. Ochterski, R. L. Martin, K. Morokuma, O. Farkas, 
 J. B. Foresman, and D. J. Fox, Gaussian, Inc., Wallingford CT, 2019.
 
 ******************************************
 Gaussian 16:  ES64L-G16RevC.01  3-Jul-2019
                26-Oct-2021 
 ******************************************
 %chk=_4_alde1_6_ami2_1_opt_gas_mp2.chk
 %mem=60000mb
 %nprocshared=32
 Will use up to   32 processors via shared memory.
 ---------------------------------------------------------------------
 #P MP2/aug-cc-pVDZ SP SCF=(YQC,MaxCycle=900) int=(Grid=Superfinegrid)
 ---------------------------------------------------------------------
 1/38=1,172=1/1;
 2/12=2,17=6,18=5,40=1/2;
 3/5=16,7=10,11=9,25=1,30=1,75=-7/1,2,3;
 4//1;
 5/5=2,7=900,8=4,13=1,38=1/8,2,8;
 8/10=1/1;
 9/16=-3/6;
 6/7=2,8=2,9=2,10=2/1;
 99/5=1,9=1/99;
 Leave Link    1 at Tue Oct 26 03:05:53 2021, MaxMem=  7864320000 cpu:               6.3 elap:               0.2
 (Enter /apps/gaussian/g16-c01-avx/g16/l101.exe)
 -----------------------------
 _4_alde1_6_ami2_1_opt_gas_mp2
 -----------------------------
 Symbolic Z-matrix:
 Charge =  0 Multiplicity = 1
 C                    -0.9449   -1.0282    4.0437 
 C                    -1.9641   -2.0721    4.0799 
 C                    -1.3055    0.3187    4.0697 
 C                    -0.3348    1.3129    4.0745 
 H                    -2.356     0.5648    4.101 
 C                     1.0119    0.9522    4.0421 
 C                     1.3874   -0.3854    4.0159 
 H                     1.7511    1.7388    4.053 
 C                     0.4011   -1.3713    4.0115 
 C                     2.8013   -0.7465    4.023 
 H                     0.713    -2.4046    3.9975 
 C                    -0.7286    2.7164    4.1421 
 H                     3.4894    0.0908    3.8568 
 H                    -1.5912   -3.0846    3.8858 
 H                    -1.7993    2.8998    3.9937 
 C                    -3.948    -1.6446   -0.083 
 C                    -4.544    -1.5206    1.2397 
 C                    -3.2155   -2.7806   -0.4276 
 C                    -2.6765   -2.9176   -1.7008 
 H                    -3.0908   -3.5541    0.3148 
 C                    -2.8669   -1.9004   -2.6356 
 C                    -3.5955   -0.7634   -2.3084 
 H                    -2.4461   -2.0287   -3.6213 
 C                    -4.1285   -0.6395   -1.0258 
 C                    -3.8194    0.2728   -3.3115 
 H                    -4.6962    0.2482   -0.7921 
 C                    -1.943    -4.128    -2.0568 
 H                    -3.2164    0.1682   -4.2211 
 H                    -4.9458   -0.5269    1.4925 
 H                    -1.7048   -4.7853   -1.2123 
 C                     3.3532   -2.499    -0.2104 
 C                     3.5679   -3.1322    1.0832 
 C                     3.9764   -1.2905   -0.5214 
 C                     3.8004   -0.7016   -1.7676 
 H                     4.6084   -0.8337    0.2248 
 C                     2.9824   -1.3261   -2.7084 
 C                     2.356    -2.5316   -2.4146 
 H                     2.863    -0.8566   -3.6728 
 C                     2.5421   -3.11     -1.1592 
 C                     1.5375   -3.1931   -3.4212 
 H                     2.053    -4.0489   -0.9495 
 C                     4.4892    0.5443   -2.0891 
 H                     1.2872   -2.5888   -4.3071 
 H                     2.9075   -3.9822    1.3156 
 H                     4.961     1.0415   -1.2335 
 C                     0.4643    4.214    -0.044 
 C                     0.9196    4.677     1.2596 
 C                    -0.8977    4.1375   -0.334 
 C                    -1.3338    3.73     -1.5892 
 H                    -1.6019    4.4164    0.4348 
 C                    -0.3937    3.3854   -2.56 
 C                     0.9671    3.4564   -2.2863 
 H                    -0.7493    3.0771   -3.5312 
 C                     1.3889    3.867    -1.022 
 C                     1.9373    3.1279   -3.3214 
 H                     2.4491    3.9224   -0.8282 
 C                    -2.7582    3.6896   -1.8895 
 H                     1.5305    2.639    -4.2204 
 H                     1.9904    4.5319    1.4718 
 H                    -3.4326    3.7937   -1.0252 
 C                    -4.2269   -2.7546    4.4189 
 C                    -5.2273   -2.3431    3.3095 
 N                    -3.1621   -1.7918    4.3482 
 C                    -3.838    -4.2241    4.2331 
 C                    -4.8934   -2.5537    5.7858 
 N                    -4.6262   -2.5017    2.0271 
 H                    -5.5639   -1.3101    3.4934 
 H                    -6.0875   -3.0176    3.3581 
 H                    -4.2124   -2.8631    6.5753 
 H                    -5.8053   -3.1412    5.855 
 H                    -5.1322   -1.5036    5.9307 
 H                    -3.4513   -4.3859    3.2306 
 H                    -4.7177   -4.8479    4.3669 
 H                    -3.0907   -4.5186    4.9676 
 C                     4.5286   -2.3753    4.276 
 C                     4.6607   -3.4016    3.1225 
 N                     3.1612   -1.9339    4.2382 
 C                     5.6038   -1.2958    4.1216 
 C                     4.7039   -3.1076    5.6124 
 N                     4.4776   -2.7506    1.8681 
 H                     3.9388   -4.2185    3.2836 
 H                     5.6766   -3.8074    3.1405 
 H                     4.6404   -2.3957    6.4321 
 H                     5.6694   -3.6054    5.6502 
 H                     3.9158   -3.8452    5.7368 
 H                     6.5857   -1.7498    4.2254 
 H                     5.4934   -0.5323    4.8894 
 H                     5.5386   -0.8392    3.1377 
 C                    -0.1797    5.0152    4.4796 
 C                     0.6257    5.6859    3.3382 
 N                     0.1218    3.6129    4.3847 
 C                    -1.6545    5.4106    4.3609 
 C                     0.3857    5.4837    5.8263 
 N                     0.1404    5.2406    2.0745 
 H                     1.6971    5.4704    3.4787 
 H                     0.4633    6.7664    3.3942 
 H                     0.3357    6.5667    5.9044 
 H                     1.4198    5.165     5.9248 
 H                    -0.1881    5.0434    6.6384 
 H                    -2.2497    4.9016    5.1168 
 H                    -2.0304    5.1654    3.3712 
 H                    -1.7518    6.4826    4.5097 
 C                    -0.9389   -5.5418   -3.6973 
 C                     0.3808   -5.0091   -4.3105 
 N                    -1.6517   -4.3739   -3.2569 
 C                    -0.6156   -6.592    -2.6307 
 C                    -1.7876   -6.1653   -4.8125 
 N                     1.1736   -4.3937   -3.2986 
 H                     0.1423   -4.3206   -5.1372 
 H                     0.9444   -5.8617   -4.7011 
 H                    -2.0512   -5.4073   -5.545 
 H                    -2.705    -6.5707   -4.3923 
 H                    -1.2408   -6.9649   -5.3055 
 H                     0.069    -6.1805   -1.8939 
 H                    -0.1393   -7.4475   -3.1021 
 H                    -1.5254   -6.9309   -2.1386 
 C                    -4.9619    2.2325   -4.0553 
 C                    -4.5885    3.546    -3.3224 
 N                    -4.6707    1.1806   -3.12 
 C                    -4.2328    2.1768   -5.4009 
 C                    -6.4795    2.2017   -4.2751 
 N                    -3.1864    3.5782   -3.0698 
 H                    -5.1855    3.6254   -2.3996 
 H                    -4.8272    4.3857   -3.9817 
 H                    -6.7989    3.0681   -4.8485 
 H                    -6.9925    2.1974   -3.3173 
 H                    -6.7538    1.2988   -4.8156 
 H                    -4.5834    2.9883   -6.0329 
 H                    -4.4332    1.2341   -5.9067 
 H                    -3.1626    2.2938   -5.253 
 C                     5.1983    2.1754   -3.681 
 C                     4.075     3.0826   -4.2442 
 N                     4.539     0.9644   -3.2751 
 C                     5.9684    2.9347   -2.5968 
 C                     6.1422    1.7862   -4.8255 
 N                     3.1583    3.4191   -3.2062 
 H                     3.5869    2.5695   -5.0884 
 H                     4.5311    4.0113   -4.5995 
 H                     6.9545    1.1749   -4.4395 
 H                     6.5593    2.674    -5.2937 
 H                     5.6023    1.2085   -5.5707 
 H                     6.4705    3.7883   -3.0443 
 H                     6.7194    2.2931   -2.1397 
 H                     5.284     3.299    -1.8354 
 
 ITRead=  0  0  0  0  0  0  0  0  0  0  0  0  0  0  0  0  0  0  0  0
 ITRead=  0  0  0  0  0  0  0  0  0  0  0  0  0  0  0  0  0  0  0  0
 ITRead=  0  0  0  0  0  0  0  0  0  0  0  0  0  0  0  0  0  0  0  0
 ITRead=  0  0  0  0  0  0  0  0  0  0  0  0  0  0  0  0  0  0  0  0
 ITRead=  0  0  0  0  0  0  0  0  0  0  0  0  0  0  0  0  0  0  0  0
 ITRead=  0  0  0  0  0  0  0  0  0  0  0  0  0  0  0  0  0  0  0  0
 ITRead=  0  0  0  0  0  0  0  0  0  0  0  0  0  0  0  0  0  0  0  0
 ITRead=  0  0  0  0
 MicOpt= -1 -1 -1 -1 -1 -1 -1 -1 -1 -1 -1 -1 -1 -1 -1 -1 -1 -1 -1 -1
 MicOpt= -1 -1 -1 -1 -1 -1 -1 -1 -1 -1 -1 -1 -1 -1 -1 -1 -1 -1 -1 -1
 MicOpt= -1 -1 -1 -1 -1 -1 -1 -1 -1 -1 -1 -1 -1 -1 -1 -1 -1 -1 -1 -1
 MicOpt= -1 -1 -1 -1 -1 -1 -1 -1 -1 -1 -1 -1 -1 -1 -1 -1 -1 -1 -1 -1
 MicOpt= -1 -1 -1 -1 -1 -1 -1 -1 -1 -1 -1 -1 -1 -1 -1 -1 -1 -1 -1 -1
 MicOpt= -1 -1 -1 -1 -1 -1 -1 -1 -1 -1 -1 -1 -1 -1 -1 -1 -1 -1 -1 -1
 MicOpt= -1 -1 -1 -1 -1 -1 -1 -1 -1 -1 -1 -1 -1 -1 -1 -1 -1 -1 -1 -1
 MicOpt= -1 -1 -1 -1
 NAtoms=    144 NQM=      144 NQMF=       0 NMMI=      0 NMMIF=      0
                NMic=       0 NMicF=      0.
                    Isotopes and Nuclear Properties:
 (Nuclear quadrupole moments (NQMom) in fm**2, nuclear magnetic moments (NMagM)
  in nuclear magnetons)

  Atom         1           2           3           4           5           6           7           8           9          10
 IAtWgt=          12          12          12          12           1          12          12           1          12          12
 AtmWgt=  12.0000000  12.0000000  12.0000000  12.0000000   1.0078250  12.0000000  12.0000000   1.0078250  12.0000000  12.0000000
 NucSpn=           0           0           0           0           1           0           0           1           0           0
 AtZEff=  -0.0000000  -0.0000000  -0.0000000  -0.0000000  -0.0000000  -0.0000000  -0.0000000  -0.0000000  -0.0000000  -0.0000000
 NQMom=    0.0000000   0.0000000   0.0000000   0.0000000   0.0000000   0.0000000   0.0000000   0.0000000   0.0000000   0.0000000
 NMagM=    0.0000000   0.0000000   0.0000000   0.0000000   2.7928460   0.0000000   0.0000000   2.7928460   0.0000000   0.0000000
 AtZNuc=   6.0000000   6.0000000   6.0000000   6.0000000   1.0000000   6.0000000   6.0000000   1.0000000   6.0000000   6.0000000

  Atom        11          12          13          14          15          16          17          18          19          20
 IAtWgt=           1          12           1           1           1          12          12          12          12           1
 AtmWgt=   1.0078250  12.0000000   1.0078250   1.0078250   1.0078250  12.0000000  12.0000000  12.0000000  12.0000000   1.0078250
 NucSpn=           1           0           1           1           1           0           0           0           0           1
 AtZEff=  -0.0000000  -0.0000000  -0.0000000  -0.0000000  -0.0000000  -0.0000000  -0.0000000  -0.0000000  -0.0000000  -0.0000000
 NQMom=    0.0000000   0.0000000   0.0000000   0.0000000   0.0000000   0.0000000   0.0000000   0.0000000   0.0000000   0.0000000
 NMagM=    2.7928460   0.0000000   2.7928460   2.7928460   2.7928460   0.0000000   0.0000000   0.0000000   0.0000000   2.7928460
 AtZNuc=   1.0000000   6.0000000   1.0000000   1.0000000   1.0000000   6.0000000   6.0000000   6.0000000   6.0000000   1.0000000

  Atom        21          22          23          24          25          26          27          28          29          30
 IAtWgt=          12          12           1          12          12           1          12           1           1           1
 AtmWgt=  12.0000000  12.0000000   1.0078250  12.0000000  12.0000000   1.0078250  12.0000000   1.0078250   1.0078250   1.0078250
 NucSpn=           0           0           1           0           0           1           0           1           1           1
 AtZEff=  -0.0000000  -0.0000000  -0.0000000  -0.0000000  -0.0000000  -0.0000000  -0.0000000  -0.0000000  -0.0000000  -0.0000000
 NQMom=    0.0000000   0.0000000   0.0000000   0.0000000   0.0000000   0.0000000   0.0000000   0.0000000   0.0000000   0.0000000
 NMagM=    0.0000000   0.0000000   2.7928460   0.0000000   0.0000000   2.7928460   0.0000000   2.7928460   2.7928460   2.7928460
 AtZNuc=   6.0000000   6.0000000   1.0000000   6.0000000   6.0000000   1.0000000   6.0000000   1.0000000   1.0000000   1.0000000

  Atom        31          32          33          34          35          36          37          38          39          40
 IAtWgt=          12          12          12          12           1          12          12           1          12          12
 AtmWgt=  12.0000000  12.0000000  12.0000000  12.0000000   1.0078250  12.0000000  12.0000000   1.0078250  12.0000000  12.0000000
 NucSpn=           0           0           0           0           1           0           0           1           0           0
 AtZEff=  -0.0000000  -0.0000000  -0.0000000  -0.0000000  -0.0000000  -0.0000000  -0.0000000  -0.0000000  -0.0000000  -0.0000000
 NQMom=    0.0000000   0.0000000   0.0000000   0.0000000   0.0000000   0.0000000   0.0000000   0.0000000   0.0000000   0.0000000
 NMagM=    0.0000000   0.0000000   0.0000000   0.0000000   2.7928460   0.0000000   0.0000000   2.7928460   0.0000000   0.0000000
 AtZNuc=   6.0000000   6.0000000   6.0000000   6.0000000   1.0000000   6.0000000   6.0000000   1.0000000   6.0000000   6.0000000

  Atom        41          42          43          44          45          46          47          48          49          50
 IAtWgt=           1          12           1           1           1          12          12          12          12           1
 AtmWgt=   1.0078250  12.0000000   1.0078250   1.0078250   1.0078250  12.0000000  12.0000000  12.0000000  12.0000000   1.0078250
 NucSpn=           1           0           1           1           1           0           0           0           0           1
 AtZEff=  -0.0000000  -0.0000000  -0.0000000  -0.0000000  -0.0000000  -0.0000000  -0.0000000  -0.0000000  -0.0000000  -0.0000000
 NQMom=    0.0000000   0.0000000   0.0000000   0.0000000   0.0000000   0.0000000   0.0000000   0.0000000   0.0000000   0.0000000
 NMagM=    2.7928460   0.0000000   2.7928460   2.7928460   2.7928460   0.0000000   0.0000000   0.0000000   0.0000000   2.7928460
 AtZNuc=   1.0000000   6.0000000   1.0000000   1.0000000   1.0000000   6.0000000   6.0000000   6.0000000   6.0000000   1.0000000

  Atom        51          52          53          54          55          56          57          58          59          60
 IAtWgt=          12          12           1          12          12           1          12           1           1           1
 AtmWgt=  12.0000000  12.0000000   1.0078250  12.0000000  12.0000000   1.0078250  12.0000000   1.0078250   1.0078250   1.0078250
 NucSpn=           0           0           1           0           0           1           0           1           1           1
 AtZEff=  -0.0000000  -0.0000000  -0.0000000  -0.0000000  -0.0000000  -0.0000000  -0.0000000  -0.0000000  -0.0000000  -0.0000000
 NQMom=    0.0000000   0.0000000   0.0000000   0.0000000   0.0000000   0.0000000   0.0000000   0.0000000   0.0000000   0.0000000
 NMagM=    0.0000000   0.0000000   2.7928460   0.0000000   0.0000000   2.7928460   0.0000000   2.7928460   2.7928460   2.7928460
 AtZNuc=   6.0000000   6.0000000   1.0000000   6.0000000   6.0000000   1.0000000   6.0000000   1.0000000   1.0000000   1.0000000

  Atom        61          62          63          64          65          66          67          68          69          70
 IAtWgt=          12          12          14          12          12          14           1           1           1           1
 AtmWgt=  12.0000000  12.0000000  14.0030740  12.0000000  12.0000000  14.0030740   1.0078250   1.0078250   1.0078250   1.0078250
 NucSpn=           0           0           2           0           0           2           1           1           1           1
 AtZEff=  -0.0000000  -0.0000000  -0.0000000  -0.0000000  -0.0000000  -0.0000000  -0.0000000  -0.0000000  -0.0000000  -0.0000000
 NQMom=    0.0000000   0.0000000   2.0440000   0.0000000   0.0000000   2.0440000   0.0000000   0.0000000   0.0000000   0.0000000
 NMagM=    0.0000000   0.0000000   0.4037610   0.0000000   0.0000000   0.4037610   2.7928460   2.7928460   2.7928460   2.7928460
 AtZNuc=   6.0000000   6.0000000   7.0000000   6.0000000   6.0000000   7.0000000   1.0000000   1.0000000   1.0000000   1.0000000

  Atom        71          72          73          74          75          76          77          78          79          80
 IAtWgt=           1           1           1           1          12          12          14          12          12          14
 AtmWgt=   1.0078250   1.0078250   1.0078250   1.0078250  12.0000000  12.0000000  14.0030740  12.0000000  12.0000000  14.0030740
 NucSpn=           1           1           1           1           0           0           2           0           0           2
 AtZEff=  -0.0000000  -0.0000000  -0.0000000  -0.0000000  -0.0000000  -0.0000000  -0.0000000  -0.0000000  -0.0000000  -0.0000000
 NQMom=    0.0000000   0.0000000   0.0000000   0.0000000   0.0000000   0.0000000   2.0440000   0.0000000   0.0000000   2.0440000
 NMagM=    2.7928460   2.7928460   2.7928460   2.7928460   0.0000000   0.0000000   0.4037610   0.0000000   0.0000000   0.4037610
 AtZNuc=   1.0000000   1.0000000   1.0000000   1.0000000   6.0000000   6.0000000   7.0000000   6.0000000   6.0000000   7.0000000

  Atom        81          82          83          84          85          86          87          88          89          90
 IAtWgt=           1           1           1           1           1           1           1           1          12          12
 AtmWgt=   1.0078250   1.0078250   1.0078250   1.0078250   1.0078250   1.0078250   1.0078250   1.0078250  12.0000000  12.0000000
 NucSpn=           1           1           1           1           1           1           1           1           0           0
 AtZEff=  -0.0000000  -0.0000000  -0.0000000  -0.0000000  -0.0000000  -0.0000000  -0.0000000  -0.0000000  -0.0000000  -0.0000000
 NQMom=    0.0000000   0.0000000   0.0000000   0.0000000   0.0000000   0.0000000   0.0000000   0.0000000   0.0000000   0.0000000
 NMagM=    2.7928460   2.7928460   2.7928460   2.7928460   2.7928460   2.7928460   2.7928460   2.7928460   0.0000000   0.0000000
 AtZNuc=   1.0000000   1.0000000   1.0000000   1.0000000   1.0000000   1.0000000   1.0000000   1.0000000   6.0000000   6.0000000

  Atom        91          92          93          94          95          96          97          98          99         100
 IAtWgt=          14          12          12          14           1           1           1           1           1           1
 AtmWgt=  14.0030740  12.0000000  12.0000000  14.0030740   1.0078250   1.0078250   1.0078250   1.0078250   1.0078250   1.0078250
 NucSpn=           2           0           0           2           1           1           1           1           1           1
 AtZEff=  -0.0000000  -0.0000000  -0.0000000  -0.0000000  -0.0000000  -0.0000000  -0.0000000  -0.0000000  -0.0000000  -0.0000000
 NQMom=    2.0440000   0.0000000   0.0000000   2.0440000   0.0000000   0.0000000   0.0000000   0.0000000   0.0000000   0.0000000
 NMagM=    0.4037610   0.0000000   0.0000000   0.4037610   2.7928460   2.7928460   2.7928460   2.7928460   2.7928460   2.7928460
 AtZNuc=   7.0000000   6.0000000   6.0000000   7.0000000   1.0000000   1.0000000   1.0000000   1.0000000   1.0000000   1.0000000

  Atom       101         102         103         104         105         106         107         108         109         110
 IAtWgt=           1           1          12          12          14          12          12          14           1           1
 AtmWgt=   1.0078250   1.0078250  12.0000000  12.0000000  14.0030740  12.0000000  12.0000000  14.0030740   1.0078250   1.0078250
 NucSpn=           1           1           0           0           2           0           0           2           1           1
 AtZEff=  -0.0000000  -0.0000000  -0.0000000  -0.0000000  -0.0000000  -0.0000000  -0.0000000  -0.0000000  -0.0000000  -0.0000000
 NQMom=    0.0000000   0.0000000   0.0000000   0.0000000   2.0440000   0.0000000   0.0000000   2.0440000   0.0000000   0.0000000
 NMagM=    2.7928460   2.7928460   0.0000000   0.0000000   0.4037610   0.0000000   0.0000000   0.4037610   2.7928460   2.7928460
 AtZNuc=   1.0000000   1.0000000   6.0000000   6.0000000   7.0000000   6.0000000   6.0000000   7.0000000   1.0000000   1.0000000

  Atom       111         112         113         114         115         116         117         118         119         120
 IAtWgt=           1           1           1           1           1           1          12          12          14          12
 AtmWgt=   1.0078250   1.0078250   1.0078250   1.0078250   1.0078250   1.0078250  12.0000000  12.0000000  14.0030740  12.0000000
 NucSpn=           1           1           1           1           1           1           0           0           2           0
 AtZEff=  -0.0000000  -0.0000000  -0.0000000  -0.0000000  -0.0000000  -0.0000000  -0.0000000  -0.0000000  -0.0000000  -0.0000000
 NQMom=    0.0000000   0.0000000   0.0000000   0.0000000   0.0000000   0.0000000   0.0000000   0.0000000   2.0440000   0.0000000
 NMagM=    2.7928460   2.7928460   2.7928460   2.7928460   2.7928460   2.7928460   0.0000000   0.0000000   0.4037610   0.0000000
 AtZNuc=   1.0000000   1.0000000   1.0000000   1.0000000   1.0000000   1.0000000   6.0000000   6.0000000   7.0000000   6.0000000

  Atom       121         122         123         124         125         126         127         128         129         130
 IAtWgt=          12          14           1           1           1           1           1           1           1           1
 AtmWgt=  12.0000000  14.0030740   1.0078250   1.0078250   1.0078250   1.0078250   1.0078250   1.0078250   1.0078250   1.0078250
 NucSpn=           0           2           1           1           1           1           1           1           1           1
 AtZEff=  -0.0000000  -0.0000000  -0.0000000  -0.0000000  -0.0000000  -0.0000000  -0.0000000  -0.0000000  -0.0000000  -0.0000000
 NQMom=    0.0000000   2.0440000   0.0000000   0.0000000   0.0000000   0.0000000   0.0000000   0.0000000   0.0000000   0.0000000
 NMagM=    0.0000000   0.4037610   2.7928460   2.7928460   2.7928460   2.7928460   2.7928460   2.7928460   2.7928460   2.7928460
 AtZNuc=   6.0000000   7.0000000   1.0000000   1.0000000   1.0000000   1.0000000   1.0000000   1.0000000   1.0000000   1.0000000

  Atom       131         132         133         134         135         136         137         138         139         140
 IAtWgt=          12          12          14          12          12          14           1           1           1           1
 AtmWgt=  12.0000000  12.0000000  14.0030740  12.0000000  12.0000000  14.0030740   1.0078250   1.0078250   1.0078250   1.0078250
 NucSpn=           0           0           2           0           0           2           1           1           1           1
 AtZEff=  -0.0000000  -0.0000000  -0.0000000  -0.0000000  -0.0000000  -0.0000000  -0.0000000  -0.0000000  -0.0000000  -0.0000000
 NQMom=    0.0000000   0.0000000   2.0440000   0.0000000   0.0000000   2.0440000   0.0000000   0.0000000   0.0000000   0.0000000
 NMagM=    0.0000000   0.0000000   0.4037610   0.0000000   0.0000000   0.4037610   2.7928460   2.7928460   2.7928460   2.7928460
 AtZNuc=   6.0000000   6.0000000   7.0000000   6.0000000   6.0000000   7.0000000   1.0000000   1.0000000   1.0000000   1.0000000

  Atom       141         142         143         144
 IAtWgt=           1           1           1           1
 AtmWgt=   1.0078250   1.0078250   1.0078250   1.0078250
 NucSpn=           1           1           1           1
 AtZEff=  -0.0000000  -0.0000000  -0.0000000  -0.0000000
 NQMom=    0.0000000   0.0000000   0.0000000   0.0000000
 NMagM=    2.7928460   2.7928460   2.7928460   2.7928460
 AtZNuc=   1.0000000   1.0000000   1.0000000   1.0000000
 Leave Link  101 at Tue Oct 26 03:05:55 2021, MaxMem=  7864320000 cpu:               2.7 elap:               0.1
 (Enter /apps/gaussian/g16-c01-avx/g16/l202.exe)
 Stoichiometry    C60H72N12
 Framework group  C1[X(C60H72N12)]
 Deg. of freedom   426
 Full point group                 C1      NOp   1
 Largest Abelian subgroup         C1      NOp   1
 Largest concise Abelian subgroup C1      NOp   1
                         Standard orientation:                         
 ---------------------------------------------------------------------
 Center     Atomic      Atomic             Coordinates (Angstroms)
 Number     Number       Type             X           Y           Z
 ---------------------------------------------------------------------
      1          6           0        2.904012   -2.914415   -0.809084
      2          6           0        2.276315   -4.089524   -1.404837
      3          6           0        3.073170   -2.822056    0.572112
      4          6           0        3.705551   -1.721401    1.137238
      5          1           0        2.713348   -3.634207    1.185329
      6          6           0        4.163626   -0.697449    0.308719
      7          6           0        4.002615   -0.774570   -1.069319
      8          1           0        4.658093    0.146139    0.766035
      9          6           0        3.365861   -1.885863   -1.621024
     10          6           0        4.523618    0.286356   -1.925208
     11          1           0        3.256149   -1.930284   -2.693953
     12          6           0        3.909870   -1.659234    2.580793
     13          1           0        4.851982    1.186302   -1.391870
     14          1           0        2.038390   -3.992172   -2.470576
     15          1           0        3.369568   -2.422161    3.153570
     16          6           0       -2.126348   -3.642909   -0.039023
     17          6           0       -1.185749   -4.723915    0.219488
     18          6           0       -2.372779   -3.213374   -1.343083
     19          6           0       -3.296671   -2.206882   -1.595521
     20          1           0       -1.838208   -3.691973   -2.149425
     21          6           0       -3.974257   -1.618974   -0.527794
     22          6           0       -3.741274   -2.036767    0.776757
     23          1           0       -4.692967   -0.843509   -0.745157
     24          6           0       -2.809485   -3.046645    1.014290
     25          6           0       -4.488841   -1.438728    1.878367
     26          1           0       -2.646249   -3.361618    2.033631
     27          6           0       -3.569170   -1.793437   -2.968341
     28          1           0       -5.058724   -0.540966    1.611574
     29          1           0       -0.912488   -4.878557    1.275047
     30          1           0       -2.871325   -2.191252   -3.714477
     31          6           0        0.643165    2.215742   -3.511739
     32          6           0        1.731615    1.593819   -4.252636
     33          6           0        0.898937    3.241418   -2.601716
     34          6           0       -0.141330    3.859798   -1.918895
     35          1           0        1.922347    3.550423   -2.453216
     36          6           0       -1.451285    3.438086   -2.143403
     37          6           0       -1.722873    2.418769   -3.048477
     38          1           0       -2.246207    3.934692   -1.608394
     39          6           0       -0.667941    1.807571   -3.725799
     40          6           0       -3.099120    2.016592   -3.303362
     41          1           0       -0.896812    1.021680   -4.429163
     42          6           0        0.141065    4.956035   -0.997704
     43          1           0       -3.850204    2.408017   -2.599583
     44          1           0        1.470340    0.681810   -4.811756
     45          1           0        1.202297    5.092695   -0.759030
     46          6           0        1.059542    1.753427    3.771852
     47          6           0        2.500458    1.654830    3.959146
     48          6           0        0.214648    0.737840    4.218768
     49          6           0       -1.163330    0.846161    4.073135
     50          1           0        0.656638   -0.125191    4.692644
     51          6           0       -1.698378    1.980411    3.463061
     52          6           0       -0.869548    3.001043    3.012418
     53          1           0       -2.770671    2.051252    3.363563
     54          6           0        0.511109    2.877500    3.165668
     55          6           0       -1.444953    4.195409    2.409897
     56          1           0        1.139764    3.681871    2.815765
     57          6           0       -2.035544   -0.205494    4.577110
     58          1           0       -2.515200    4.135611    2.157495
     59          1           0        3.105411    2.399223    3.418214
     60          1           0       -1.535659   -1.141248    4.872317
     61          6           0        1.471979   -6.330429   -1.224886
     62          6           0        0.166129   -6.513388   -0.411140
     63          7           0        2.070558   -5.125537   -0.719199
     64          6           0        1.146998   -6.360683   -2.721103
     65          6           0        2.438829   -7.467701   -0.871599
     66          7           0       -0.744518   -5.457531   -0.705951
     67          1           0        0.414880   -6.569682    0.660850
     68          1           0       -0.302076   -7.451787   -0.723305
     69          1           0        3.351461   -7.368111   -1.454681
     70          1           0        1.986251   -8.432617   -1.085180
     71          1           0        2.698178   -7.419373    0.182504
     72          1           0        0.391754   -5.615611   -2.956041
     73          1           0        0.756773   -7.340248   -2.983930
     74          1           0        2.042415   -6.175704   -3.311601
     75          6           0        5.112373    1.111261   -4.087028
     76          6           0        3.925963    1.457347   -5.021886
     77          7           0        4.601675    0.127442   -3.171969
     78          6           0        5.667493    2.399233   -3.472063
     79          6           0        6.199990    0.406776   -4.907850
     80          7           0        2.889232    2.092318   -4.278350
     81          1           0        3.583409    0.537891   -5.523561
     82          1           0        4.279286    2.169689   -5.773406
     83          1           0        7.052000    0.180810   -4.270856
     84          1           0        6.529188    1.040412   -5.727336
     85          1           0        5.814845   -0.526499   -5.309460
     86          1           0        6.071349    3.028463   -4.260725
     87          1           0        6.465526    2.174321   -2.766942
     88          1           0        4.875354    2.946118   -2.967854
     89          6           0        4.946175   -0.674320    4.492780
     90          6           0        4.428954    0.732978    4.884309
     91          7           0        4.679283   -0.799791    3.085876
     92          6           0        4.308951   -1.722827    5.409320
     93          6           0        6.472535   -0.700298    4.642184
     94          7           0        3.014444    0.793181    4.722192
     95          1           0        4.955499    1.490592    4.281938
     96          1           0        4.648937    0.895708    5.943609
     97          1           0        6.759787   -0.454034    5.661169
     98          1           0        6.923609    0.015268    3.960178
     99          1           0        6.848376   -1.691157    4.398138
    100          1           0        4.611147   -2.725511    5.112620
    101          1           0        3.225801   -1.641182    5.376914
    102          1           0        4.636085   -1.552434    6.431447
    103          6           0       -4.903070   -0.610643   -4.555791
    104          6           0       -4.769767    0.932632   -4.511929
    105          7           0       -4.557004   -1.059471   -3.234875
    106          6           0       -4.060923   -1.160403   -5.710620
    107          6           0       -6.379168   -0.975249   -4.758063
    108          7           0       -3.409862    1.297181   -4.290672
    109          1           0       -5.445175    1.331151   -3.737750
    110          1           0       -5.065017    1.328735   -5.488182
    111          1           0       -6.966873   -0.621150   -3.915554
    112          1           0       -6.484938   -2.055721   -4.820769
    113          1           0       -6.759861   -0.528890   -5.673069
    114          1           0       -3.033682   -0.816920   -5.622979
    115          1           0       -4.464625   -0.799449   -6.652797
    116          1           0       -4.085523   -2.248559   -5.718536
    117          6           0       -5.190303   -1.447998    4.160215
    118          6           0       -4.097850   -1.090420    5.199704
    119          7           0       -4.477561   -1.962951    3.023158
    120          6           0       -6.079966   -0.225346    3.917418
    121          6           0       -6.028760   -2.612036    4.702780
    122          7           0       -3.278799   -0.037214    4.699064
    123          1           0       -3.519404   -1.996986    5.440144
    124          1           0       -4.592604   -0.725716    6.104668
    125          1           0       -6.475964   -2.346772    5.657294
    126          1           0       -5.402705   -3.490538    4.832620
    127          1           0       -6.819420   -2.855137    3.996829
    128          1           0       -6.603998    0.025234    4.835829
    129          1           0       -6.817819   -0.435460    3.145342
    130          1           0       -5.473866    0.627430    3.623637
    131          6           0       -0.600603    6.783804    0.346411
    132          6           0       -1.367897    6.389840    1.634068
    133          7           0       -0.788608    5.682678   -0.558093
    134          6           0        0.845202    7.138550    0.705417
    135          6           0       -1.296755    7.989774   -0.296483
    136          7           0       -0.765671    5.240869    2.224156
    137          1           0       -2.429471    6.229520    1.385983
    138          1           0       -1.283272    7.213988    2.348467
    139          1           0       -0.750717    8.298103   -1.184904
    140          1           0       -1.336918    8.822580    0.400793
    141          1           0       -2.307294    7.720439   -0.591137
    142          1           0        0.851434    8.021830    1.338483
    143          1           0        1.421316    7.353427   -0.192643
    144          1           0        1.307897    6.321023    1.251686
 ---------------------------------------------------------------------
 Rotational constants (GHZ):           0.0242408           0.0234409           0.0227009
 Leave Link  202 at Tue Oct 26 03:05:55 2021, MaxMem=  7864320000 cpu:               1.0 elap:               0.0
 (Enter /apps/gaussian/g16-c01-avx/g16/l301.exe)
 Standard basis: Aug-CC-pVDZ (5D, 7F)
 Ernie: Thresh=  0.10000D-02 Tol=  0.10000D-05 Strict=F.
 Ernie:  144 primitive shells out of 2304 were deleted.
 There are  2448 symmetry adapted cartesian basis functions of A   symmetry.
 There are  2304 symmetry adapted basis functions of A   symmetry.
  2304 basis functions,  3888 primitive gaussians,  2448 cartesian basis functions
   258 alpha electrons      258 beta electrons
       nuclear repulsion energy     11443.3521366819 Hartrees.
 IExCor=    0 DFT=F Ex=HF Corr=None ExCW=0 ScaHFX=  1.000000
 ScaDFX=  1.000000  1.000000  1.000000  1.000000 ScalE2=  1.000000  1.000000
 IRadAn=      7 IRanWt=     -1 IRanGd=            0 ICorTp=0 IEmpDi=  4
 NAtoms=  144 NActive=  144 NUniq=  144 SFac= 1.00D+00 NAtFMM=   60 NAOKFM=T Big=T
 Integral buffers will be    131072 words long.
 Raffenetti 1 integral format.
 Two-electron integral symmetry is turned on.
 Leave Link  301 at Tue Oct 26 03:05:56 2021, MaxMem=  7864320000 cpu:               2.6 elap:               0.1
 (Enter /apps/gaussian/g16-c01-avx/g16/l302.exe)
 NPDir=0 NMtPBC=     1 NCelOv=     1 NCel=       1 NClECP=     1 NCelD=      1
         NCelK=      1 NCelE2=     1 NClLst=     1 CellRange=     0.0.
 One-electron integrals computed using PRISM.
 One-electron integral symmetry used in STVInt
 NBasis=  2304 RedAO= T EigKep=  1.00D-06  NBF=  2304
 NBsUse=  2286 1.00D-06 EigRej=  9.63D-07 NBFU=  2286
 Leave Link  302 at Tue Oct 26 03:06:07 2021, MaxMem=  7864320000 cpu:             328.2 elap:              10.4
 (Enter /apps/gaussian/g16-c01-avx/g16/l303.exe)
 DipDrv:  MaxL=1.
 Leave Link  303 at Tue Oct 26 03:06:08 2021, MaxMem=  7864320000 cpu:              25.5 elap:               1.0
 (Enter /apps/gaussian/g16-c01-avx/g16/l401.exe)
 ExpMin= 2.97D-02 ExpMax= 9.05D+03 ExpMxC= 3.09D+02 IAcc=3 IRadAn=         7 AccDes= 0.00D+00
 Harris functional with IExCor=  205 and IRadAn=       7 diagonalized for initial guess.
 HarFok:  IExCor=  205 AccDes= 0.00D+00 IRadAn=         7 IDoV= 1 UseB2=F ITyADJ=14
 ICtDFT=  3500011 ScaDFX=  1.000000  1.000000  1.000000  1.000000
 FoFCou: FMM=F IPFlag=           0 FMFlag=      100000 FMFlg1=        2001
         NFxFlg=           0 DoJE=T BraDBF=F KetDBF=T FulRan=T
         wScrn=  0.000000 ICntrl=       500 IOpCl=  0 I1Cent=   200000004 NGrid=           0
         NMat0=    1 NMatS0=      1 NMatT0=    0 NMatD0=    1 NMtDS0=    0 NMtDT0=    0
 Petite list used in FoFCou.
 Harris En= -2971.91292688506    
 JPrj=0 DoOrth=F DoCkMO=F.
 Leave Link  401 at Tue Oct 26 03:06:55 2021, MaxMem=  7864320000 cpu:            1456.7 elap:              46.0
 (Enter /apps/gaussian/g16-c01-avx/g16/l508.exe)
 Integral symmetry usage will be decided dynamically.
 Tight linear equation convergence will be used.
 RHF wavefunction.
 Linear searches until partial convergence.
 Full line searches.
 Fock matrices will be formed incrementally for  20 cycles.
 FoFJK:  IHMeth= 1 ICntrl=       0 DoSepK=F KAlg= 0 I1Cent=           0 FoldK=F
 IRaf= 890000000 NMat=       1 IRICut=       1 DoRegI=T DoRafI=F ISym2E= 1 IDoP0=0 IntGTp=1.
 FoFCou: FMM=T IPFlag=           0 FMFlag=      100000 FMFlg1=        2001
         NFxFlg=           0 DoJE=F BraDBF=F KetDBF=F FulRan=T
         wScrn=  0.000000 ICntrl=         0 IOpCl=  0 I1Cent=           0 NGrid=           0
         NMat0=    1 NMatS0=      1 NMatT0=    0 NMatD0=    1 NMtDS0=    0 NMtDT0=    0
 Petite list used in FoFCou.
 FMM levels:  10  Number of levels for PrismC:   9
 Iteration   1 EE= -2964.90182814225                                    Grad=2.599D+00 Max rot=    1.7976 deg.
 Gradient too large for Newton-Raphson -- use scaled steepest descent instead.
 Alpha Gap=     0.457 HL deriv= 5.85D-03
     ILin= 1 X=0.000D+00 Y=-2.964901828142D+03 DE= 0.00D+00 F= -8.18D+00
 RMSU=  6.92D-03    CP:  7.94D-01
     ILin= 2 X=3.000D-01 Y=-2.966764615369D+03 DE=-1.86D+00 F= -4.23D+00 OKLS=F
 RMSU=  1.50D-03    CP:  6.85D-01  1.51D+00
     ILin= 3 X=5.000D-01 Y=-2.967345727871D+03 DE=-2.44D+00 F= -1.58D+00
 RMSU=  3.59D-03    CP:  5.34D-01  2.17D+00  3.00D+00
     ILin= 4 X=9.000D-01 Y=-2.966922200838D+03 DE=-2.02D+00 F=  3.68D+00
     An  expanding polynomial of degree  4 produced  0.6199
 RMSU=  4.88D-06    CP:  6.30D-01  1.76D+00  1.98D+00  1.61D-05
 Iteration   2 EE= -2967.44001047385     Delta-E=       -2.538182331598 Grad=8.434D-01 Max rot=    0.7054 deg.
 Gradient too large for Newton-Raphson -- use scaled steepest descent instead.
 Alpha Gap=     0.462 HL deriv= 1.94D-03
     ILin= 1 X=0.000D+00 Y=-2.967440010474D+03 DE= 0.00D+00 F= -3.97D-01
 RMSU=  1.61D-03    CP:  5.71D-01  1.82D+00  2.93D+00  1.17D-03  3.00D+00
     ILin= 2 X=4.000D-01 Y=-2.967561223165D+03 DE=-1.21D-01 F= -2.10D-01 OKLS=F
 RMSU=  4.21D-04    CP:  5.11D-01  1.84D+00  3.00D+00  6.04D-01  3.00D+00
                    CP:  2.14D+00
     ILin= 3 X=9.000D-01 Y=-2.967607692522D+03 DE=-1.68D-01 F=  2.36D-02
     Accept linear search using points  2 and  3.
     An  expanding polynomial of degree  3 produced  0.7208
 RMSU=  5.55D-07    CP:  5.31D-01  1.84D+00  3.00D+00  3.61D-01  3.00D+00
                    CP:  1.75D+00  5.14D-01
 Iteration   3 EE= -2967.60443971411     Delta-E=       -0.164429240256 Grad=2.748D-01 Max rot=    0.2323 deg.
 Gradient too large for Newton-Raphson -- use scaled steepest descent instead.
 Alpha Gap=     0.462 HL deriv= 6.96D-05
     ILin= 1 X=0.000D+00 Y=-2.967604439714D+03 DE= 0.00D+00 F= -5.11D-02
 RMSU=  6.84D-04    CP:  5.01D-01  1.82D+00  3.00D+00  7.16D-01  3.00D+00
                    CP:  2.13D+00  1.13D+00  3.00D+00
     ILin= 2 X=7.000D-01 Y=-2.967626401155D+03 DE=-2.20D-02 F= -1.16D-02 OKLS=T
     Reject lnstep IMin12=  1  2 Big=T Turn=F Min= 1.221D+00 FVal=-2.967633021014D+03 Lims=  0.00D+00  7.00D-01
 RMSU=  6.15D-05    CP:  4.79D-01  1.79D+00  3.00D+00  1.04D+00  3.00D+00
                    CP:  2.43D+00  1.80D+00  3.00D+00  1.81D+00
     ILin= 3 X=1.300D+00 Y=-2.967623195207D+03 DE=-1.88D-02 F=  2.23D-02
     An  expanding polynomial of degree  3 produced  0.9054
 RMSU=  9.79D-08    CP:  4.93D-01  1.81D+00  3.00D+00  8.26D-01  3.00D+00
                    CP:  2.23D+00  1.34D+00  3.00D+00  1.28D+00  2.38D-01
 Iteration   4 EE= -2967.62759343889     Delta-E=       -0.023153724782 Grad=8.556D-02 Max rot=    0.2856 deg.
 Gradient too large for Newton-Raphson -- use scaled steepest descent instead.
 Alpha Gap=     0.469 HL deriv= 8.65D-04
     ILin= 1 X=0.000D+00 Y=-2.967627593439D+03 DE= 0.00D+00 F= -1.13D-02
 RMSU=  3.04D-04    CP:  4.84D-01  1.79D+00  3.00D+00  8.55D-01  3.00D+00
                    CP:  2.38D+00  1.64D+00  3.00D+00  1.38D+00  1.04D+00
                    CP: -3.00D+00
     ILin= 2 X=8.000D-01 Y=-2.967630777205D+03 DE=-3.18D-03 F=  3.34D-03 OKLS=T
     Accept linear search using points  1 and  2.
     An  expanding polynomial of degree  2 produced  0.5643
 RMSU=  1.53D-06    CP:  4.87D-01  1.80D+00  3.00D+00  8.46D-01  3.00D+00
                    CP:  2.34D+00  1.55D+00  3.00D+00  1.35D+00  7.98D-01
                    CP: -3.00D+00  7.07D-01
 Iteration   5 EE= -2967.63105654382     Delta-E=       -0.003463104935 Grad=3.248D-02 Max rot=    0.0673 deg.
 Gradient too large for Newton-Raphson -- use scaled steepest descent instead.
 Alpha Gap=     0.467 HL deriv= 8.26D-05
     ILin= 1 X=0.000D+00 Y=-2.967631056544D+03 DE= 0.00D+00 F= -1.48D-03
 RMSU=  6.02D-05    CP:  4.83D-01  1.78D+00  3.00D+00  8.68D-01  3.00D+00
                    CP:  2.39D+00  1.69D+00  3.00D+00  1.55D+00  1.11D+00
                    CP: -3.00D+00  9.27D-01 -2.77D+00
     ILin= 2 X=7.000D-01 Y=-2.967631774149D+03 DE=-7.18D-04 F= -5.71D-04 OKLS=F
 RMSU=  7.61D-06    CP:  4.79D-01  1.77D+00  3.00D+00  8.91D-01  3.00D+00
                    CP:  2.45D+00  1.83D+00  3.00D+00  1.75D+00  1.45D+00
                    CP: -3.00D+00  1.15D+00 -3.00D+00  1.99D+00
     ILin= 3 X=1.400D+00 Y=-2.967631855776D+03 DE=-7.99D-04 F=  3.38D-04
     Accept linear search using points  2 and  3.
     An  expanding polynomial of degree  3 produced  1.1005
 RMSU=  1.24D-07    CP:  4.81D-01  1.78D+00  3.00D+00  8.81D-01  3.00D+00
                    CP:  2.42D+00  1.77D+00  3.00D+00  1.67D+00  1.30D+00
                    CP: -3.00D+00  1.05D+00 -3.00D+00  1.57D+00  5.16D-01
 Iteration   6 EE= -2967.63189872369     Delta-E=       -0.000842179863 Grad=1.590D-02 Max rot=    0.0752 deg.
 Gradient too large for Newton-Raphson -- use scaled steepest descent instead.
 Alpha Gap=     0.469 HL deriv= 2.44D-04
     ILin= 1 X=0.000D+00 Y=-2.967631898724D+03 DE= 0.00D+00 F= -5.26D-04
 RMSU=  3.62D-05    CP:  4.80D-01  1.77D+00  3.00D+00  8.79D-01  3.00D+00
                    CP:  2.43D+00  1.79D+00  3.00D+00  1.69D+00  1.38D+00
                    CP: -3.00D+00  1.24D+00 -3.00D+00  1.63D+00  1.82D-01
                    CP:  1.42D+00
     ILin= 2 X=8.000D-01 Y=-2.967632021193D+03 DE=-1.22D-04 F=  2.20D-04 OKLS=T
     Accept linear search using points  1 and  2.
     An  expanding polynomial of degree  2 produced  0.5199
 RMSU=  3.79D-08    CP:  4.80D-01  1.78D+00  3.00D+00  8.80D-01  3.00D+00
                    CP:  2.43D+00  1.78D+00  3.00D+00  1.68D+00  1.35D+00
                    CP: -3.00D+00  1.17D+00 -3.00D+00  1.61D+00  2.94D-01
                    CP:  1.29D+00  6.50D-01
 Iteration   7 EE= -2967.63204620050     Delta-E=       -0.000147476814 Grad=5.428D-03 Max rot=    0.0200 deg.
 SCF Done:  E(RHF) =  -2967.63204620     a.u. after    7 cycles
            Convg  =    0.5428D-02                    18 Fock formations.
              S**2 =  0.0000                  -V/T =  2.0002
 Leave Link  508 at Tue Oct 26 06:10:35 2021, MaxMem=  7864320000 cpu:          349319.0 elap:           11019.5
 (Enter /apps/gaussian/g16-c01-avx/g16/l502.exe)
 Integral symmetry usage will be decided dynamically.
 Closed shell SCF:
 Using DIIS extrapolation, IDIIS=  1040.
 NGot=  7864320000 LenX=  7852230314 LenY=  7846235162
 Requested convergence on RMS density matrix=1.00D-08 within 128 cycles.
 Requested convergence on MAX density matrix=1.00D-06.
 Requested convergence on             energy=1.00D-06.
 No special actions if energy rises.
 Fock matrices will be formed incrementally for  20 cycles.

 Cycle   1  Pass 1  IDiag  1:
 FoFJK:  IHMeth= 1 ICntrl=       0 DoSepK=F KAlg= 0 I1Cent=           0 FoldK=F
 IRaf= 890000000 NMat=       1 IRICut=       1 DoRegI=T DoRafI=F ISym2E= 0 IDoP0=0 IntGTp=1.
 FoFCou: FMM=T IPFlag=           0 FMFlag=      100000 FMFlg1=        2001
         NFxFlg=           0 DoJE=F BraDBF=F KetDBF=F FulRan=T
         wScrn=  0.000000 ICntrl=         0 IOpCl=  0 I1Cent=           0 NGrid=           0
         NMat0=    1 NMatS0=      1 NMatT0=    0 NMatD0=    1 NMtDS0=    0 NMtDT0=    0
 Symmetry not used in FoFCou.
 FMM levels:  10  Number of levels for PrismC:   9
 E= -2967.63204616341    
 DIIS: error= 6.51D-05 at cycle   1 NSaved=   1.
 NSaved= 1 IEnMin= 1 EnMin= -2967.63204616341     IErMin= 1 ErrMin= 6.51D-05
 ErrMax= 6.51D-05  0.00D+00 EMaxC= 1.00D-01 BMatC= 1.47D-05 BMatP= 1.47D-05
 IDIUse=1 WtCom= 1.00D+00 WtEn= 0.00D+00
 Coeff-Com:  0.100D+01
 Coeff:      0.100D+01
 Gap=     0.468 Goal=   None    Shift=    0.000
 RMSDP=7.37D-05 MaxDP=1.40D-02              OVMax= 1.58D-03

 Cycle   2  Pass 1  IDiag  1:
 RMSU=  6.52D-05    CP:  9.99D-01
 E= -2967.63209737530     Delta-E=       -0.000051211882 Rises=F Damp=F
 DIIS: error= 2.77D-05 at cycle   2 NSaved=   2.
 NSaved= 2 IEnMin= 2 EnMin= -2967.63209737530     IErMin= 2 ErrMin= 2.77D-05
 ErrMax= 2.77D-05  0.00D+00 EMaxC= 1.00D-01 BMatC= 3.52D-06 BMatP= 1.47D-05
 IDIUse=1 WtCom= 1.00D+00 WtEn= 0.00D+00
 Coeff-Com: -0.378D-01 0.104D+01
 Coeff:     -0.378D-01 0.104D+01
 Gap=     0.346 Goal=   None    Shift=    0.000
 RMSDP=1.86D-05 MaxDP=3.99D-03 DE=-5.12D-05 OVMax= 8.73D-04

 Cycle   3  Pass 1  IDiag  1:
 RMSU=  1.04D-05    CP:  9.99D-01  1.20D+00
 E= -2967.63210967124     Delta-E=       -0.000012295943 Rises=F Damp=F
 DIIS: error= 1.69D-05 at cycle   3 NSaved=   3.
 NSaved= 3 IEnMin= 3 EnMin= -2967.63210967124     IErMin= 3 ErrMin= 1.69D-05
 ErrMax= 1.69D-05  0.00D+00 EMaxC= 1.00D-01 BMatC= 1.79D-06 BMatP= 3.52D-06
 IDIUse=1 WtCom= 1.00D+00 WtEn= 0.00D+00
 Coeff-Com: -0.300D+00 0.408D+00 0.892D+00
 Coeff:     -0.300D+00 0.408D+00 0.892D+00
 Gap=     0.346 Goal=   None    Shift=    0.000
 RMSDP=1.16D-05 MaxDP=2.54D-03 DE=-1.23D-05 OVMax= 6.63D-04

 Cycle   4  Pass 1  IDiag  1:
 RMSU=  7.23D-06    CP:  9.99D-01  1.30D+00  1.43D+00
 E= -2967.63211512894     Delta-E=       -0.000005457696 Rises=F Damp=F
 DIIS: error= 1.04D-05 at cycle   4 NSaved=   4.
 NSaved= 4 IEnMin= 4 EnMin= -2967.63211512894     IErMin= 4 ErrMin= 1.04D-05
 ErrMax= 1.04D-05  0.00D+00 EMaxC= 1.00D-01 BMatC= 1.89D-07 BMatP= 1.79D-06
 IDIUse=1 WtCom= 1.00D+00 WtEn= 0.00D+00
 Coeff-Com:  0.186D+00-0.373D+00-0.545D+00 0.173D+01
 Coeff:      0.186D+00-0.373D+00-0.545D+00 0.173D+01
 Gap=     0.346 Goal=   None    Shift=    0.000
 RMSDP=7.46D-06 MaxDP=6.92D-04 DE=-5.46D-06 OVMax= 5.11D-04

 Cycle   5  Pass 1  IDiag  1:
 RMSU=  3.85D-06    CP:  9.99D-01  1.28D+00  1.79D+00  1.69D+00
 E= -2967.63211668747     Delta-E=       -0.000001558539 Rises=F Damp=F
 DIIS: error= 3.48D-06 at cycle   5 NSaved=   5.
 NSaved= 5 IEnMin= 5 EnMin= -2967.63211668747     IErMin= 5 ErrMin= 3.48D-06
 ErrMax= 3.48D-06  0.00D+00 EMaxC= 1.00D-01 BMatC= 3.04D-08 BMatP= 1.89D-07
 IDIUse=1 WtCom= 1.00D+00 WtEn= 0.00D+00
 Coeff-Com:  0.403D-01-0.485D-01-0.147D+00-0.154D-01 0.117D+01
 Coeff:      0.403D-01-0.485D-01-0.147D+00-0.154D-01 0.117D+01
 Gap=     0.346 Goal=   None    Shift=    0.000
 RMSDP=2.69D-06 MaxDP=5.04D-04 DE=-1.56D-06 OVMax= 1.76D-04

 Cycle   6  Pass 1  IDiag  1:
 RMSU=  1.31D-06    CP:  9.99D-01  1.28D+00  1.87D+00  1.92D+00  1.32D+00
 E= -2967.63211687267     Delta-E=       -0.000000185191 Rises=F Damp=F
 DIIS: error= 1.10D-06 at cycle   6 NSaved=   6.
 NSaved= 6 IEnMin= 6 EnMin= -2967.63211687267     IErMin= 6 ErrMin= 1.10D-06
 ErrMax= 1.10D-06  0.00D+00 EMaxC= 1.00D-01 BMatC= 4.30D-09 BMatP= 3.04D-08
 IDIUse=1 WtCom= 1.00D+00 WtEn= 0.00D+00
 Coeff-Com: -0.331D-01 0.771D-01 0.862D-01-0.384D+00 0.205D+00 0.105D+01
 Coeff:     -0.331D-01 0.771D-01 0.862D-01-0.384D+00 0.205D+00 0.105D+01
 Gap=     0.346 Goal=   None    Shift=    0.000
 RMSDP=1.03D-06 MaxDP=1.43D-04 DE=-1.85D-07 OVMax= 6.61D-05

 Cycle   7  Pass 1  IDiag  1:
 RMSU=  5.49D-07    CP:  9.99D-01  1.29D+00  1.89D+00  1.98D+00  1.46D+00
                    CP:  1.21D+00
 E= -2967.63211689312     Delta-E=       -0.000000020453 Rises=F Damp=F
 DIIS: error= 2.67D-07 at cycle   7 NSaved=   7.
 NSaved= 7 IEnMin= 7 EnMin= -2967.63211689312     IErMin= 7 ErrMin= 2.67D-07
 ErrMax= 2.67D-07  0.00D+00 EMaxC= 1.00D-01 BMatC= 2.56D-10 BMatP= 4.30D-09
 IDIUse=1 WtCom= 1.00D+00 WtEn= 0.00D+00
 Coeff-Com: -0.280D-03-0.224D-03-0.250D-03 0.290D-01-0.859D-01-0.356D-01
 Coeff-Com:  0.109D+01
 Coeff:     -0.280D-03-0.224D-03-0.250D-03 0.290D-01-0.859D-01-0.356D-01
 Coeff:      0.109D+01
 Gap=     0.346 Goal=   None    Shift=    0.000
 RMSDP=2.30D-07 MaxDP=2.58D-05 DE=-2.05D-08 OVMax= 9.10D-06

 Cycle   8  Pass 1  IDiag  1:
 RMSU=  1.29D-07    CP:  9.99D-01  1.29D+00  1.89D+00  1.99D+00  1.45D+00
                    CP:  1.28D+00  1.24D+00
 E= -2967.63211689308     Delta-E=        0.000000000040 Rises=F Damp=F
 DIIS: error= 1.27D-07 at cycle   8 NSaved=   8.
 NSaved= 8 IEnMin= 7 EnMin= -2967.63211689312     IErMin= 8 ErrMin= 1.27D-07
 ErrMax= 1.27D-07  0.00D+00 EMaxC= 1.00D-01 BMatC= 8.78D-11 BMatP= 2.56D-10
 IDIUse=1 WtCom= 1.00D+00 WtEn= 0.00D+00
 Coeff-Com:  0.501D-02-0.113D-01-0.154D-01 0.655D-01-0.572D-01-0.158D+00
 Coeff-Com:  0.267D+00 0.904D+00
 Coeff:      0.501D-02-0.113D-01-0.154D-01 0.655D-01-0.572D-01-0.158D+00
 Coeff:      0.267D+00 0.904D+00
 Gap=     0.346 Goal=   None    Shift=    0.000
 RMSDP=1.34D-07 MaxDP=1.14D-05 DE= 4.00D-11 OVMax= 4.57D-06

 Cycle   9  Pass 1  IDiag  1:
 RMSU=  7.43D-08    CP:  9.99D-01  1.29D+00  1.89D+00  1.99D+00  1.45D+00
                    CP:  1.32D+00  1.37D+00  1.43D+00
 E= -2967.63211689199     Delta-E=        0.000000001091 Rises=F Damp=F
 DIIS: error= 8.38D-08 at cycle   9 NSaved=   9.
 NSaved= 9 IEnMin= 7 EnMin= -2967.63211689312     IErMin= 9 ErrMin= 8.38D-08
 ErrMax= 8.38D-08  0.00D+00 EMaxC= 1.00D-01 BMatC= 1.86D-11 BMatP= 8.78D-11
 IDIUse=1 WtCom= 1.00D+00 WtEn= 0.00D+00
 Coeff-Com:  0.455D-03-0.329D-03-0.222D-02-0.746D-03 0.130D-01 0.590D-02
 Coeff-Com: -0.219D+00-0.794D-01 0.128D+01
 Coeff:      0.455D-03-0.329D-03-0.222D-02-0.746D-03 0.130D-01 0.590D-02
 Coeff:     -0.219D+00-0.794D-01 0.128D+01
 Gap=     0.346 Goal=   None    Shift=    0.000
 RMSDP=1.61D-07 MaxDP=1.10D-05 DE= 1.09D-09 OVMax= 3.55D-06

 Cycle  10  Pass 1  IDiag  1:
 RMSU=  7.25D-08    CP:  9.99D-01  1.29D+00  1.89D+00  1.99D+00  1.46D+00
                    CP:  1.33D+00  1.47D+00  2.10D+00  2.10D+00
 E= -2967.63211689277     Delta-E=       -0.000000000782 Rises=F Damp=F
 DIIS: error= 4.01D-08 at cycle  10 NSaved=  10.
 NSaved=10 IEnMin= 7 EnMin= -2967.63211689312     IErMin=10 ErrMin= 4.01D-08
 ErrMax= 4.01D-08  0.00D+00 EMaxC= 1.00D-01 BMatC= 3.73D-12 BMatP= 1.86D-11
 IDIUse=1 WtCom= 1.00D+00 WtEn= 0.00D+00
 Coeff-Com: -0.116D-02 0.287D-02 0.325D-02-0.150D-01 0.139D-01 0.416D-01
 Coeff-Com: -0.710D-01-0.266D+00 0.175D+00 0.112D+01
 Coeff:     -0.116D-02 0.287D-02 0.325D-02-0.150D-01 0.139D-01 0.416D-01
 Coeff:     -0.710D-01-0.266D+00 0.175D+00 0.112D+01
 Gap=     0.346 Goal=   None    Shift=    0.000
 RMSDP=1.90D-07 MaxDP=1.07D-05 DE=-7.82D-10 OVMax= 1.94D-06

 Cycle  11  Pass 1  IDiag  1:
 RMSU=  7.38D-08    CP:  9.99D-01  1.29D+00  1.89D+00  1.99D+00  1.46D+00
                    CP:  1.36D+00  1.57D+00  2.75D+00  3.00D+00  2.05D+00
 E= -2967.63211689216     Delta-E=        0.000000000608 Rises=F Damp=F
 DIIS: error= 1.22D-08 at cycle  11 NSaved=  11.
 NSaved=11 IEnMin= 7 EnMin= -2967.63211689312     IErMin=11 ErrMin= 1.22D-08
 ErrMax= 1.22D-08  0.00D+00 EMaxC= 1.00D-01 BMatC= 6.50D-13 BMatP= 3.73D-12
 IDIUse=1 WtCom= 1.00D+00 WtEn= 0.00D+00
 Coeff-Com: -0.158D-03 0.238D-03 0.656D-03-0.102D-02-0.158D-02 0.231D-02
 Coeff-Com:  0.362D-01-0.226D-01-0.206D+00 0.138D+00 0.105D+01
 Coeff:     -0.158D-03 0.238D-03 0.656D-03-0.102D-02-0.158D-02 0.231D-02
 Coeff:      0.362D-01-0.226D-01-0.206D+00 0.138D+00 0.105D+01
 Gap=     0.346 Goal=   None    Shift=    0.000
 RMSDP=2.36D-07 MaxDP=1.65D-05 DE= 6.08D-10 OVMax= 6.13D-07

 Cycle  12  Pass 1  IDiag  1:
 RMSU=  1.14D-07    CP:  9.99D-01  1.29D+00  1.88D+00  1.98D+00  1.47D+00
                    CP:  1.37D+00  1.70D+00  3.00D+00  3.00D+00  3.00D+00
                    CP:  2.51D+00
 E= -2967.63211689135     Delta-E=        0.000000000815 Rises=F Damp=F
 DIIS: error= 8.14D-09 at cycle  12 NSaved=  12.
 NSaved=12 IEnMin= 7 EnMin= -2967.63211689312     IErMin=12 ErrMin= 8.14D-09
 ErrMax= 8.14D-09  0.00D+00 EMaxC= 1.00D-01 BMatC= 2.21D-13 BMatP= 6.50D-13
 IDIUse=1 WtCom= 1.00D+00 WtEn= 0.00D+00
 Coeff-Com:  0.696D-04-0.239D-03-0.100D-03 0.122D-02-0.195D-02-0.329D-02
 Coeff-Com:  0.178D-01 0.171D-01-0.680D-01-0.595D-01 0.188D+00 0.909D+00
 Coeff:      0.696D-04-0.239D-03-0.100D-03 0.122D-02-0.195D-02-0.329D-02
 Coeff:      0.178D-01 0.171D-01-0.680D-01-0.595D-01 0.188D+00 0.909D+00
 Gap=     0.346 Goal=   None    Shift=    0.000
 RMSDP=2.29D-07 MaxDP=1.41D-05 DE= 8.15D-10 OVMax= 1.60D-07

 Cycle  13  Pass 1  IDiag  1:
 RMSU=  1.07D-07    CP:  9.99D-01  1.29D+00  1.88D+00  1.98D+00  1.48D+00
                    CP:  1.40D+00  1.82D+00  3.00D+00  3.00D+00  3.00D+00
                    CP:  3.00D+00  2.31D+00
 E= -2967.63211689145     Delta-E=       -0.000000000102 Rises=F Damp=F
 DIIS: error= 9.42D-09 at cycle  13 NSaved=  13.
 NSaved=13 IEnMin= 7 EnMin= -2967.63211689312     IErMin=12 ErrMin= 8.14D-09
 ErrMax= 9.42D-09  0.00D+00 EMaxC= 1.00D-01 BMatC= 1.98D-13 BMatP= 2.21D-13
 IDIUse=1 WtCom= 1.00D+00 WtEn= 0.00D+00
 Coeff-Com:  0.211D-04-0.872D-04-0.637D-05 0.431D-03-0.775D-03-0.104D-02
 Coeff-Com:  0.673D-02 0.454D-02-0.215D-01-0.141D-01 0.214D-01 0.430D+00
 Coeff-Com:  0.574D+00
 Coeff:      0.211D-04-0.872D-04-0.637D-05 0.431D-03-0.775D-03-0.104D-02
 Coeff:      0.673D-02 0.454D-02-0.215D-01-0.141D-01 0.214D-01 0.430D+00
 Coeff:      0.574D+00
 Gap=     0.346 Goal=   None    Shift=    0.000
 RMSDP=1.50D-07 MaxDP=1.00D-05 DE=-1.02D-10 OVMax= 3.41D-08

 Cycle  14  Pass 1  IDiag  1:
 RMSU=  2.78D-08    CP:  9.99D-01  1.29D+00  1.88D+00  1.97D+00  1.48D+00
                    CP:  1.41D+00  1.89D+00  3.00D+00  3.00D+00  3.00D+00
                    CP:  3.00D+00  3.00D+00  1.77D+00
 E= -2967.63211689058     Delta-E=        0.000000000873 Rises=F Damp=F
 DIIS: error= 9.98D-09 at cycle  14 NSaved=  14.
 NSaved=14 IEnMin= 7 EnMin= -2967.63211689312     IErMin=12 ErrMin= 8.14D-09
 ErrMax= 9.98D-09  0.00D+00 EMaxC= 1.00D-01 BMatC= 2.22D-13 BMatP= 1.98D-13
 IDIUse=1 WtCom= 1.00D+00 WtEn= 0.00D+00
 Coeff-Com:  0.908D-04-0.252D-03-0.200D-03 0.121D-02-0.123D-02-0.292D-02
 Coeff-Com:  0.560D-02 0.166D-01 0.202D-02-0.689D-01-0.165D+00 0.842D+00
 Coeff-Com:  0.241D+01-0.204D+01
 Coeff:      0.908D-04-0.252D-03-0.200D-03 0.121D-02-0.123D-02-0.292D-02
 Coeff:      0.560D-02 0.166D-01 0.202D-02-0.689D-01-0.165D+00 0.842D+00
 Coeff:      0.241D+01-0.204D+01
 Gap=     0.346 Goal=   None    Shift=    0.000
 RMSDP=3.50D-07 MaxDP=2.08D-05 DE= 8.73D-10 OVMax= 4.71D-08

 Cycle  15  Pass 1  IDiag  1:
 RMSU=  4.74D-08    CP:  9.99D-01  1.29D+00  1.88D+00  1.98D+00  1.47D+00
                    CP:  1.37D+00  1.72D+00  3.00D+00  3.00D+00  3.00D+00
                    CP:  2.62D+00  1.27D+00  2.31D-02 -3.63D-01
 E= -2967.63211689161     Delta-E=       -0.000000001033 Rises=F Damp=F
 DIIS: error= 1.09D-08 at cycle  15 NSaved=  15.
 NSaved=15 IEnMin= 7 EnMin= -2967.63211689312     IErMin=12 ErrMin= 8.14D-09
 ErrMax= 1.09D-08  0.00D+00 EMaxC= 1.00D-01 BMatC= 1.60D-13 BMatP= 1.98D-13
 IDIUse=1 WtCom= 1.00D+00 WtEn= 0.00D+00
 Coeff-Com:  0.713D-04-0.175D-03-0.169D-03 0.760D-03-0.447D-03-0.152D-02
 Coeff-Com: -0.301D-02 0.823D-02 0.407D-01-0.439D-01-0.320D+00 0.445D+00
 Coeff-Com:  0.306D+01-0.389D+01 0.171D+01
 Coeff:      0.713D-04-0.175D-03-0.169D-03 0.760D-03-0.447D-03-0.152D-02
 Coeff:     -0.301D-02 0.823D-02 0.407D-01-0.439D-01-0.320D+00 0.445D+00
 Coeff:      0.306D+01-0.389D+01 0.171D+01
 Gap=     0.346 Goal=   None    Shift=    0.000
 RMSDP=5.94D-07 MaxDP=4.22D-05 DE=-1.03D-09 OVMax= 7.63D-08

 Cycle  16  Pass 1  IDiag  1:
 RMSU=  1.20D-07    CP:  9.99D-01  1.29D+00  1.89D+00  2.00D+00  1.45D+00
                    CP:  1.33D+00  1.41D+00  1.62D+00  1.52D+00  2.10D-02
                    CP:  1.10D-03 -1.31D-01 -1.43D-01 -1.75D+00  2.12D+00
 E= -2967.63211689381     Delta-E=       -0.000000002201 Rises=F Damp=F
 DIIS: error= 5.79D-09 at cycle  16 NSaved=  16.
 NSaved=16 IEnMin=16 EnMin= -2967.63211689381     IErMin=16 ErrMin= 5.79D-09
 ErrMax= 5.79D-09  0.00D+00 EMaxC= 1.00D-01 BMatC= 8.35D-14 BMatP= 1.60D-13
 IDIUse=1 WtCom= 1.00D+00 WtEn= 0.00D+00
 Large coefficients: NSaved= 16 BigCof=    0.00 CofMax=   10.00 Det=-4.90D-15
 Inversion failed.  Reducing to 15 matrices.
 Coeff-Com: -0.194D-04 0.343D-04 0.207D-04-0.980D-04 0.147D-03-0.178D-02
 Coeff-Com:  0.497D-04 0.224D-01-0.149D-01-0.191D+00 0.279D+00 0.197D+01
 Coeff-Com: -0.254D+01 0.847D+00 0.627D+00
 Coeff:     -0.194D-04 0.343D-04 0.207D-04-0.980D-04 0.147D-03-0.178D-02
 Coeff:      0.497D-04 0.224D-01-0.149D-01-0.191D+00 0.279D+00 0.197D+01
 Coeff:     -0.254D+01 0.847D+00 0.627D+00
 Gap=     0.346 Goal=   None    Shift=    0.000
 RMSDP=1.94D-07 MaxDP=1.15D-05 DE=-2.20D-09 OVMax= 2.88D-08

 Cycle  17  Pass 1  IDiag  1:
 RMSU=  4.26D-08    CP:  9.99D-01  1.29D+00  1.90D+00  2.00D+00  1.45D+00
                    CP:  1.31D+00  1.32D+00  9.96D-01  1.15D-01 -1.12D+00
                    CP: -7.56D-01  4.36D-03 -2.13D-01 -1.43D+00  1.65D+00
                    CP:  1.22D+00
 E= -2967.63211689352     Delta-E=        0.000000000287 Rises=F Damp=F
 DIIS: error= 5.38D-09 at cycle  17 NSaved=  16.
 NSaved=16 IEnMin=15 EnMin= -2967.63211689381     IErMin=16 ErrMin= 5.38D-09
 ErrMax= 5.38D-09  0.00D+00 EMaxC= 1.00D-01 BMatC= 5.12D-14 BMatP= 8.35D-14
 IDIUse=1 WtCom= 1.00D+00 WtEn= 0.00D+00
 Large coefficients: NSaved= 16 BigCof=    0.00 CofMax=   10.00 Det=-4.16D-15
 Inversion failed.  Reducing to 15 matrices.
 Coeff-Com:  0.236D-04-0.803D-04 0.108D-03 0.357D-03-0.244D-02-0.979D-03
 Coeff-Com:  0.204D-01-0.791D-02-0.150D+00 0.194D+00 0.107D+01-0.104D+01
 Coeff-Com:  0.307D+00-0.618D+00 0.123D+01
 Coeff:      0.236D-04-0.803D-04 0.108D-03 0.357D-03-0.244D-02-0.979D-03
 Coeff:      0.204D-01-0.791D-02-0.150D+00 0.194D+00 0.107D+01-0.104D+01
 Coeff:      0.307D+00-0.618D+00 0.123D+01
 Gap=     0.346 Goal=   None    Shift=    0.000
 RMSDP=1.25D-07 MaxDP=8.32D-06 DE= 2.87D-10 OVMax= 2.97D-08

 Cycle  18  Pass 1  IDiag  1:
 RMSU=  4.51D-08    CP:  9.99D-01  1.29D+00  1.89D+00  2.00D+00  1.45D+00
                    CP:  1.33D+00  1.36D+00  1.35D+00  8.00D-01 -7.36D-01
                    CP: -5.31D-01 -2.91D-02 -5.61D-02 -7.62D-01  8.06D-01
                    CP:  7.58D-01  1.37D+00
 E= -2967.63211689406     Delta-E=       -0.000000000535 Rises=F Damp=F
 DIIS: error= 4.00D-09 at cycle  18 NSaved=  16.
 NSaved=16 IEnMin=16 EnMin= -2967.63211689406     IErMin=16 ErrMin= 4.00D-09
 ErrMax= 4.00D-09  0.00D+00 EMaxC= 1.00D-01 BMatC= 2.70D-14 BMatP= 5.12D-14
 IDIUse=1 WtCom= 1.00D+00 WtEn= 0.00D+00
 Large coefficients: NSaved= 16 BigCof=    0.00 CofMax=   10.00 Det=-3.94D-15
 Inversion failed.  Reducing to 15 matrices.
 Coeff-Com: -0.458D-04 0.155D-03 0.252D-03-0.290D-02-0.112D-02 0.199D-01
 Coeff-Com: -0.260D-02-0.121D+00 0.429D-01 0.613D+00-0.654D+00 0.236D+00
 Coeff-Com: -0.523D+00 0.581D+00 0.811D+00
 Coeff:     -0.458D-04 0.155D-03 0.252D-03-0.290D-02-0.112D-02 0.199D-01
 Coeff:     -0.260D-02-0.121D+00 0.429D-01 0.613D+00-0.654D+00 0.236D+00
 Coeff:     -0.523D+00 0.581D+00 0.811D+00
 Gap=     0.346 Goal=   None    Shift=    0.000
 RMSDP=8.59D-08 MaxDP=6.22D-06 DE=-5.35D-10 OVMax= 2.72D-08

 Cycle  19  Pass 1  IDiag  1:
 RMSU=  2.61D-08    CP:  9.99D-01  1.29D+00  1.90D+00  2.00D+00  1.45D+00
                    CP:  1.32D+00  1.32D+00  1.10D+00  2.88D-01 -1.22D+00
                    CP: -8.53D-01  8.86D-03 -8.09D-02 -6.14D-01  5.23D-01
                    CP:  8.99D-01  1.87D+00  1.44D+00
 E= -2967.63211689403     Delta-E=        0.000000000025 Rises=F Damp=F
 DIIS: error= 6.28D-09 at cycle  19 NSaved=  16.
 NSaved=16 IEnMin=15 EnMin= -2967.63211689406     IErMin=15 ErrMin= 4.00D-09
 ErrMax= 6.28D-09  0.00D+00 EMaxC= 1.00D-01 BMatC= 3.23D-14 BMatP= 2.70D-14
 IDIUse=1 WtCom= 1.00D+00 WtEn= 0.00D+00
 Large coefficients: NSaved= 16 BigCof=    0.00 CofMax=   10.00 Det=-3.94D-15
 Inversion failed.  Reducing to 15 matrices.
 Coeff-Com:  0.612D-04 0.150D-03-0.240D-02-0.759D-03 0.199D-01-0.241D-02
 Coeff-Com: -0.127D+00 0.304D-01 0.625D+00-0.651D+00 0.229D+00-0.606D+00
 Coeff-Com:  0.669D+00 0.104D+01-0.227D+00
 Coeff:      0.612D-04 0.150D-03-0.240D-02-0.759D-03 0.199D-01-0.241D-02
 Coeff:     -0.127D+00 0.304D-01 0.625D+00-0.651D+00 0.229D+00-0.606D+00
 Coeff:      0.669D+00 0.104D+01-0.227D+00
 Gap=     0.346 Goal=   None    Shift=    0.000
 RMSDP=1.37D-08 MaxDP=1.77D-06 DE= 2.55D-11 OVMax= 6.51D-09

 Cycle  20  Pass 1  IDiag  1:
 RMSU=  8.48D-09    CP:  9.99D-01  1.29D+00  1.90D+00  2.00D+00  1.45D+00
                    CP:  1.32D+00  1.32D+00  1.09D+00  2.61D-01 -1.23D+00
                    CP: -8.49D-01  1.63D-02 -8.29D-02 -6.10D-01  5.31D-01
                    CP:  8.71D-01  1.80D+00  1.26D+00  8.09D-01
 E= -2967.63211689322     Delta-E=        0.000000000815 Rises=F Damp=F
 DIIS: error= 4.30D-09 at cycle  20 NSaved=  16.
 NSaved=16 IEnMin=14 EnMin= -2967.63211689406     IErMin=14 ErrMin= 4.00D-09
 ErrMax= 4.30D-09  0.00D+00 EMaxC= 1.00D-01 BMatC= 2.88D-14 BMatP= 2.70D-14
 IDIUse=1 WtCom= 1.00D+00 WtEn= 0.00D+00
 Large coefficients: NSaved= 16 BigCof=    0.00 CofMax=   10.00 Det=-3.33D-15
 Inversion failed.  Reducing to 15 matrices.
 Coeff-Com:  0.162D-03-0.164D-02-0.815D-03 0.155D-01-0.129D-02-0.104D+00
 Coeff-Com:  0.113D-01 0.502D+00-0.504D+00 0.103D+00-0.612D+00 0.610D+00
 Coeff-Com:  0.122D+01-0.101D+01 0.767D+00
 Coeff:      0.162D-03-0.164D-02-0.815D-03 0.155D-01-0.129D-02-0.104D+00
 Coeff:      0.113D-01 0.502D+00-0.504D+00 0.103D+00-0.612D+00 0.610D+00
 Coeff:      0.122D+01-0.101D+01 0.767D+00
 Gap=     0.346 Goal=   None    Shift=    0.000
 RMSDP=5.42D-08 MaxDP=3.13D-06 DE= 8.15D-10 OVMax= 8.13D-09

 Cycle  21  Pass 1  IDiag  1:
 Restarting incremental Fock formation.
 E= -2967.63211690057     Delta-E=       -0.000000007356 Rises=F Damp=F
 DIIS: error= 5.86D-08 at cycle  21 NSaved=  16.
 NSaved=16 IEnMin=16 EnMin= -2967.63211690057     IErMin=13 ErrMin= 4.00D-09
 ErrMax= 5.86D-08  0.00D+00 EMaxC= 1.00D-01 BMatC= 4.86D-12 BMatP= 2.70D-14
 IDIUse=1 WtCom= 1.00D+00 WtEn= 0.00D+00
 Large coefficients: NSaved= 16 BigCof=    0.00 CofMax=   10.00 Det=-3.87D-15
 Inversion failed.  Reducing to 15 matrices.
 Coeff-Com: -0.125D-02 0.369D-04 0.120D-01-0.352D-02-0.876D-01-0.469D-02
 Coeff-Com:  0.316D+00-0.991D-01 0.280D-01-0.476D+00 0.392D+00 0.867D+00
 Coeff-Com: -0.431D+00 0.443D+00 0.457D-01
 Coeff:     -0.125D-02 0.369D-04 0.120D-01-0.352D-02-0.876D-01-0.469D-02
 Coeff:      0.316D+00-0.991D-01 0.280D-01-0.476D+00 0.392D+00 0.867D+00
 Coeff:     -0.431D+00 0.443D+00 0.457D-01
 Gap=     0.346 Goal=   None    Shift=    0.000
 RMSDP=2.06D-07 MaxDP=1.48D-05 DE=-7.36D-09 OVMax= 2.65D-08

 Cycle  22  Pass 1  IDiag  1:
 RMSU=  2.05D-07    CP:  1.00D+00
 E= -2967.63211689957     Delta-E=        0.000000001000 Rises=F Damp=F
 DIIS: error= 5.96D-08 at cycle  22 NSaved=  16.
 NSaved=16 IEnMin=15 EnMin= -2967.63211690057     IErMin=12 ErrMin= 4.00D-09
 ErrMax= 5.96D-08  0.00D+00 EMaxC= 1.00D-01 BMatC= 4.97D-12 BMatP= 2.70D-14
 IDIUse=1 WtCom= 1.00D+00 WtEn= 0.00D+00
 Large coefficients: NSaved= 16 BigCof=    0.00 CofMax=   10.00 Det=-3.54D-15
 Inversion failed.  Reducing to 15 matrices.
 Coeff-Com: -0.118D-02 0.500D-03 0.118D-01-0.600D-02-0.904D-01 0.707D-02
 Coeff-Com:  0.356D+00 0.421D-01-0.333D+00 0.180D+00 0.642D+00-0.128D+00
 Coeff-Com:  0.257D+00-0.465D+00 0.529D+00
 Coeff:     -0.118D-02 0.500D-03 0.118D-01-0.600D-02-0.904D-01 0.707D-02
 Coeff:      0.356D+00 0.421D-01-0.333D+00 0.180D+00 0.642D+00-0.128D+00
 Coeff:      0.257D+00-0.465D+00 0.529D+00
 Gap=     0.346 Goal=   None    Shift=    0.000
 RMSDP=2.78D-07 MaxDP=1.92D-05 DE= 1.00D-09 OVMax= 3.70D-08

 Cycle  23  Pass 1  IDiag  1:
 RMSU=  4.24D-08    CP:  1.00D+00  2.33D+00
 E= -2967.63211689987     Delta-E=       -0.000000000298 Rises=F Damp=F
 DIIS: error= 6.06D-08 at cycle  23 NSaved=  16.
 NSaved=16 IEnMin=14 EnMin= -2967.63211690057     IErMin=11 ErrMin= 4.00D-09
 ErrMax= 6.06D-08  0.00D+00 EMaxC= 1.00D-01 BMatC= 5.11D-12 BMatP= 2.70D-14
 IDIUse=1 WtCom= 1.00D+00 WtEn= 0.00D+00
 Large coefficients: NSaved= 16 BigCof=    0.00 CofMax=   10.00 Det=-8.64D-16
 Inversion failed.  Reducing to 15 matrices.
 Coeff-Com: -0.113D-02 0.470D-03 0.115D-01-0.554D-02-0.885D-01 0.352D+00
 Coeff-Com:  0.422D-01-0.329D+00 0.188D+00 0.639D+00-0.134D+00 0.262D+00
 Coeff-Com: -0.586D+00 0.806D+00-0.157D+00
 Coeff:     -0.113D-02 0.470D-03 0.115D-01-0.554D-02-0.885D-01 0.352D+00
 Coeff:      0.422D-01-0.329D+00 0.188D+00 0.639D+00-0.134D+00 0.262D+00
 Coeff:     -0.586D+00 0.806D+00-0.157D+00
 Gap=     0.346 Goal=   None    Shift=    0.000
 RMSDP=2.65D-08 MaxDP=1.71D-06 DE=-2.98D-10 OVMax= 3.67D-09

 Cycle  24  Pass 1  IDiag  1:
 RMSU=  4.02D-09    CP:  1.00D+00  2.21D+00  8.45D-01
 E= -2967.63211689978     Delta-E=        0.000000000091 Rises=F Damp=F
 DIIS: error= 6.05D-08 at cycle  24 NSaved=  16.
 NSaved=16 IEnMin=13 EnMin= -2967.63211690057     IErMin=10 ErrMin= 4.00D-09
 ErrMax= 6.05D-08  0.00D+00 EMaxC= 1.00D-01 BMatC= 5.11D-12 BMatP= 2.70D-14
 IDIUse=1 WtCom= 1.00D+00 WtEn= 0.00D+00
 Large coefficients: NSaved= 16 BigCof=    0.00 CofMax=   10.00 Det=-8.56D-16
 Inversion failed.  Reducing to 15 matrices.
 Coeff-Com: -0.504D-04-0.501D-03 0.355D-02-0.360D-03-0.352D-01 0.203D+00
 Coeff-Com: -0.265D+00 0.119D+00 0.818D+00-0.289D+00 0.398D+00-0.476D+00
 Coeff-Com:  0.814D+00 0.101D-01-0.299D+00
 Coeff:     -0.504D-04-0.501D-03 0.355D-02-0.360D-03-0.352D-01 0.203D+00
 Coeff:     -0.265D+00 0.119D+00 0.818D+00-0.289D+00 0.398D+00-0.476D+00
 Coeff:      0.814D+00 0.101D-01-0.299D+00
 Gap=     0.346 Goal=   None    Shift=    0.000
 RMSDP=2.21D-07 MaxDP=1.58D-05 DE= 9.09D-11 OVMax= 2.91D-08

 Cycle  25  Pass 1  IDiag  1:
 RMSU=  1.54D-08    CP:  1.00D+00  1.15D+00  2.36D-01  1.65D+00
 E= -2967.63211689912     Delta-E=        0.000000000658 Rises=F Damp=F
 DIIS: error= 5.92D-08 at cycle  25 NSaved=  16.
 NSaved=16 IEnMin=12 EnMin= -2967.63211690057     IErMin= 9 ErrMin= 4.00D-09
 ErrMax= 5.92D-08  0.00D+00 EMaxC= 1.00D-01 BMatC= 4.89D-12 BMatP= 2.70D-14
 IDIUse=1 WtCom= 1.00D+00 WtEn= 0.00D+00
 Large coefficients: NSaved= 16 BigCof=    0.00 CofMax=   10.00 Det=-6.75D-16
 Inversion failed.  Reducing to 15 matrices.
 Coeff-Com:  0.410D-03-0.943D-03 0.361D-03 0.253D-02-0.119D-01-0.250D+00
 Coeff-Com:  0.163D+00 0.102D+01-0.582D+00 0.621D+00-0.344D+00 0.785D+00
 Coeff-Com: -0.150D+00-0.153D+00-0.104D+00
 Coeff:      0.410D-03-0.943D-03 0.361D-03 0.253D-02-0.119D-01-0.250D+00
 Coeff:      0.163D+00 0.102D+01-0.582D+00 0.621D+00-0.344D+00 0.785D+00
 Coeff:     -0.150D+00-0.153D+00-0.104D+00
 Gap=     0.346 Goal=   None    Shift=    0.000
 RMSDP=1.70D-07 MaxDP=1.14D-05 DE= 6.58D-10 OVMax= 2.27D-08

 Cycle  26  Pass 1  IDiag  1:
 RMSU=  9.08D-09    CP:  1.00D+00  3.31D-01 -3.06D-01  1.54D+00  7.37D-01
 E= -2967.63211690118     Delta-E=       -0.000000002055 Rises=F Damp=F
 DIIS: error= 5.86D-08 at cycle  26 NSaved=  16.
 NSaved=16 IEnMin=16 EnMin= -2967.63211690118     IErMin= 8 ErrMin= 4.00D-09
 ErrMax= 5.86D-08  0.00D+00 EMaxC= 1.00D-01 BMatC= 4.85D-12 BMatP= 2.70D-14
 IDIUse=1 WtCom= 1.00D+00 WtEn= 0.00D+00
 Large coefficients: NSaved= 16 BigCof=    0.00 CofMax=   10.00 Det=-6.86D-16
 Inversion failed.  Reducing to 15 matrices.
 Coeff-Com:  0.461D-03-0.944D-03 0.226D-02-0.123D-01-0.196D+00 0.109D+00
 Coeff-Com:  0.101D+01-0.672D+00 0.720D+00-0.484D+00 0.656D+00 0.295D+00
 Coeff-Com: -0.466D+00-0.400D+00 0.435D+00
 Coeff:      0.461D-03-0.944D-03 0.226D-02-0.123D-01-0.196D+00 0.109D+00
 Coeff:      0.101D+01-0.672D+00 0.720D+00-0.484D+00 0.656D+00 0.295D+00
 Coeff:     -0.466D+00-0.400D+00 0.435D+00
 Gap=     0.346 Goal=   None    Shift=    0.000
 RMSDP=1.60D-08 MaxDP=1.15D-06 DE=-2.06D-09 OVMax= 2.13D-09

 Cycle  27  Pass 1  IDiag  1:
 RMSU=  7.62D-09    CP:  1.00D+00  3.99D-01 -2.64D-01  1.70D+00  7.62D-01
                    CP:  1.06D+00
 E= -2967.63211690017     Delta-E=        0.000000001008 Rises=F Damp=F
 DIIS: error= 5.87D-08 at cycle  27 NSaved=  16.
 NSaved=16 IEnMin=15 EnMin= -2967.63211690118     IErMin= 7 ErrMin= 4.00D-09
 ErrMax= 5.87D-08  0.00D+00 EMaxC= 1.00D-01 BMatC= 4.86D-12 BMatP= 2.70D-14
 IDIUse=1 WtCom= 1.00D+00 WtEn= 0.00D+00
 Large coefficients: NSaved= 16 BigCof=    0.00 CofMax=   10.00 Det=-6.86D-16
 Inversion failed.  Reducing to 15 matrices.
 Coeff-Com:  0.461D-03-0.116D-02 0.143D-02-0.191D+00 0.100D+00 0.985D+00
 Coeff-Com: -0.633D+00 0.700D+00-0.487D+00 0.664D+00 0.273D+00-0.435D+00
 Coeff-Com: -0.408D+00 0.420D+00 0.995D-02
 Coeff:      0.461D-03-0.116D-02 0.143D-02-0.191D+00 0.100D+00 0.985D+00
 Coeff:     -0.633D+00 0.700D+00-0.487D+00 0.664D+00 0.273D+00-0.435D+00
 Coeff:     -0.408D+00 0.420D+00 0.995D-02
 Gap=     0.346 Goal=   None    Shift=    0.000
 RMSDP=7.97D-09 MaxDP=5.67D-07 DE= 1.01D-09 OVMax= 3.95D-09

 Cycle  28  Pass 1  IDiag  1:
 RMSU=  8.63D-10    CP:  1.00D+00  4.37D-01 -2.41D-01  1.71D+00  7.84D-01
                    CP:  1.08D+00  9.69D-01
 E= -2967.63211690019     Delta-E=       -0.000000000022 Rises=F Damp=F
 DIIS: error= 5.88D-08 at cycle  28 NSaved=  16.
 NSaved=16 IEnMin=14 EnMin= -2967.63211690118     IErMin= 6 ErrMin= 4.00D-09
 ErrMax= 5.88D-08  0.00D+00 EMaxC= 1.00D-01 BMatC= 4.87D-12 BMatP= 2.70D-14
 IDIUse=1 WtCom= 1.00D+00 WtEn= 0.00D+00
 Large coefficients: NSaved= 16 BigCof=    0.00 CofMax=   10.00 Det=-6.86D-16
 Inversion failed.  Reducing to 15 matrices.
 Coeff-Com:  0.462D-03-0.969D-03-0.190D+00 0.997D-01 0.986D+00-0.624D+00
 Coeff-Com:  0.692D+00-0.490D+00 0.664D+00 0.280D+00-0.441D+00-0.413D+00
 Coeff-Com:  0.426D+00 0.426D-01-0.309D-01
 Coeff:      0.462D-03-0.969D-03-0.190D+00 0.997D-01 0.986D+00-0.624D+00
 Coeff:      0.692D+00-0.490D+00 0.664D+00 0.280D+00-0.441D+00-0.413D+00
 Coeff:      0.426D+00 0.426D-01-0.309D-01
 Gap=     0.346 Goal=   None    Shift=    0.000
 RMSDP=7.09D-10 MaxDP=6.42D-08 DE=-2.18D-11 OVMax= 1.65D-09

 SCF Done:  E(RHF) =  -2967.63211690     A.U. after   28 cycles
            NFock= 28  Conv=0.71D-09     -V/T= 2.0002
 KE= 2.967051918992D+03 PE=-2.980810266852D+04 EE= 1.243006649595D+04
 Leave Link  502 at Tue Oct 26 10:10:26 2021, MaxMem=  7864320000 cpu:          456146.0 elap:           14390.5
 (Enter /apps/gaussian/g16-c01-avx/g16/l508.exe)
 QCSCF skips out because SCF is already converged.
 Leave Link  508 at Tue Oct 26 10:10:26 2021, MaxMem=  7864320000 cpu:               0.8 elap:               0.0
 (Enter /apps/gaussian/g16-c01-avx/g16/l801.exe)
 ExpMin= 2.97D-02 ExpMax= 9.05D+03 ExpMxC= 3.09D+02 IAcc=3 IRadAn=         7 AccDes= 0.00D+00
 HarFok:  IExCor=  205 AccDes= 0.00D+00 IRadAn=         7 IDoV=-2 UseB2=F ITyADJ=14
 ICtDFT= 12500011 ScaDFX=  1.000000  1.000000  1.000000  1.000000
 GSVD:  LWork=       -5760 too small for GESVD, short by       27000 words or       27000 for optimal perf.
 Largest valence mixing into a core orbital is  1.18D-04
 Largest core mixing into a valence orbital is  4.62D-05
 Range of M.O.s used for correlation:    73  2286
 NBasis=  2304 NAE=   258 NBE=   258 NFC=    72 NFV=     0
 NROrb=   2214 NOA=   186 NOB=   186 NVA=  2028 NVB=  2028

 **** Warning!!: The largest alpha MO coefficient is  0.15207332D+03

 Leave Link  801 at Tue Oct 26 10:10:28 2021, MaxMem=  7864320000 cpu:              25.4 elap:               0.8
 (Enter /apps/gaussian/g16-c01-avx/g16/l906.exe)
 FulOut=F Deriv=F AODrv=F NAtomX=   144
   MMem=           0  MDisk=         186 MDiskD=         186
  W3Min=   923405184 MinDsk=   815967032 NBas6D=        2448
 NBas2D=     3000816    NTT=     2997576    LW2=     2000000
    MDV=  7838626108 MDiskM=       44461 NBas2p=     1851154
 Disk-based method using OVN memory for186 occupieds at a time.
 Estimated scratch disk usage=************ words.
 IMap=   1   2   3   4   5   6   7   8   9  10  11  12  13  14  15  16  17  18  19  20
 IMap=  21  22  23  24  25  26  27  28  29  30  31  32  33  34  35  36  37  38  39  40
 IMap=  41  42  43  44  45  46  47  48  49  50  51  52  53  54  55  56  57  58  59  60
 IMap=  61  62  63  64  65  66  67  68  69  70  71  72  73  74  75  76  77  78  79  80
 IMap=  81  82  83  84  85  86  87  88  89  90  91  92  93  94  95  96  97  98  99 100
 IMap= 101 102 103 104 105 106 107 108 109 110 111 112 113 114 115 116 117 118 119 120
 IMap= 121 122 123 124 125 126 127 128 129 130 131 132 133 134 135 136 137 138 139 140
 IMap= 141 142 143 144 145 146 147 148 149 150 151 152 153 154 155 156 157 158 159 160
 IMap= 161 162 163 164 165 166 167 168 169 170 171 172 173 174 175 176 177 178 179 180
 IMap= 181 182 183 184 185 186
 Actual    scratch disk usage=************ words.
 JobTyp=1 Pass  1:  I=   1 to 186 NPSUse= 32 ParTrn=T ParDer=T DoDerP=F.
 Spin components of T(2) and E(2):
     alpha-alpha T2 =       0.5184260428D+00 E2=     -0.1375998106D+01
     alpha-beta  T2 =       0.2722843455D+01 E2=     -0.7699117179D+01
     beta-beta   T2 =       0.5184260428D+00 E2=     -0.1375998106D+01
 The integrals were generated   1 times.
 ANorm=    0.2181672648D+01
 E2 =    -0.1045111339D+02 EUMP2 =    -0.29780832302920D+04
 Leave Link  906 at Thu Oct 28 18:00:33 2021, MaxMem=  7864320000 cpu:         6332969.1 elap:          201004.5
 (Enter /apps/gaussian/g16-c01-avx/g16/l601.exe)
 Copying SCF densities to generalized density rwf, IOpCl= 0 IROHF=0.
 Hyperfine terms turned off by default for NAtoms > 100.

 **********************************************************************

            Population analysis using the SCF Density.

 **********************************************************************

 Orbital symmetries:
       Occupied  (A) (A) (A) (A) (A) (A) (A) (A) (A) (A) (A) (A)
                 (A) (A) (A) (A) (A) (A) (A) (A) (A) (A) (A) (A)
                 (A) (A) (A) (A) (A) (A) (A) (A) (A) (A) (A) (A)
                 (A) (A) (A) (A) (A) (A) (A) (A) (A) (A) (A) (A)
                 (A) (A) (A) (A) (A) (A) (A) (A) (A) (A) (A) (A)
                 (A) (A) (A) (A) (A) (A) (A) (A) (A) (A) (A) (A)
[...]
 Alpha virt. eigenvalues --    2.18390   2.18528   2.18565   2.18999   2.19103
 Alpha virt. eigenvalues --    2.19354   2.19497   2.19879   2.20381   2.20554
 Alpha virt. eigenvalues --    2.20916   2.21025   2.21284   2.21474   2.21750
 Alpha virt. eigenvalues --    2.22245   2.22518   2.22800   2.23050   2.23176
 Alpha virt. eigenvalues --    2.23354   2.23577   2.23683   2.23766   2.23887
 Alpha virt. eigenvalues --    2.24098   2.24368   2.24524   2.24737   2.24760
 Alpha virt. eigenvalues --    2.25156   2.25329   2.25605   2.25791   2.25981
 Alpha virt. eigenvalues --    2.25999   2.26236   2.26407   2.26644   2.26745
 Alpha virt. eigenvalues --    2.26899   2.27275   2.27333   2.27513   2.27713
 Alpha virt. eigenvalues --    2.27850   2.27925   2.28015   2.28166   2.28335
 Alpha virt. eigenvalues --    2.28436   2.28617   2.28793   2.29037   2.29151
 Alpha virt. eigenvalues --    2.29533   2.29576   2.29928   2.30045   2.30072
 Alpha virt. eigenvalues --    2.30254   2.30538   2.30574   2.30914   2.31138
 Alpha virt. eigenvalues --    2.31342   2.31651   2.31757   2.32064   2.32159
 Alpha virt. eigenvalues --    2.32448   2.32527   2.32940   2.32991   2.33204
 Alpha virt. eigenvalues --    2.33459   2.33635   2.33835   2.34005   2.34275
 Alpha virt. eigenvalues --    2.34440   2.34560   2.34835   2.34966   2.35176
 Alpha virt. eigenvalues --    2.35212   2.35331   2.35465   2.35588   2.35768
 Alpha virt. eigenvalues --    2.35982   2.36394   2.36493   2.36714   2.36908
 Alpha virt. eigenvalues --    2.37107   2.37256   2.37650   2.37718   2.37906
 Alpha virt. eigenvalues --    2.38171   2.38343   2.38641   2.38816   2.38940
 Alpha virt. eigenvalues --    2.39303   2.39620   2.39650   2.39833   2.39920
 Alpha virt. eigenvalues --    2.40209   2.40338   2.40354   2.40633   2.40847
 Alpha virt. eigenvalues --    2.40995   2.41125   2.41257   2.41493   2.41629
 Alpha virt. eigenvalues --    2.41710   2.41897   2.41968   2.42106   2.42264
 Alpha virt. eigenvalues --    2.42656   2.42783   2.42862   2.43036   2.43458
 Alpha virt. eigenvalues --    2.43541   2.43726   2.43842   2.44324   2.44356
 Alpha virt. eigenvalues --    2.44443   2.44872   2.45177   2.45339   2.45588
 Alpha virt. eigenvalues --    2.45845   2.45895   2.45999   2.46230   2.46477
 Alpha virt. eigenvalues --    2.46584   2.46632   2.46821   2.47150   2.47244
 Alpha virt. eigenvalues --    2.47681   2.47701   2.48185   2.48311   2.48499
 Alpha virt. eigenvalues --    2.48531   2.48726   2.48950   2.49128   2.49257
 Alpha virt. eigenvalues --    2.49337   2.49430   2.49605   2.49822   2.50154
 Alpha virt. eigenvalues --    2.50244   2.50400   2.50404   2.50621   2.50704
 Alpha virt. eigenvalues --    2.51048   2.51117   2.51239   2.51594   2.51674
 Alpha virt. eigenvalues --    2.51979   2.52311   2.52590   2.52866   2.52941
 Alpha virt. eigenvalues --    2.53281   2.53483   2.53667   2.53865   2.54031
 Alpha virt. eigenvalues --    2.54355   2.54408   2.54515   2.54731   2.54986
 Alpha virt. eigenvalues --    2.55176   2.55386   2.55542   2.55832   2.55904
 Alpha virt. eigenvalues --    2.56022   2.56205   2.56445   2.56741   2.56923
 Alpha virt. eigenvalues --    2.56941   2.57122   2.57509   2.57756   2.57762
 Alpha virt. eigenvalues --    2.58121   2.58458   2.58711   2.59069   2.59195
 Alpha virt. eigenvalues --    2.59414   2.59731   2.59893   2.59998   2.60282
 Alpha virt. eigenvalues --    2.60797   2.60925   2.61114   2.61297   2.61442
 Alpha virt. eigenvalues --    2.61782   2.62273   2.62451   2.62542   2.62701
 Alpha virt. eigenvalues --    2.62741   2.62936   2.63577   2.63885   2.64044
 Alpha virt. eigenvalues --    2.64174   2.64551   2.64683   2.65103   2.65209
 Alpha virt. eigenvalues --    2.65622   2.65805   2.66136   2.66266   2.66620
 Alpha virt. eigenvalues --    2.66822   2.66956   2.67145   2.67235   2.67376
 Alpha virt. eigenvalues --    2.67771   2.68140   2.68452   2.68565   2.68591
 Alpha virt. eigenvalues --    2.68736   2.69050   2.69314   2.69508   2.69833
 Alpha virt. eigenvalues --    2.69857   2.70097   2.70285   2.70333   2.70522
 Alpha virt. eigenvalues --    2.70613   2.70802   2.70962   2.71040   2.71328
 Alpha virt. eigenvalues --    2.71737   2.72308   2.72355   2.72618   2.73125
 Alpha virt. eigenvalues --    2.73158   2.73835   2.73984   2.74254   2.74420
 Alpha virt. eigenvalues --    2.74548   2.74708   2.75130   2.75444   2.75778
 Alpha virt. eigenvalues --    2.75836   2.76262   2.76526   2.76846   2.77513
 Alpha virt. eigenvalues --    2.77794   2.77905   2.78041   2.78166   2.78355
 Alpha virt. eigenvalues --    2.78658   2.78938   2.79140   2.79448   2.79805
 Alpha virt. eigenvalues --    2.80166   2.80270   2.81613   2.82471   2.83116
 Alpha virt. eigenvalues --    2.83244   2.83452   2.83945   2.84037   2.84271
 Alpha virt. eigenvalues --    2.84401   2.84587   2.84878   2.85338   2.85518
 Alpha virt. eigenvalues --    2.85791   2.85936   2.86167   2.86453   2.86621
 Alpha virt. eigenvalues --    2.90396   2.90557   2.90927   2.91437   2.91516
 Alpha virt. eigenvalues --    2.91604   2.92379   2.92511   2.92582   2.92774
 Alpha virt. eigenvalues --    2.92880   2.93005   2.93081   2.93439   2.93478
 Alpha virt. eigenvalues --    2.93776   2.94177   2.94591   2.94617   2.94996
 Alpha virt. eigenvalues --    2.95088   2.95339   2.95512   2.95810   2.96145
 Alpha virt. eigenvalues --    2.96198   2.96255   2.96544   2.96614   2.96958
 Alpha virt. eigenvalues --    2.97348   2.97604   2.98202   2.98587   2.98827
 Alpha virt. eigenvalues --    2.98921   2.99223   2.99348   3.00229   3.00357
 Alpha virt. eigenvalues --    3.00715   3.01227   3.01409   3.01664   3.02260
 Alpha virt. eigenvalues --    3.02388   3.02741   3.03282   3.04057   3.04194
 Alpha virt. eigenvalues --    3.04529   3.04695   3.04973   3.05309   3.06152
 Alpha virt. eigenvalues --    3.06802   3.06924   3.07007   3.07431   3.07684
 Alpha virt. eigenvalues --    3.08328   3.08547   3.08733   3.08933   3.09081
 Alpha virt. eigenvalues --    3.09705   3.10185   3.11070   3.11233   3.11754
 Alpha virt. eigenvalues --    3.12021   3.12303   3.12766   3.12897   3.13052
 Alpha virt. eigenvalues --    3.13525   3.14042   3.14300   3.14466   3.14680
 Alpha virt. eigenvalues --    3.14930   3.15192   3.15850   3.16517   3.16930
 Alpha virt. eigenvalues --    3.17157   3.17270   3.17351   3.17726   3.17824
 Alpha virt. eigenvalues --    3.18140   3.18457   3.18601   3.18860   3.19095
 Alpha virt. eigenvalues --    3.19537   3.19711   3.19865   3.22252   3.22469
 Alpha virt. eigenvalues --    3.22577   3.23125   3.23152   3.23604   3.23907
 Alpha virt. eigenvalues --    3.24083   3.24443   3.24711   3.25717   3.25972
 Alpha virt. eigenvalues --    3.26649   3.27718   3.28711   3.29530   3.29640
 Alpha virt. eigenvalues --    3.29702   3.31437   3.32264   3.33083   3.33498
 Alpha virt. eigenvalues --    3.33875   3.34371   3.34810   3.35239   3.35833
 Alpha virt. eigenvalues --    3.36232   3.36359   3.36710   3.37062   3.37594
 Alpha virt. eigenvalues --    3.37890   3.38234   3.38568   3.39036   3.43339
 Alpha virt. eigenvalues --    3.44322   3.44884   3.45318   3.46085   3.46606
 Alpha virt. eigenvalues --    3.50087   3.50175   3.50349   3.51084   3.51790
 Alpha virt. eigenvalues --    3.54848   3.56559   3.57121   3.57732   3.57755
 Alpha virt. eigenvalues --    3.57903   3.57948   3.65208   3.65622   3.66183
 Alpha virt. eigenvalues --    3.66445   3.66597   3.66977   3.67448   3.67771
 Alpha virt. eigenvalues --    3.68326   3.68447   3.69398   3.69993   3.73433
 Alpha virt. eigenvalues --    3.74079   3.75073   3.75719   3.77195   3.78162
 Alpha virt. eigenvalues --    3.82969   3.83290   3.83450   3.84340   3.85770
 Alpha virt. eigenvalues --    3.86667   3.88726   3.89124   3.89641   3.91015
 Alpha virt. eigenvalues --    3.92754   3.93755   3.94756   3.95379   3.97194
 Alpha virt. eigenvalues --    3.97913   4.01797   4.01910   4.05227   4.06835
 Alpha virt. eigenvalues --    4.08648   4.09161   4.10228   4.10812   4.12416
 Alpha virt. eigenvalues --    4.13454   4.15294   4.19974   4.21531   4.21735
 Alpha virt. eigenvalues --    4.36066   4.38039   4.39632   4.41234   4.42506
 Alpha virt. eigenvalues --    4.42934   4.44864   4.47723   4.53787   4.54700
 Alpha virt. eigenvalues --    4.55376   4.57395   4.57522   4.58160   5.02415
 Alpha virt. eigenvalues --    5.03604   5.03926   5.05289
          Condensed to atoms (all electrons):
 Mulliken charges:
               1
     1  C    1.139422
     2  C    0.414781
     3  C    0.027364
     4  C    1.225367
     5  H   -1.024554
     6  C   -0.081189
     7  C    1.221426
     8  H   -1.022890
     9  C    0.034554
    10  C    0.430389
    11  H   -1.009711
    12  C    0.380181
    13  H   -0.908748
    14  H   -0.920151
    15  H   -0.904120
    16  C    1.024091
    17  C    0.788075
    18  C    0.192872
    19  C    0.759748
    20  H   -0.894238
    21  C    0.201956
    22  C    0.992697
    23  H   -1.009026
    24  C    0.208708
    25  C    0.506138
    26  H   -1.000009
    27  C    0.470565
    28  H   -0.942892
    29  H   -0.688113
    30  H   -0.926366
    31  C    1.005524
    32  C    0.828890
    33  C    0.010363
    34  C    0.809537
    35  H   -0.891939
    36  C    0.185851
    37  C    0.865419
    38  H   -0.998252
    39  C    0.391582
    40  C    0.787045
    41  H   -0.891284
    42  C    0.499017
    43  H   -0.706202
    44  H   -0.686861
    45  H   -0.931637
    46  C    0.744355
    47  C    0.813564
    48  C    0.223877
    49  C    0.721244
    50  H   -0.885882
    51  C    0.311312
    52  C    0.867138
    53  H   -0.894082
    54  C    0.263538
    55  C    0.835459
    56  H   -0.892774
    57  C    0.820751
    58  H   -0.702567
    59  H   -0.703918
    60  H   -0.700830
    61  C   -3.783422
    62  C    1.512103
    63  N    0.028083
    64  C    1.571562
    65  C    1.798990
    66  N   -0.479694
    67  H   -0.204614
    68  H   -0.226762
    69  H   -0.042275
    70  H   -0.016812
    71  H   -0.044615
    72  H    0.065620
    73  H   -0.148001
    74  H    0.057781
    75  C   -3.820208
    76  C    1.477114
    77  N    0.038586
    78  C    1.577776
    79  C    1.816689
    80  N   -0.492219
    81  H   -0.205833
    82  H   -0.229591
    83  H   -0.043216
    84  H   -0.017139
    85  H   -0.046469
    86  H   -0.146746
    87  H    0.057506
    88  H    0.069551
    89  C   -3.786561
    90  C    1.505545
    91  N    0.040513
    92  C    1.579139
    93  C    1.797813
    94  N   -0.498941
    95  H   -0.195716
    96  H   -0.228027
    97  H   -0.017443
    98  H   -0.048917
    99  H   -0.044067
   100  H    0.053536
   101  H    0.064945
   102  H   -0.146051
   103  C   -3.881146
   104  C    1.573016
   105  N    0.050601
   106  C    1.564427
   107  C    1.786148
   108  N   -0.495791
   109  H   -0.194405
   110  H   -0.221143
   111  H   -0.046615
   112  H   -0.041403
   113  H   -0.017335
   114  H    0.073560
   115  H   -0.143109
   116  H    0.056503
   117  C   -3.769290
   118  C    1.514704
   119  N   -0.003159
   120  C    1.563804
   121  C    1.739453
   122  N   -0.510741
   123  H   -0.193799
   124  H   -0.224908
   125  H   -0.014037
   126  H   -0.045898
   127  H   -0.040651
   128  H   -0.146071
   129  H    0.062476
   130  H    0.074208
   131  C   -3.865817
   132  C    1.518069
   133  N    0.002421
   134  C    1.552646
   135  C    1.770608
   136  N   -0.510810
   137  H   -0.195631
   138  H   -0.223577
   139  H   -0.040336
   140  H   -0.012715
   141  H   -0.046582
   142  H   -0.141331
   143  H    0.062548
   144  H    0.077025
 Sum of Mulliken charges =   0.00000
 Mulliken charges with hydrogens summed into heavy atoms:
               1
     1  C    1.139422
     2  C   -0.505370
     3  C   -0.997190
     4  C    1.225367
     6  C   -1.104079
     7  C    1.221426
     9  C   -0.975156
    10  C   -0.478359
    12  C   -0.523939
    16  C    1.024091
    17  C    0.099962
    18  C   -0.701366
    19  C    0.759748
    21  C   -0.807071
    22  C    0.992697
    24  C   -0.791302
    25  C   -0.436754
    27  C   -0.455801
    31  C    1.005524
    32  C    0.142029
    33  C   -0.881576
    34  C    0.809537
    36  C   -0.812401
    37  C    0.865419
    39  C   -0.499702
    40  C    0.080843
    42  C   -0.432620
    46  C    0.744355
    47  C    0.109646
    48  C   -0.662006
    49  C    0.721244
    51  C   -0.582770
    52  C    0.867138
    54  C   -0.629236
    55  C    0.132892
    57  C    0.119921
    61  C   -3.783422
    62  C    1.080727
    63  N    0.028083
    64  C    1.546962
    65  C    1.695288
    66  N   -0.479694
    75  C   -3.820208
    76  C    1.041690
    77  N    0.038586
    78  C    1.558087
    79  C    1.709865
    80  N   -0.492219
    89  C   -3.786561
    90  C    1.081802
    91  N    0.040513
    92  C    1.551569
    93  C    1.687387
    94  N   -0.498941
   103  C   -3.881146
   104  C    1.157469
   105  N    0.050601
   106  C    1.551382
   107  C    1.680796
   108  N   -0.495791
   117  C   -3.769290
   118  C    1.095996
   119  N   -0.003159
   120  C    1.554418
   121  C    1.638867
   122  N   -0.510741
   131  C   -3.865817
   132  C    1.098862
   133  N    0.002421
   134  C    1.550889
   135  C    1.670975
   136  N   -0.510810
 Electronic spatial extent (au):  <R**2>=          64797.5920
 Charge=              0.0000 electrons
 Dipole moment (field-independent basis, Debye):
    X=             -0.1703    Y=              0.3365    Z=              0.1658  Tot=              0.4120
 Quadrupole moment (field-independent basis, Debye-Ang):
   XX=           -427.8295   YY=           -427.0939   ZZ=           -426.4989
   XY=              0.2293   XZ=             -0.0235   YZ=              0.2167
 Traceless Quadrupole moment (field-independent basis, Debye-Ang):
   XX=             -0.6888   YY=              0.0469   ZZ=              0.6419
   XY=              0.2293   XZ=             -0.0235   YZ=              0.2167
 Octapole moment (field-independent basis, Debye-Ang**2):
  XXX=            -52.2291  YYY=              7.8527  ZZZ=            -39.7352  XYY=             29.8260
  XXY=            112.2760  XXZ=             18.7291  XZZ=             11.7618  YZZ=            -99.5543
  YYZ=             31.5140  XYZ=             -5.7097
 Hexadecapole moment (field-independent basis, Debye-Ang**3):
 XXXX=         -32306.1490 YYYY=         -29414.0702 ZZZZ=         -28024.5061 XXXY=             47.5667
 XXXZ=            -11.9688 YYYX=           -109.4688 YYYZ=            293.1825 ZZZX=             66.4231
 ZZZY=           -155.9211 XXYY=         -10620.8814 XXZZ=          -9524.4970 YYZZ=          -9891.3848
 XXYZ=           -103.6829 YYXZ=            -57.6289 ZZXY=             98.1043
 N-N= 1.144335213668D+04 E-N=-2.980810266852D+04  KE= 2.967051918992D+03
 Leave Link  601 at Thu Oct 28 18:00:37 2021, MaxMem=  7864320000 cpu:              95.0 elap:               3.6
 (Enter /apps/gaussian/g16-c01-avx/g16/l9999.exe)
 Unable to Open any file for archive entry.
 1\1\GINC-CX3-7-3\SP\RMP2-FC\Aug-CC-pVDZ\C60H72N12\ATARZIA\28-Oct-2021\
 0\\#P MP2/aug-cc-pVDZ SP SCF=(YQC,MaxCycle=900) int=(Grid=Superfinegri
 d)\\_4_alde1_6_ami2_1_opt_gas_mp2\\0,1\C,0,-0.9449,-1.0282,4.0437\C,0,
 -1.9641,-2.0721,4.0799\C,0,-1.3055,0.3187,4.0697\C,0,-0.3348,1.3129,4.
 0745\H,0,-2.356,0.5648,4.101\C,0,1.0119,0.9522,4.0421\C,0,1.3874,-0.38
 54,4.0159\H,0,1.7511,1.7388,4.053\C,0,0.4011,-1.3713,4.0115\C,0,2.8013
 ,-0.7465,4.023\H,0,0.713,-2.4046,3.9975\C,0,-0.7286,2.7164,4.1421\H,0,
 3.4894,0.0908,3.8568\H,0,-1.5912,-3.0846,3.8858\H,0,-1.7993,2.8998,3.9
 937\C,0,-3.948,-1.6446,-0.083\C,0,-4.544,-1.5206,1.2397\C,0,-3.2155,-2
 .7806,-0.4276\C,0,-2.6765,-2.9176,-1.7008\H,0,-3.0908,-3.5541,0.3148\C
 ,0,-2.8669,-1.9004,-2.6356\C,0,-3.5955,-0.7634,-2.3084\H,0,-2.4461,-2.
 0287,-3.6213\C,0,-4.1285,-0.6395,-1.0258\C,0,-3.8194,0.2728,-3.3115\H,
 0,-4.6962,0.2482,-0.7921\C,0,-1.943,-4.128,-2.0568\H,0,-3.2164,0.1682,
 -4.2211\H,0,-4.9458,-0.5269,1.4925\H,0,-1.7048,-4.7853,-1.2123\C,0,3.3
 532,-2.499,-0.2104\C,0,3.5679,-3.1322,1.0832\C,0,3.9764,-1.2905,-0.521
 4\C,0,3.8004,-0.7016,-1.7676\H,0,4.6084,-0.8337,0.2248\C,0,2.9824,-1.3
 261,-2.7084\C,0,2.356,-2.5316,-2.4146\H,0,2.863,-0.8566,-3.6728\C,0,2.
 5421,-3.11,-1.1592\C,0,1.5375,-3.1931,-3.4212\H,0,2.053,-4.0489,-0.949
 5\C,0,4.4892,0.5443,-2.0891\H,0,1.2872,-2.5888,-4.3071\H,0,2.9075,-3.9
 822,1.3156\H,0,4.961,1.0415,-1.2335\C,0,0.4643,4.214,-0.044\C,0,0.9196
 ,4.677,1.2596\C,0,-0.8977,4.1375,-0.334\C,0,-1.3338,3.73,-1.5892\H,0,-
 1.6019,4.4164,0.4348\C,0,-0.3937,3.3854,-2.56\C,0,0.9671,3.4564,-2.286
 3\H,0,-0.7493,3.0771,-3.5312\C,0,1.3889,3.867,-1.022\C,0,1.9373,3.1279
 ,-3.3214\H,0,2.4491,3.9224,-0.8282\C,0,-2.7582,3.6896,-1.8895\H,0,1.53
 05,2.639,-4.2204\H,0,1.9904,4.5319,1.4718\H,0,-3.4326,3.7937,-1.0252\C
 ,0,-4.2269,-2.7546,4.4189\C,0,-5.2273,-2.3431,3.3095\N,0,-3.1621,-1.79
 18,4.3482\C,0,-3.838,-4.2241,4.2331\C,0,-4.8934,-2.5537,5.7858\N,0,-4.
 6262,-2.5017,2.0271\H,0,-5.5639,-1.3101,3.4934\H,0,-6.0875,-3.0176,3.3
 581\H,0,-4.2124,-2.8631,6.5753\H,0,-5.8053,-3.1412,5.855\H,0,-5.1322,-
 1.5036,5.9307\H,0,-3.4513,-4.3859,3.2306\H,0,-4.7177,-4.8479,4.3669\H,
 0,-3.0907,-4.5186,4.9676\C,0,4.5286,-2.3753,4.276\C,0,4.6607,-3.4016,3
 .1225\N,0,3.1612,-1.9339,4.2382\C,0,5.6038,-1.2958,4.1216\C,0,4.7039,-
 3.1076,5.6124\N,0,4.4776,-2.7506,1.8681\H,0,3.9388,-4.2185,3.2836\H,0,
 5.6766,-3.8074,3.1405\H,0,4.6404,-2.3957,6.4321\H,0,5.6694,-3.6054,5.6
 502\H,0,3.9158,-3.8452,5.7368\H,0,6.5857,-1.7498,4.2254\H,0,5.4934,-0.
 5323,4.8894\H,0,5.5386,-0.8392,3.1377\C,0,-0.1797,5.0152,4.4796\C,0,0.
 6257,5.6859,3.3382\N,0,0.1218,3.6129,4.3847\C,0,-1.6545,5.4106,4.3609\
 C,0,0.3857,5.4837,5.8263\N,0,0.1404,5.2406,2.0745\H,0,1.6971,5.4704,3.
 4787\H,0,0.4633,6.7664,3.3942\H,0,0.3357,6.5667,5.9044\H,0,1.4198,5.16
 5,5.9248\H,0,-0.1881,5.0434,6.6384\H,0,-2.2497,4.9016,5.1168\H,0,-2.03
 04,5.1654,3.3712\H,0,-1.7518,6.4826,4.5097\C,0,-0.9389,-5.5418,-3.6973
 \C,0,0.3808,-5.0091,-4.3105\N,0,-1.6517,-4.3739,-3.2569\C,0,-0.6156,-6
 .592,-2.6307\C,0,-1.7876,-6.1653,-4.8125\N,0,1.1736,-4.3937,-3.2986\H,
 0,0.1423,-4.3206,-5.1372\H,0,0.9444,-5.8617,-4.7011\H,0,-2.0512,-5.407
 3,-5.545\H,0,-2.705,-6.5707,-4.3923\H,0,-1.2408,-6.9649,-5.3055\H,0,0.
 069,-6.1805,-1.8939\H,0,-0.1393,-7.4475,-3.1021\H,0,-1.5254,-6.9309,-2
 .1386\C,0,-4.9619,2.2325,-4.0553\C,0,-4.5885,3.546,-3.3224\N,0,-4.6707
 ,1.1806,-3.12\C,0,-4.2328,2.1768,-5.4009\C,0,-6.4795,2.2017,-4.2751\N,
 0,-3.1864,3.5782,-3.0698\H,0,-5.1855,3.6254,-2.3996\H,0,-4.8272,4.3857
 ,-3.9817\H,0,-6.7989,3.0681,-4.8485\H,0,-6.9925,2.1974,-3.3173\H,0,-6.
 7538,1.2988,-4.8156\H,0,-4.5834,2.9883,-6.0329\H,0,-4.4332,1.2341,-5.9
 067\H,0,-3.1626,2.2938,-5.253\C,0,5.1983,2.1754,-3.681\C,0,4.075,3.082
 6,-4.2442\N,0,4.539,0.9644,-3.2751\C,0,5.9684,2.9347,-2.5968\C,0,6.142
 2,1.7862,-4.8255\N,0,3.1583,3.4191,-3.2062\H,0,3.5869,2.5695,-5.0884\H
 ,0,4.5311,4.0113,-4.5995\H,0,6.9545,1.1749,-4.4395\H,0,6.5593,2.674,-5
 .2937\H,0,5.6023,1.2085,-5.5707\H,0,6.4705,3.7883,-3.0443\H,0,6.7194,2
 .2931,-2.1397\H,0,5.284,3.299,-1.8354\\Version=ES64L-G16RevC.01\State=
 1-A\HF=-2967.6321169\MP2=-2978.0832303\RMSD=7.087e-10\PG=C01 [X(C60H72
 N12)]\\@
 The archive entry for this job was punched.


 "WOULD YOU TELL ME PLEASE, WHICH WAY I OUGHT TO WALK FROM HERE?"
 "THAT DEPENDS A GREAT DEAL ON WHERE YOU WANT TO GO," SAID THE CAT.
 "I DON'T MUCH CARE WHERE -- ", SAID ALICE.
 "THEN IT DOESN'T MATTER WHICH WAY YOU WALK," SAID THE CAT.

                                      -- LEWIS CARROLL
 Job cpu time:      82 days 15 hours 26 minutes 50.0 seconds.
 Elapsed time:       2 days 14 hours 54 minutes 37.9 seconds.
 File lengths (MBytes):  RWF=******* Int=      0 D2E=      0 Chk=    352 Scr=     16
 Normal termination of Gaussian 16 at Thu Oct 28 18:00:39 2021.
