 Entering Gaussian System, Link 0=g16
 Initial command:
 /apps/gaussian/g16-c01-avx/g16/l1.exe "/rds/general/ephemeral/user/atarzia/ephemeral/Gau-2697736.inp" -scrdir="/rds/general/ephemeral/user/atarzia/ephemeral/"
 Entering Link 1 = /apps/gaussian/g16-c01-avx/g16/l1.exe PID=   2697737.
  
 Copyright (c) 1988-2019, Gaussian, Inc.  All Rights Reserved.
  
 This is part of the Gaussian(R) 16 program.  It is based on
 the Gaussian(R) 09 system (copyright 2009, Gaussian, Inc.),
 the Gaussian(R) 03 system (copyright 2003, Gaussian, Inc.),
 the Gaussian(R) 98 system (copyright 1998, Gaussian, Inc.),
 the Gaussian(R) 94 system (copyright 1995, Gaussian, Inc.),
 the Gaussian 92(TM) system (copyright 1992, Gaussian, Inc.),
 the Gaussian 90(TM) system (copyright 1990, Gaussian, Inc.),
 the Gaussian 88(TM) system (copyright 1988, Gaussian, Inc.),
 the Gaussian 86(TM) system (copyright 1986, Carnegie Mellon
 University), and the Gaussian 82(TM) system (copyright 1983,
 Carnegie Mellon University). Gaussian is a federally registered
 trademark of Gaussian, Inc.
  
 This software contains proprietary and confidential information,
 including trade secrets, belonging to Gaussian, Inc.
  
 This software is provided under written license and may be
 used, copied, transmitted, or stored only in accord with that
 written license.
  
 The following legend is applicable only to US Government
 contracts under FAR:
  
                    RESTRICTED RIGHTS LEGEND
  
 Use, reproduction and disclosure by the US Government is
 subject to restrictions as set forth in subparagraphs (a)
 and (c) of the Commercial Computer Software - Restricted
 Rights clause in FAR 52.227-19.
  
 Gaussian, Inc.
 340 Quinnipiac St., Bldg. 40, Wallingford CT 06492
  
  
 ---------------------------------------------------------------
 Warning -- This program may not be used in any manner that
 competes with the business of Gaussian, Inc. or will provide
 assistance to any competitor of Gaussian, Inc.  The licensee
 of this program is prohibited from giving any competitor of
 Gaussian, Inc. access to this program.  By using this program,
 the user acknowledges that Gaussian, Inc. is engaged in the
 business of creating and licensing software in the field of
 computational chemistry and represents and warrants to the
 licensee that it is not a competitor of Gaussian, Inc. and that
 it will not use this program in any manner prohibited above.
 ---------------------------------------------------------------
  

 Cite this work as:
 Gaussian 16, Revision C.01,
 M. J. Frisch, G. W. Trucks, H. B. Schlegel, G. E. Scuseria, 
 M. A. Robb, J. R. Cheeseman, G. Scalmani, V. Barone, 
 G. A. Petersson, H. Nakatsuji, X. Li, M. Caricato, A. V. Marenich, 
 J. Bloino, B. G. Janesko, R. Gomperts, B. Mennucci, H. P. Hratchian, 
 J. V. Ortiz, A. F. Izmaylov, J. L. Sonnenberg, D. Williams-Young, 
 F. Ding, F. Lipparini, F. Egidi, J. Goings, B. Peng, A. Petrone, 
 T. Henderson, D. Ranasinghe, V. G. Zakrzewski, J. Gao, N. Rega, 
 G. Zheng, W. Liang, M. Hada, M. Ehara, K. Toyota, R. Fukuda, 
 J. Hasegawa, M. Ishida, T. Nakajima, Y. Honda, O. Kitao, H. Nakai, 
 T. Vreven, K. Throssell, J. A. Montgomery, Jr., J. E. Peralta, 
 F. Ogliaro, M. J. Bearpark, J. J. Heyd, E. N. Brothers, K. N. Kudin, 
 V. N. Staroverov, T. A. Keith, R. Kobayashi, J. Normand, 
 K. Raghavachari, A. P. Rendell, J. C. Burant, S. S. Iyengar, 
 J. Tomasi, M. Cossi, J. M. Millam, M. Klene, C. Adamo, R. Cammi, 
 J. W. Ochterski, R. L. Martin, K. Morokuma, O. Farkas, 
 J. B. Foresman, and D. J. Fox, Gaussian, Inc., Wallingford CT, 2019.
 
 ******************************************
 Gaussian 16:  ES64L-G16RevC.01  3-Jul-2019
                17-Oct-2021 
 ******************************************
 %chk=_4_alde1_6_ami3_1_opt_gas.chk
 %mem=60000mb
 %nprocshared=32
 Will use up to   32 processors via shared memory.
 ----------------------------------------------------------------------
 #P PBE1PBE/Def2TZVP SP SCF=(YQC,MaxCycle=900) int=(Grid=Superfinegrid)
  EmpiricalDispersion=GD3
 ----------------------------------------------------------------------
 1/38=1,172=1/1;
 2/12=2,17=6,18=5,40=1/2;
 3/5=44,7=101,11=2,25=1,30=1,74=-13,75=-7,124=31/1,2,3;
 4//1;
 5/5=2,7=900,8=4,13=1,38=1/8,2,8;
 6/7=2,8=2,9=2,10=2,28=1/1;
 99/5=1,9=1/99;
 Leave Link    1 at Sun Oct 17 22:12:42 2021, MaxMem=  7864320000 cpu:               5.4 elap:               0.2
 (Enter /apps/gaussian/g16-c01-avx/g16/l101.exe)
 -------------------------
 _4_alde1_6_ami3_1_opt_gas
 -------------------------
 Symbolic Z-matrix:
 Charge =  0 Multiplicity = 1
 C                    -1.3617   -0.3363    4.0772 
 C                    -2.7717   -0.698     4.1104 
 C                    -0.985     1.0014    4.069 
 C                     0.3628    1.3606    4.0764 
 H                    -1.7234    1.7885    4.0711 
 C                     1.333     0.3656    4.0819 
 C                     0.9701   -0.9813    4.0902 
 H                     2.3838    0.6116    4.0942 
 C                    -0.3767   -1.324     4.0827 
 C                     1.9883   -2.0211    4.137 
 H                    -0.6892   -2.357     4.0953 
 C                     0.754     2.7628    4.1088 
 H                     1.6278   -3.0508    3.9877 
 H                    -3.4816    0.1284    3.9507 
 H                     1.8262    2.964     3.9596 
 C                    -3.5094   -2.4793   -0.0849 
 C                    -3.7494   -3.0691    1.2245 
 C                    -2.7304   -3.1513   -1.0193 
 C                    -2.525    -2.616    -2.2909 
 H                    -2.2809   -4.1048   -0.7878 
 C                    -3.0996   -1.3931   -2.6161 
 C                    -3.8839   -0.707    -1.6887 
 H                    -2.9645   -0.9559   -3.5935 
 C                    -4.0799   -1.2528   -0.4257 
 C                    -4.5174    0.5543   -2.0464 
 H                    -4.6866   -0.7492    0.3113 
 C                    -1.7421   -3.3422   -3.2807 
 H                    -4.9882    1.1055   -1.2176 
 H                    -3.1434   -3.9557    1.4677 
 H                    -1.4986   -2.7868   -4.1997 
 C                     3.9091   -1.8151   -0.0566 
 C                     4.5371   -1.7139    1.2531 
 C                     4.1037   -0.8146   -1.0014 
 C                     3.5401   -0.918    -2.2731 
 H                     4.7043    0.0538   -0.778 
 C                     2.7691   -2.0305   -2.5881 
 C                     2.5649   -3.0427   -1.6502 
 H                     2.325    -2.1426   -3.5653 
 C                     3.1329   -2.926    -0.3871 
 C                     1.7901   -4.2259   -1.9967 
 H                     2.9984   -3.6953    0.3579 
 C                     3.7799    0.1125   -3.2735 
 H                     1.5466   -4.9002   -1.1611 
 H                     5.0016   -0.7433    1.4868 
 H                     3.1792    0.036    -4.1931 
 C                    -0.376     4.2769   -0.1037 
 C                    -0.7809    4.7842    1.1997 
 C                    -1.3373    3.9348   -1.0472 
 C                    -0.9626    3.4847   -2.3132 
 H                    -2.3902    4.0229   -0.8274 
 C                     0.3871    3.37     -2.6235 
 C                     1.3634    3.7095   -1.6867 
 H                     0.7087    3.0308   -3.5963 
 C                     0.9751    4.1566   -0.4294 
 C                     2.7763    3.6265   -2.0289 
 H                     1.7065    4.433     0.3145 
 C                    -1.9723    3.1661   -3.3128 
 H                     3.48      3.7615   -1.1928 
 H                    -1.8542    4.703     1.4319 
 H                    -1.6033    2.674    -4.226 
 C                    -4.5443   -2.1913    4.3828 
 C                    -4.8392   -3.2296    3.2814 
 N                    -3.1507   -1.8786    4.3373 
 N                    -4.6179   -2.6088    2.0135 
 C                    -6.3021   -3.6737    3.3641 
 H                    -4.1721   -4.0966    3.4387 
 C                    -6.6207   -4.2546    4.7363 
 H                    -6.4896   -4.4137    2.5831 
 H                    -6.9361   -2.8081    3.1644 
 C                    -6.3269   -3.23      5.8268 
 H                    -6.0128   -5.1468    4.9036 
 H                    -7.6707   -4.5516    4.7737 
 C                    -4.8717   -2.7837    5.7562 
 H                    -6.5311   -3.6594    6.8097 
 H                    -6.9798   -2.3639    5.6961 
 H                    -4.208    -3.632     5.9318 
 H                    -4.6651   -2.0324    6.5214 
 H                    -5.1736   -1.3025    4.195 
 C                     4.1671   -2.8067    4.4228 
 C                     5.2162   -2.5551    3.3208 
 N                     3.1997   -1.7567    4.3637 
 N                     4.5706   -2.6876    2.0529 
 C                     6.3318   -3.5993    3.4174 
 H                     5.6333   -1.5424    3.4681 
 C                     6.9912   -3.5699    4.7907 
 H                     7.0681   -3.4003    2.6357 
 H                     5.8994   -4.5832    3.2274 
 C                     5.9546   -3.8157    5.8818 
 H                     7.4598   -2.5957    4.9484 
 H                     7.7732   -4.3305    4.8381 
 C                     4.8409   -2.7793    5.7974 
 H                     6.4265   -3.7672    6.8652 
 H                     5.5311   -4.8154    5.7611 
 H                     5.2435   -1.7785    5.963 
 H                     4.0852   -2.9674    6.5631 
 H                     3.7123   -3.7981    4.2448 
 C                     0.3435    5.0454    4.369 
 C                    -0.397     5.8157    3.2571 
 N                    -0.0814    3.6818    4.3239 
 N                     0.0435    5.3093    1.9956 
 C                    -0.0517    7.3051    3.3382 
 H                    -1.4829    5.6715    3.4036 
 C                    -0.41      7.8761    4.7047 
 H                    -0.5909    7.8344    2.5497 
 H                     1.0169    7.4212    3.1492 
 C                     0.3194    7.1136    5.8056 
 H                    -1.4883    7.7958    4.861 
 H                    -0.1431    8.9342    4.7411 
 C                    -0.0202    5.6299    5.7366 
 H                     0.0392    7.5085    6.7842 
 H                     1.3971    7.2461    5.6856 
 H                    -1.0885    5.4793    5.9018 
 H                     0.5194    5.0782    6.5095 
 H                     1.4298    5.1457    4.1921 
 C                    -0.6426   -5.2277   -4.1067 
 C                     0.7047   -5.6543   -3.4895 
 N                    -1.3931   -4.5404   -3.1037 
 N                     1.4478   -4.4724   -3.1845 
 C                     1.4977   -6.4886   -4.4991 
 H                     0.4943   -6.2547   -2.5859 
 C                     0.706    -7.7144   -4.9377 
 H                     2.4433   -6.7881   -4.042 
 H                     1.7268   -5.8592   -5.3608 
 C                    -0.6279   -7.2943   -5.5457 
 H                     0.5242   -8.3581   -4.074 
 H                     1.2869   -8.2846   -5.6655 
 C                    -1.4276   -6.4663   -4.5474 
 H                    -1.2031   -8.1764   -5.834 
 H                    -0.4459   -6.7026   -6.4459 
 H                    -1.6568   -7.0613   -3.6617 
 H                    -2.3732   -6.1444   -4.9889 
 H                    -0.4325   -4.5835   -4.9797 
 C                    -5.1958    2.203    -3.5526 
 C                    -4.1459    3.154    -4.1623 
 N                    -4.5473    0.9697   -3.2361 
 N                    -3.1862    3.464    -3.1502 
 C                    -4.821     4.4515   -4.6154 
 H                    -3.6838    2.6464   -5.0284 
 C                    -5.9272    4.1692   -5.6245 
 H                    -4.0645    5.1076   -5.0513 
 H                    -5.231     4.951    -3.7359 
 C                    -6.9647    3.2267   -5.0239 
 H                    -5.4963    3.7122   -6.5183 
 H                    -6.4002    5.1074   -5.9216 
 C                    -6.3041    1.9298   -4.5731 
 H                    -7.7412    3.0061   -5.7591 
 H                    -7.4404    3.7095   -4.1671 
 H                    -5.8645    1.4132   -5.4281 
 H                    -7.0412    1.2626   -4.1212 
 H                    -5.6201    2.6889   -2.6553 
 C                     4.8653    1.9985   -4.1169 
 C                     4.5597    3.385    -3.5148 
 N                     4.6428    1.0155   -3.1041 
 N                     3.1639    3.4408   -3.2138 
 C                     4.8883    4.4784   -4.535 
 H                     5.1827    3.5123   -2.6109 
 C                     6.3467    4.4009   -4.9693 
 H                     4.6739    5.4517   -4.0884 
 H                     4.2308    4.3532   -5.397 
 C                     6.6512    3.0295   -5.5624 
 H                     6.9931    4.5742   -4.1057 
 H                     6.552     5.1815   -5.7046 
 C                     6.3314    1.9333   -4.5535 
 H                     7.7034    2.9693   -5.8476 
 H                     6.0499    2.882    -6.4625 
 H                     6.9592    2.0413   -3.6673 
 H                     6.5264    0.9489   -4.9844 
 H                     4.2043    1.8494   -4.9899 
 
 ITRead=  0  0  0  0  0  0  0  0  0  0  0  0  0  0  0  0  0  0  0  0
 ITRead=  0  0  0  0  0  0  0  0  0  0  0  0  0  0  0  0  0  0  0  0
 ITRead=  0  0  0  0  0  0  0  0  0  0  0  0  0  0  0  0  0  0  0  0
 ITRead=  0  0  0  0  0  0  0  0  0  0  0  0  0  0  0  0  0  0  0  0
 ITRead=  0  0  0  0  0  0  0  0  0  0  0  0  0  0  0  0  0  0  0  0
 ITRead=  0  0  0  0  0  0  0  0  0  0  0  0  0  0  0  0  0  0  0  0
 ITRead=  0  0  0  0  0  0  0  0  0  0  0  0  0  0  0  0  0  0  0  0
 ITRead=  0  0  0  0  0  0  0  0  0  0  0  0  0  0  0  0  0  0  0  0
 ITRead=  0  0  0  0  0  0  0  0
 MicOpt= -1 -1 -1 -1 -1 -1 -1 -1 -1 -1 -1 -1 -1 -1 -1 -1 -1 -1 -1 -1
 MicOpt= -1 -1 -1 -1 -1 -1 -1 -1 -1 -1 -1 -1 -1 -1 -1 -1 -1 -1 -1 -1
 MicOpt= -1 -1 -1 -1 -1 -1 -1 -1 -1 -1 -1 -1 -1 -1 -1 -1 -1 -1 -1 -1
 MicOpt= -1 -1 -1 -1 -1 -1 -1 -1 -1 -1 -1 -1 -1 -1 -1 -1 -1 -1 -1 -1
 MicOpt= -1 -1 -1 -1 -1 -1 -1 -1 -1 -1 -1 -1 -1 -1 -1 -1 -1 -1 -1 -1
 MicOpt= -1 -1 -1 -1 -1 -1 -1 -1 -1 -1 -1 -1 -1 -1 -1 -1 -1 -1 -1 -1
 MicOpt= -1 -1 -1 -1 -1 -1 -1 -1 -1 -1 -1 -1 -1 -1 -1 -1 -1 -1 -1 -1
 MicOpt= -1 -1 -1 -1 -1 -1 -1 -1 -1 -1 -1 -1 -1 -1 -1 -1 -1 -1 -1 -1
 MicOpt= -1 -1 -1 -1 -1 -1 -1 -1
 NAtoms=    168 NQM=      168 NQMF=       0 NMMI=      0 NMMIF=      0
                NMic=       0 NMicF=      0.
                    Isotopes and Nuclear Properties:
 (Nuclear quadrupole moments (NQMom) in fm**2, nuclear magnetic moments (NMagM)
  in nuclear magnetons)

  Atom         1           2           3           4           5           6           7           8           9          10
 IAtWgt=          12          12          12          12           1          12          12           1          12          12
 AtmWgt=  12.0000000  12.0000000  12.0000000  12.0000000   1.0078250  12.0000000  12.0000000   1.0078250  12.0000000  12.0000000
 NucSpn=           0           0           0           0           1           0           0           1           0           0
 AtZEff=  -0.0000000  -0.0000000  -0.0000000  -0.0000000  -0.0000000  -0.0000000  -0.0000000  -0.0000000  -0.0000000  -0.0000000
 NQMom=    0.0000000   0.0000000   0.0000000   0.0000000   0.0000000   0.0000000   0.0000000   0.0000000   0.0000000   0.0000000
 NMagM=    0.0000000   0.0000000   0.0000000   0.0000000   2.7928460   0.0000000   0.0000000   2.7928460   0.0000000   0.0000000
 AtZNuc=   6.0000000   6.0000000   6.0000000   6.0000000   1.0000000   6.0000000   6.0000000   1.0000000   6.0000000   6.0000000

  Atom        11          12          13          14          15          16          17          18          19          20
 IAtWgt=           1          12           1           1           1          12          12          12          12           1
 AtmWgt=   1.0078250  12.0000000   1.0078250   1.0078250   1.0078250  12.0000000  12.0000000  12.0000000  12.0000000   1.0078250
 NucSpn=           1           0           1           1           1           0           0           0           0           1
 AtZEff=  -0.0000000  -0.0000000  -0.0000000  -0.0000000  -0.0000000  -0.0000000  -0.0000000  -0.0000000  -0.0000000  -0.0000000
 NQMom=    0.0000000   0.0000000   0.0000000   0.0000000   0.0000000   0.0000000   0.0000000   0.0000000   0.0000000   0.0000000
 NMagM=    2.7928460   0.0000000   2.7928460   2.7928460   2.7928460   0.0000000   0.0000000   0.0000000   0.0000000   2.7928460
 AtZNuc=   1.0000000   6.0000000   1.0000000   1.0000000   1.0000000   6.0000000   6.0000000   6.0000000   6.0000000   1.0000000

  Atom        21          22          23          24          25          26          27          28          29          30
 IAtWgt=          12          12           1          12          12           1          12           1           1           1
 AtmWgt=  12.0000000  12.0000000   1.0078250  12.0000000  12.0000000   1.0078250  12.0000000   1.0078250   1.0078250   1.0078250
 NucSpn=           0           0           1           0           0           1           0           1           1           1
 AtZEff=  -0.0000000  -0.0000000  -0.0000000  -0.0000000  -0.0000000  -0.0000000  -0.0000000  -0.0000000  -0.0000000  -0.0000000
 NQMom=    0.0000000   0.0000000   0.0000000   0.0000000   0.0000000   0.0000000   0.0000000   0.0000000   0.0000000   0.0000000
 NMagM=    0.0000000   0.0000000   2.7928460   0.0000000   0.0000000   2.7928460   0.0000000   2.7928460   2.7928460   2.7928460
 AtZNuc=   6.0000000   6.0000000   1.0000000   6.0000000   6.0000000   1.0000000   6.0000000   1.0000000   1.0000000   1.0000000

  Atom        31          32          33          34          35          36          37          38          39          40
 IAtWgt=          12          12          12          12           1          12          12           1          12          12
 AtmWgt=  12.0000000  12.0000000  12.0000000  12.0000000   1.0078250  12.0000000  12.0000000   1.0078250  12.0000000  12.0000000
 NucSpn=           0           0           0           0           1           0           0           1           0           0
 AtZEff=  -0.0000000  -0.0000000  -0.0000000  -0.0000000  -0.0000000  -0.0000000  -0.0000000  -0.0000000  -0.0000000  -0.0000000
 NQMom=    0.0000000   0.0000000   0.0000000   0.0000000   0.0000000   0.0000000   0.0000000   0.0000000   0.0000000   0.0000000
 NMagM=    0.0000000   0.0000000   0.0000000   0.0000000   2.7928460   0.0000000   0.0000000   2.7928460   0.0000000   0.0000000
 AtZNuc=   6.0000000   6.0000000   6.0000000   6.0000000   1.0000000   6.0000000   6.0000000   1.0000000   6.0000000   6.0000000

  Atom        41          42          43          44          45          46          47          48          49          50
 IAtWgt=           1          12           1           1           1          12          12          12          12           1
 AtmWgt=   1.0078250  12.0000000   1.0078250   1.0078250   1.0078250  12.0000000  12.0000000  12.0000000  12.0000000   1.0078250
 NucSpn=           1           0           1           1           1           0           0           0           0           1
 AtZEff=  -0.0000000  -0.0000000  -0.0000000  -0.0000000  -0.0000000  -0.0000000  -0.0000000  -0.0000000  -0.0000000  -0.0000000
 NQMom=    0.0000000   0.0000000   0.0000000   0.0000000   0.0000000   0.0000000   0.0000000   0.0000000   0.0000000   0.0000000
 NMagM=    2.7928460   0.0000000   2.7928460   2.7928460   2.7928460   0.0000000   0.0000000   0.0000000   0.0000000   2.7928460
 AtZNuc=   1.0000000   6.0000000   1.0000000   1.0000000   1.0000000   6.0000000   6.0000000   6.0000000   6.0000000   1.0000000

  Atom        51          52          53          54          55          56          57          58          59          60
 IAtWgt=          12          12           1          12          12           1          12           1           1           1
 AtmWgt=  12.0000000  12.0000000   1.0078250  12.0000000  12.0000000   1.0078250  12.0000000   1.0078250   1.0078250   1.0078250
 NucSpn=           0           0           1           0           0           1           0           1           1           1
 AtZEff=  -0.0000000  -0.0000000  -0.0000000  -0.0000000  -0.0000000  -0.0000000  -0.0000000  -0.0000000  -0.0000000  -0.0000000
 NQMom=    0.0000000   0.0000000   0.0000000   0.0000000   0.0000000   0.0000000   0.0000000   0.0000000   0.0000000   0.0000000
 NMagM=    0.0000000   0.0000000   2.7928460   0.0000000   0.0000000   2.7928460   0.0000000   2.7928460   2.7928460   2.7928460
 AtZNuc=   6.0000000   6.0000000   1.0000000   6.0000000   6.0000000   1.0000000   6.0000000   1.0000000   1.0000000   1.0000000

  Atom        61          62          63          64          65          66          67          68          69          70
 IAtWgt=          12          12          14          14          12           1          12           1           1          12
 AtmWgt=  12.0000000  12.0000000  14.0030740  14.0030740  12.0000000   1.0078250  12.0000000   1.0078250   1.0078250  12.0000000
 NucSpn=           0           0           2           2           0           1           0           1           1           0
 AtZEff=  -0.0000000  -0.0000000  -0.0000000  -0.0000000  -0.0000000  -0.0000000  -0.0000000  -0.0000000  -0.0000000  -0.0000000
 NQMom=    0.0000000   0.0000000   2.0440000   2.0440000   0.0000000   0.0000000   0.0000000   0.0000000   0.0000000   0.0000000
 NMagM=    0.0000000   0.0000000   0.4037610   0.4037610   0.0000000   2.7928460   0.0000000   2.7928460   2.7928460   0.0000000
 AtZNuc=   6.0000000   6.0000000   7.0000000   7.0000000   6.0000000   1.0000000   6.0000000   1.0000000   1.0000000   6.0000000

  Atom        71          72          73          74          75          76          77          78          79          80
 IAtWgt=           1           1          12           1           1           1           1           1          12          12
 AtmWgt=   1.0078250   1.0078250  12.0000000   1.0078250   1.0078250   1.0078250   1.0078250   1.0078250  12.0000000  12.0000000
 NucSpn=           1           1           0           1           1           1           1           1           0           0
 AtZEff=  -0.0000000  -0.0000000  -0.0000000  -0.0000000  -0.0000000  -0.0000000  -0.0000000  -0.0000000  -0.0000000  -0.0000000
 NQMom=    0.0000000   0.0000000   0.0000000   0.0000000   0.0000000   0.0000000   0.0000000   0.0000000   0.0000000   0.0000000
 NMagM=    2.7928460   2.7928460   0.0000000   2.7928460   2.7928460   2.7928460   2.7928460   2.7928460   0.0000000   0.0000000
 AtZNuc=   1.0000000   1.0000000   6.0000000   1.0000000   1.0000000   1.0000000   1.0000000   1.0000000   6.0000000   6.0000000

  Atom        81          82          83          84          85          86          87          88          89          90
 IAtWgt=          14          14          12           1          12           1           1          12           1           1
 AtmWgt=  14.0030740  14.0030740  12.0000000   1.0078250  12.0000000   1.0078250   1.0078250  12.0000000   1.0078250   1.0078250
 NucSpn=           2           2           0           1           0           1           1           0           1           1
 AtZEff=  -0.0000000  -0.0000000  -0.0000000  -0.0000000  -0.0000000  -0.0000000  -0.0000000  -0.0000000  -0.0000000  -0.0000000
 NQMom=    2.0440000   2.0440000   0.0000000   0.0000000   0.0000000   0.0000000   0.0000000   0.0000000   0.0000000   0.0000000
 NMagM=    0.4037610   0.4037610   0.0000000   2.7928460   0.0000000   2.7928460   2.7928460   0.0000000   2.7928460   2.7928460
 AtZNuc=   7.0000000   7.0000000   6.0000000   1.0000000   6.0000000   1.0000000   1.0000000   6.0000000   1.0000000   1.0000000

  Atom        91          92          93          94          95          96          97          98          99         100
 IAtWgt=          12           1           1           1           1           1          12          12          14          14
 AtmWgt=  12.0000000   1.0078250   1.0078250   1.0078250   1.0078250   1.0078250  12.0000000  12.0000000  14.0030740  14.0030740
 NucSpn=           0           1           1           1           1           1           0           0           2           2
 AtZEff=  -0.0000000  -0.0000000  -0.0000000  -0.0000000  -0.0000000  -0.0000000  -0.0000000  -0.0000000  -0.0000000  -0.0000000
 NQMom=    0.0000000   0.0000000   0.0000000   0.0000000   0.0000000   0.0000000   0.0000000   0.0000000   2.0440000   2.0440000
 NMagM=    0.0000000   2.7928460   2.7928460   2.7928460   2.7928460   2.7928460   0.0000000   0.0000000   0.4037610   0.4037610
 AtZNuc=   6.0000000   1.0000000   1.0000000   1.0000000   1.0000000   1.0000000   6.0000000   6.0000000   7.0000000   7.0000000

  Atom       101         102         103         104         105         106         107         108         109         110
 IAtWgt=          12           1          12           1           1          12           1           1          12           1
 AtmWgt=  12.0000000   1.0078250  12.0000000   1.0078250   1.0078250  12.0000000   1.0078250   1.0078250  12.0000000   1.0078250
 NucSpn=           0           1           0           1           1           0           1           1           0           1
 AtZEff=  -0.0000000  -0.0000000  -0.0000000  -0.0000000  -0.0000000  -0.0000000  -0.0000000  -0.0000000  -0.0000000  -0.0000000
 NQMom=    0.0000000   0.0000000   0.0000000   0.0000000   0.0000000   0.0000000   0.0000000   0.0000000   0.0000000   0.0000000
 NMagM=    0.0000000   2.7928460   0.0000000   2.7928460   2.7928460   0.0000000   2.7928460   2.7928460   0.0000000   2.7928460
 AtZNuc=   6.0000000   1.0000000   6.0000000   1.0000000   1.0000000   6.0000000   1.0000000   1.0000000   6.0000000   1.0000000

  Atom       111         112         113         114         115         116         117         118         119         120
 IAtWgt=           1           1           1           1          12          12          14          14          12           1
 AtmWgt=   1.0078250   1.0078250   1.0078250   1.0078250  12.0000000  12.0000000  14.0030740  14.0030740  12.0000000   1.0078250
 NucSpn=           1           1           1           1           0           0           2           2           0           1
 AtZEff=  -0.0000000  -0.0000000  -0.0000000  -0.0000000  -0.0000000  -0.0000000  -0.0000000  -0.0000000  -0.0000000  -0.0000000
 NQMom=    0.0000000   0.0000000   0.0000000   0.0000000   0.0000000   0.0000000   2.0440000   2.0440000   0.0000000   0.0000000
 NMagM=    2.7928460   2.7928460   2.7928460   2.7928460   0.0000000   0.0000000   0.4037610   0.4037610   0.0000000   2.7928460
 AtZNuc=   1.0000000   1.0000000   1.0000000   1.0000000   6.0000000   6.0000000   7.0000000   7.0000000   6.0000000   1.0000000

  Atom       121         122         123         124         125         126         127         128         129         130
 IAtWgt=          12           1           1          12           1           1          12           1           1           1
 AtmWgt=  12.0000000   1.0078250   1.0078250  12.0000000   1.0078250   1.0078250  12.0000000   1.0078250   1.0078250   1.0078250
 NucSpn=           0           1           1           0           1           1           0           1           1           1
 AtZEff=  -0.0000000  -0.0000000  -0.0000000  -0.0000000  -0.0000000  -0.0000000  -0.0000000  -0.0000000  -0.0000000  -0.0000000
 NQMom=    0.0000000   0.0000000   0.0000000   0.0000000   0.0000000   0.0000000   0.0000000   0.0000000   0.0000000   0.0000000
 NMagM=    0.0000000   2.7928460   2.7928460   0.0000000   2.7928460   2.7928460   0.0000000   2.7928460   2.7928460   2.7928460
 AtZNuc=   6.0000000   1.0000000   1.0000000   6.0000000   1.0000000   1.0000000   6.0000000   1.0000000   1.0000000   1.0000000

  Atom       131         132         133         134         135         136         137         138         139         140
 IAtWgt=           1           1          12          12          14          14          12           1          12           1
 AtmWgt=   1.0078250   1.0078250  12.0000000  12.0000000  14.0030740  14.0030740  12.0000000   1.0078250  12.0000000   1.0078250
 NucSpn=           1           1           0           0           2           2           0           1           0           1
 AtZEff=  -0.0000000  -0.0000000  -0.0000000  -0.0000000  -0.0000000  -0.0000000  -0.0000000  -0.0000000  -0.0000000  -0.0000000
 NQMom=    0.0000000   0.0000000   0.0000000   0.0000000   2.0440000   2.0440000   0.0000000   0.0000000   0.0000000   0.0000000
 NMagM=    2.7928460   2.7928460   0.0000000   0.0000000   0.4037610   0.4037610   0.0000000   2.7928460   0.0000000   2.7928460
 AtZNuc=   1.0000000   1.0000000   6.0000000   6.0000000   7.0000000   7.0000000   6.0000000   1.0000000   6.0000000   1.0000000

  Atom       141         142         143         144         145         146         147         148         149         150
 IAtWgt=           1          12           1           1          12           1           1           1           1           1
 AtmWgt=   1.0078250  12.0000000   1.0078250   1.0078250  12.0000000   1.0078250   1.0078250   1.0078250   1.0078250   1.0078250
 NucSpn=           1           0           1           1           0           1           1           1           1           1
 AtZEff=  -0.0000000  -0.0000000  -0.0000000  -0.0000000  -0.0000000  -0.0000000  -0.0000000  -0.0000000  -0.0000000  -0.0000000
 NQMom=    0.0000000   0.0000000   0.0000000   0.0000000   0.0000000   0.0000000   0.0000000   0.0000000   0.0000000   0.0000000
 NMagM=    2.7928460   0.0000000   2.7928460   2.7928460   0.0000000   2.7928460   2.7928460   2.7928460   2.7928460   2.7928460
 AtZNuc=   1.0000000   6.0000000   1.0000000   1.0000000   6.0000000   1.0000000   1.0000000   1.0000000   1.0000000   1.0000000

  Atom       151         152         153         154         155         156         157         158         159         160
 IAtWgt=          12          12          14          14          12           1          12           1           1          12
 AtmWgt=  12.0000000  12.0000000  14.0030740  14.0030740  12.0000000   1.0078250  12.0000000   1.0078250   1.0078250  12.0000000
 NucSpn=           0           0           2           2           0           1           0           1           1           0
 AtZEff=  -0.0000000  -0.0000000  -0.0000000  -0.0000000  -0.0000000  -0.0000000  -0.0000000  -0.0000000  -0.0000000  -0.0000000
 NQMom=    0.0000000   0.0000000   2.0440000   2.0440000   0.0000000   0.0000000   0.0000000   0.0000000   0.0000000   0.0000000
 NMagM=    0.0000000   0.0000000   0.4037610   0.4037610   0.0000000   2.7928460   0.0000000   2.7928460   2.7928460   0.0000000
 AtZNuc=   6.0000000   6.0000000   7.0000000   7.0000000   6.0000000   1.0000000   6.0000000   1.0000000   1.0000000   6.0000000

  Atom       161         162         163         164         165         166         167         168
 IAtWgt=           1           1          12           1           1           1           1           1
 AtmWgt=   1.0078250   1.0078250  12.0000000   1.0078250   1.0078250   1.0078250   1.0078250   1.0078250
 NucSpn=           1           1           0           1           1           1           1           1
 AtZEff=  -0.0000000  -0.0000000  -0.0000000  -0.0000000  -0.0000000  -0.0000000  -0.0000000  -0.0000000
 NQMom=    0.0000000   0.0000000   0.0000000   0.0000000   0.0000000   0.0000000   0.0000000   0.0000000
 NMagM=    2.7928460   2.7928460   0.0000000   2.7928460   2.7928460   2.7928460   2.7928460   2.7928460
 AtZNuc=   1.0000000   1.0000000   6.0000000   1.0000000   1.0000000   1.0000000   1.0000000   1.0000000
 Leave Link  101 at Sun Oct 17 22:12:42 2021, MaxMem=  7864320000 cpu:               3.0 elap:               0.1
 (Enter /apps/gaussian/g16-c01-avx/g16/l202.exe)
 Stoichiometry    C72H84N12
 Framework group  C1[X(C72H84N12)]
 Deg. of freedom   498
 Full point group                 C1      NOp   1
 Largest Abelian subgroup         C1      NOp   1
 Largest concise Abelian subgroup C1      NOp   1
                         Standard orientation:                         
 ---------------------------------------------------------------------
 Center     Atomic      Atomic             Coordinates (Angstroms)
 Number     Number       Type             X           Y           Z
 ---------------------------------------------------------------------
      1          6           0        3.988984   -1.059502   -1.229578
      2          6           0        3.950026   -2.149064   -2.194651
      3          6           0        4.086041   -1.334687    0.129195
      4          6           0        4.163232   -0.299252    1.060624
      5          1           0        4.118050   -2.350875    0.491275
      6          6           0        4.132124    1.018076    0.619009
      7          6           0        4.034990    1.309738   -0.741654
      8          1           0        4.196459    1.840891    1.314483
      9          6           0        3.958875    0.267664   -1.657982
     10          6           0        4.043557    2.690300   -1.204343
     11          1           0        3.889456    0.460955   -2.717569
     12          6           0        4.305720   -0.590885    2.480096
     13          1           0        3.811344    2.839057   -2.270402
     14          1           0        3.824386   -3.158141   -1.772301
     15          1           0        4.206642    0.271099    3.157977
     16          6           0       -0.380855   -2.000918   -3.788168
     17          6           0        0.875808   -1.942804   -4.521252
     18          6           0       -1.333078   -1.002943   -3.958009
     19          6           0       -2.556982   -1.066904   -3.291924
     20          1           0       -1.153337   -0.167445   -4.617132
     21          6           0       -2.815652   -2.136825   -2.443536
     22          6           0       -1.869609   -3.145964   -2.263059
     23          1           0       -3.755366   -2.218005   -1.919081
     24          6           0       -0.654693   -3.068864   -2.933521
     25          6           0       -2.159985   -4.285881   -1.404910
     26          1           0        0.094791   -3.837069   -2.819493
     27          6           0       -3.568065   -0.040836   -3.503816
     28          1           0       -1.311146   -4.954697   -1.193867
     29          1           0        1.077066   -0.998550   -5.050706
     30          1           0       -4.437750   -0.079377   -2.829661
     31          6           0       -0.059330    4.297301    0.174807
     32          6           0        1.274438    4.812500    0.449707
     33          6           0       -0.925533    4.012105    1.223555
     34          6           0       -2.219420    3.555290    0.973089
     35          1           0       -0.622611    4.150740    2.250086
     36          6           0       -2.636262    3.376227   -0.340495
     37          6           0       -1.778069    3.658205   -1.403461
     38          1           0       -3.633140    3.030291   -0.566933
     39          6           0       -0.491689    4.112850   -1.138532
     40          6           0       -2.231343    3.507958   -2.779073
     41          1           0        0.193326    4.345642   -1.939470
     42          6           0       -3.137473    3.296518    2.073293
     43          1           0       -1.453048    3.600588   -3.552298
     44          1           0        1.590173    4.783416    1.504177
     45          1           0       -4.079675    2.795103    1.802746
     46          6           0        0.172916   -2.295486    3.632840
     47          6           0        1.494106   -2.884704    3.798451
     48          6           0       -0.823537   -2.996632    2.964410
     49          6           0       -2.104482   -2.460313    2.832925
     50          1           0       -0.633382   -3.973306    2.546533
     51          6           0       -2.376818   -1.207577    3.369224
     52          6           0       -1.386725   -0.491910    4.042688
     53          1           0       -3.359517   -0.768537    3.289424
     54          6           0       -0.115116   -1.038978    4.165991
     55          6           0       -1.686564    0.802538    4.638321
     56          1           0        0.670112   -0.512817    4.686857
     57          6           0       -3.156853   -3.215360    2.167630
     58          1           0       -0.820129    1.368750    5.014055
     59          1           0        1.684216   -3.802258    3.220146
     60          1           0       -4.089142   -2.664260    1.969176
     61          6           0        4.059076   -3.044484   -4.346996
     62          6           0        2.879172   -2.835290   -5.317656
     63          7           0        4.081829   -1.947181   -3.431911
     64          7           0        1.665411   -2.924108   -4.568770
     65          6           0        2.882095   -3.934230   -6.383706
     66          1           0        2.998179   -1.845779   -5.795316
     67          6           0        4.199369   -3.949995   -7.149490
     68          1           0        2.045890   -3.764952   -7.065485
     69          1           0        2.721820   -4.893733   -5.888967
     70          6           0        5.367419   -4.153938   -6.190646
     71          1           0        4.324627   -3.001644   -7.677214
     72          1           0        4.181081   -4.748731   -7.893664
     73          6           0        5.376456   -3.062829   -5.127079
     74          1           0        6.310854   -4.137793   -6.740049
     75          1           0        5.275344   -5.130351   -5.709368
     76          1           0        5.514891   -2.084840   -5.591103
     77          1           0        6.198327   -3.220299   -4.425369
     78          1           0        3.912429   -4.010366   -3.830451
     79          6           0        4.346715    4.988082   -0.931741
     80          6           0        3.300378    5.804651   -0.146431
     81          7           0        4.328285    3.648045   -0.435940
     82          7           0        2.005531    5.288154   -0.460321
     83          6           0        3.361539    7.273987   -0.572528
     84          1           0        3.531305    5.714011    0.930457
     85          6           0        4.754792    7.850012   -0.351923
     86          1           0        2.620484    7.836843   -0.000843
     87          1           0        3.089524    7.337788   -1.627548
     88          6           0        5.791079    7.041898   -1.125562
     89          1           0        4.995138    7.822786    0.713447
     90          1           0        4.775426    8.893003   -0.674458
     91          6           0        5.741605    5.577835   -0.706457
     92          1           0        6.790659    7.441603   -0.943371
     93          1           0        5.587361    7.120963   -2.195874
     94          1           0        5.989470    5.479759    0.351869
     95          1           0        6.466816    4.992712   -1.276071
     96          1           0        4.085397    5.035396   -2.004530
     97          6           0        4.709603   -1.997162    4.298265
     98          6           0        3.629676   -3.009731    4.730104
     99          7           0        4.556004   -1.753154    2.898677
    100          7           0        2.351510   -2.389164    4.578272
    101          6           0        3.825231   -3.381900    6.202304
    102          1           0        3.729554   -3.909918    4.096763
    103          6           0        5.215301   -3.958593    6.440781
    104          1           0        3.057760   -4.104749    6.487093
    105          1           0        3.680455   -2.484368    6.806110
    106          6           0        6.284431   -2.959483    6.011656
    107          1           0        5.329630   -4.881155    5.866833
    108          1           0        5.333794   -4.203818    7.498118
    109          6           0        6.101525   -2.584819    4.546177
    110          1           0        7.278153   -3.387087    6.159263
    111          1           0        6.209891   -2.061201    6.628850
    112          1           0        6.220191   -3.466388    3.913730
    113          1           0        6.851904   -1.851423    4.242897
    114          1           0        4.576387   -1.076648    4.895180
    115          6           0       -4.485595    1.796241   -4.612677
    116          6           0       -3.854864    3.190969   -4.425453
    117          7           0       -3.462966    0.816779   -4.421565
    118          7           0       -3.444115    3.313520   -3.062230
    119          6           0       -4.892842    4.275310   -4.727126
    120          1           0       -3.002548    3.279466   -5.123282
    121          6           0       -5.441457    4.129283   -6.141142
    122          1           0       -4.426322    5.254286   -4.597642
    123          1           0       -5.700750    4.190302   -3.998280
    124          6           0       -6.063018    2.749462   -6.328742
    125          1           0       -4.630969    4.262908   -6.861303
    126          1           0       -6.187242    4.904936   -6.326701
    127          6           0       -5.036968    1.662012   -6.034838
    128          1           0       -6.430750    2.639553   -7.350880
    129          1           0       -6.913494    2.639670   -5.651816
    130          1           0       -4.202751    1.731281   -6.735057
    131          1           0       -5.486381    0.672846   -6.145649
    132          1           0       -5.304378    1.687552   -3.878480
    133          6           0       -3.570121   -5.644760   -0.135248
    134          6           0       -4.077134   -5.145640    1.233051
    135          7           0       -3.318382   -4.504352   -0.958564
    136          7           0       -3.014561   -4.431137    1.867004
    137          6           0       -4.461507   -6.339278    2.111716
    138          1           0       -4.960432   -4.504532    1.059595
    139          6           0       -5.524052   -7.196775    1.435439
    140          1           0       -4.825445   -5.966338    3.071525
    141          1           0       -3.563672   -6.930303    2.300666
    142          6           0       -5.025111   -7.688757    0.081023
    143          1           0       -6.432504   -6.606572    1.294802
    144          1           0       -5.771043   -8.046330    2.075336
    145          6           0       -4.643472   -6.508300   -0.803531
    146          1           0       -5.799302   -8.280493   -0.411533
    147          1           0       -4.153256   -8.330669    0.227005
    148          1           0       -5.517077   -5.883085   -0.996064
    149          1           0       -4.263704   -6.858881   -1.765589
    150          1           0       -2.655958   -6.242270    0.033762
    151          6           0       -3.811535    3.400146    4.305179
    152          6           0       -3.125348    2.496754    5.349847
    153          7           0       -2.877251    3.652663    3.254033
    154          7           0       -2.867902    1.229853    4.741032
    155          6           0       -4.055825    2.288261    6.547784
    156          1           0       -2.194537    2.994802    5.676814
    157          6           0       -4.445593    3.620506    7.176080
    158          1           0       -3.550264    1.654254    7.279341
    159          1           0       -4.945865    1.758637    6.203759
    160          6           0       -5.121797    4.516047    6.143616
    161          1           0       -3.550996    4.118308    7.557602
    162          1           0       -5.117794    3.445578    8.018515
    163          6           0       -4.202487    4.733626    4.948068
    164          1           0       -5.375249    5.479240    6.590951
    165          1           0       -6.049496    4.046532    5.808311
    166          1           0       -3.290501    5.244717    5.261459
    167          1           0       -4.693810    5.355466    4.196629
    168          1           0       -4.714315    2.878292    3.939204
 ---------------------------------------------------------------------
 Rotational constants (GHZ):           0.0160330           0.0160294           0.0160291
 Leave Link  202 at Sun Oct 17 22:12:42 2021, MaxMem=  7864320000 cpu:               0.2 elap:               0.0
 (Enter /apps/gaussian/g16-c01-avx/g16/l301.exe)
 Standard basis: def2TZVP (5D, 7F)
 Ernie: Thresh=  0.10000D-02 Tol=  0.10000D-05 Strict=F.
 There are  3528 symmetry adapted cartesian basis functions of A   symmetry.
 There are  3108 symmetry adapted basis functions of A   symmetry.
  3108 basis functions,  4956 primitive gaussians,  3528 cartesian basis functions
   300 alpha electrons      300 beta electrons
       nuclear repulsion energy     14211.7052964283 Hartrees.
 IExCor= 1009 DFT=T Ex+Corr=PBE1PBE ExCW=0 ScaHFX=  0.250000
 ScaDFX=  0.750000  0.750000  1.000000  1.000000 ScalE2=  1.000000  1.000000
 IRadAn=      7 IRanWt=     -1 IRanGd=            0 ICorTp=0 IEmpDi=131
 NAtoms=  168 NActive=  168 NUniq=  168 SFac= 1.00D+00 NAtFMM=   60 NAOKFM=T Big=T
 Integral buffers will be    131072 words long.
 Raffenetti 2 integral format.
 Two-electron integral symmetry is turned on.
 R6Disp:  Grimme-D3 Dispersion energy=       -0.1306565974 Hartrees.
 Nuclear repulsion after empirical dispersion term =    14211.5746398309 Hartrees.
 Leave Link  301 at Sun Oct 17 22:12:42 2021, MaxMem=  7864320000 cpu:               1.1 elap:               0.0
 (Enter /apps/gaussian/g16-c01-avx/g16/l302.exe)
 NPDir=0 NMtPBC=     1 NCelOv=     1 NCel=       1 NClECP=     1 NCelD=      1
         NCelK=      1 NCelE2=     1 NClLst=     1 CellRange=     0.0.
 One-electron integrals computed using PRISM.
 One-electron integral symmetry used in STVInt
   1 Symmetry operations used in ECPInt.
 ECPInt:  NShTT=  794430 NPrTT= 2388120 LenC2=  432826 LenP2D=  802757.
 LDataN:  DoStor=T MaxTD1= 6 Len=  172
 Number of processors reduced to  24 by ecpmxn.
 NBasis=  3108 RedAO= T EigKep=  5.66D-06  NBF=  3108
 NBsUse=  3108 1.00D-06 EigRej= -1.00D+00 NBFU=  3108
 Precomputing XC quadrature grid using
 IXCGrd= 4 IRadAn=           7 IRanWt=          -1 IRanGd=           0 AccXCQ= 0.00D+00.
 Generated NRdTot=       0 NPtTot=           0 NUsed=           0 NTot=          32
 NSgBfM=  2436  2325  2350  2371  2436 MxSgAt=   168 MxSgA2=   168.
 Leave Link  302 at Sun Oct 17 22:13:11 2021, MaxMem=  7864320000 cpu:             911.0 elap:              28.8
 (Enter /apps/gaussian/g16-c01-avx/g16/l303.exe)
 DipDrv:  MaxL=1.
 Leave Link  303 at Sun Oct 17 22:13:12 2021, MaxMem=  7864320000 cpu:              33.9 elap:               1.3
 (Enter /apps/gaussian/g16-c01-avx/g16/l401.exe)
 ExpMin= 9.52D-02 ExpMax= 1.97D+04 ExpMxC= 6.73D+02 IAcc=3 IRadAn=         7 AccDes= 0.00D+00
 Harris functional with IExCor= 1009 and IRadAn=       7 diagonalized for initial guess.
 HarFok:  IExCor= 1009 AccDes= 0.00D+00 IRadAn=         7 IDoV= 1 UseB2=F ITyADJ=14
 ICtDFT=  3500011 ScaDFX=  1.000000  1.000000  1.000000  1.000000
 FoFCou: FMM=F IPFlag=           0 FMFlag=      100000 FMFlg1=        2001
         NFxFlg=           0 DoJE=T BraDBF=F KetDBF=T FulRan=T
         wScrn=  0.000000 ICntrl=       500 IOpCl=  0 I1Cent=   200000004 NGrid=           0
         NMat0=    1 NMatS0=      1 NMatT0=    0 NMatD0=    1 NMtDS0=    0 NMtDT0=    0
 Petite list used in FoFCou.
 Harris En= -3449.49344264731    
 JPrj=0 DoOrth=F DoCkMO=F.
 Leave Link  401 at Sun Oct 17 22:14:11 2021, MaxMem=  7864320000 cpu:            1874.1 elap:              59.2
 (Enter /apps/gaussian/g16-c01-avx/g16/l508.exe)
 Integral symmetry usage will be decided dynamically.
 Tight linear equation convergence will be used.
 RPBE1PBE wavefunction.
 Linear searches until partial convergence.
 Full line searches.
 Fock matrices will be formed incrementally for  20 cycles.
 FoFJK:  IHMeth= 1 ICntrl=       0 DoSepK=F KAlg= 0 I1Cent=           0 FoldK=F
 IRaf= 470000000 NMat=       1 IRICut=       1 DoRegI=T DoRafI=F ISym2E= 1 IDoP0=0 IntGTp=1.
 FoFCou: FMM=T IPFlag=           0 FMFlag=      100000 FMFlg1=        2001
         NFxFlg=           0 DoJE=F BraDBF=F KetDBF=F FulRan=T
         wScrn=  0.000000 ICntrl=         0 IOpCl=  0 I1Cent=           0 NGrid=           0
         NMat0=    1 NMatS0=      1 NMatT0=    0 NMatD0=    1 NMtDS0=    0 NMtDT0=    0
 Petite list used in FoFCou.
 FMM levels:  10  Number of levels for PrismC:   9
 Iteration   1 EE= -3446.68629606235                                    Grad=1.973D+00 Max rot=    2.6732 deg.
 Gradient too large for Newton-Raphson -- use scaled steepest descent instead.
 Alpha Gap=     0.193 HL deriv= 2.14D-04
     ILin= 1 X=0.000D+00 Y=-3.446686296062D+03 DE= 0.00D+00 F= -7.61D+00
 RMSU=  4.34D-04    CP:  9.95D-01
     ILin= 2 X=3.000D-01 Y=-3.448203305277D+03 DE=-1.52D+00 F= -2.48D+00 OKLS=F
 RMSU=  7.69D-05    CP:  9.95D-01  1.74D+00
     ILin= 3 X=5.000D-01 Y=-3.448351324860D+03 DE=-1.67D+00 F=  1.01D+00
     Accept linear search using points  2 and  3.
     An  expanding polynomial of degree  3 produced  0.3912
 RMSU=  3.70D-08    CP:  9.95D-01  1.33D+00  3.57D-01
 Iteration   2 EE= -3448.35723530918     Delta-E=       -1.670939246833 Grad=6.566D-01 Max rot=    0.9271 deg.
 Gradient too large for Newton-Raphson -- use scaled steepest descent instead.
 Alpha Gap=     0.207 HL deriv= 1.27D-04
     ILin= 1 X=0.000D+00 Y=-3.448357235309D+03 DE= 0.00D+00 F= -4.15D-01
 RMSU=  7.56D-05    CP:  9.94D-01  1.61D+00  8.52D-01 -3.00D+00
     ILin= 2 X=3.000D-01 Y=-3.448451086888D+03 DE=-9.39D-02 F= -2.11D-01 OKLS=F
 RMSU=  6.84D-06    CP:  9.93D-01  1.89D+00  1.52D+00 -3.00D+00  2.02D+00
     ILin= 3 X=6.000D-01 Y=-3.448483653864D+03 DE=-1.26D-01 F= -6.49D-03
 RMSU=  8.91D-05    CP:  9.94D-01  2.50D+00  3.00D+00 -3.00D+00  3.00D+00
                    CP:  3.00D+00
     ILin= 4 X=1.200D+00 Y=-3.448365292280D+03 DE=-8.06D-03 F=  4.01D-01
     An  expanding polynomial of degree  4 produced  0.6096
     Minimum is close to point  3 DX=  9.58D-03 DF= -3.12D-05 DXR=  1.57D-02 DFR=  2.47D-04 which will be used.
 Iteration   3 EE= -3448.48365386441     Delta-E=       -0.126418555228 Grad=2.447D-01 Max rot=    0.5979 deg.
 Gradient too large for Newton-Raphson -- use scaled steepest descent instead.
 Alpha Gap=     0.199 HL deriv= 1.53D-04
     ILin= 1 X=0.000D+00 Y=-3.448483653864D+03 DE= 0.00D+00 F= -7.26D-02
 RMSU=  6.59D-05    CP:  9.94D-01  2.08D+00  2.08D+00 -3.00D+00  2.47D+00
                    CP:  2.17D+00  1.81D-04
     ILin= 2 X=5.000D-01 Y=-3.448496440695D+03 DE=-1.28D-02 F=  2.16D-02 OKLS=T
     Accept linear search using points  1 and  2.
     An  expanding polynomial of degree  2 produced  0.2887
 RMSU=  4.57D-07    CP:  9.94D-01  2.00D+00  1.83D+00 -3.00D+00  2.28D+00
                    CP:  1.64D+00  1.06D-04  5.76D-01
 Iteration   4 EE= -3448.49678620141     Delta-E=       -0.013132337001 Grad=1.484D-01 Max rot=    0.2614 deg.
 Gradient too large for Newton-Raphson -- use scaled steepest descent instead.
 Alpha Gap=     0.203 HL deriv= 3.18D-06
     ILin= 1 X=0.000D+00 Y=-3.448496786201D+03 DE= 0.00D+00 F= -1.18D-02
 RMSU=  1.89D-05    CP:  9.94D-01  2.11D+00  2.17D+00 -3.00D+00  2.77D+00
                    CP:  2.65D+00  2.64D-04  1.01D+00 -3.00D+00
     ILin= 2 X=6.000D-01 Y=-3.448501396999D+03 DE=-4.61D-03 F= -3.60D-03 OKLS=F
 RMSU=  6.82D-06    CP:  9.94D-01  2.22D+00  2.54D+00 -3.00D+00  3.00D+00
                    CP:  3.00D+00  2.19D-01  1.44D+00 -3.00D+00  2.01D+00
     ILin= 3 X=1.200D+00 Y=-3.448501103765D+03 DE=-4.32D-03 F=  4.57D-03
     An  expanding polynomial of degree  3 produced  0.8641
 RMSU=  1.37D-06    CP:  9.94D-01  2.16D+00  2.33D+00 -3.00D+00  2.98D+00
                    CP:  3.00D+00  3.07D-03  1.20D+00 -3.00D+00  1.44D+00
                    CP:  1.09D-01
 Iteration   5 EE= -3448.50187204383     Delta-E=       -0.005085842418 Grad=2.691D-02 Max rot=    0.0309 deg.
 Gradient too large for Newton-Raphson -- use scaled steepest descent instead.
 Alpha Gap=     0.204 HL deriv= 1.09D-05
     ILin= 1 X=0.000D+00 Y=-3.448501872044D+03 DE= 0.00D+00 F= -1.20D-03
 RMSU=  1.24D-05    CP:  9.95D-01  2.20D+00  2.49D+00 -3.00D+00  3.00D+00
                    CP:  3.00D+00  7.95D-02  1.25D+00 -3.00D+00  1.66D+00
                    CP:  4.05D-01  5.51D-01
     ILin= 2 X=5.000D-01 Y=-3.448502150540D+03 DE=-2.78D-04 F=  8.30D-05 OKLS=T
     Accept linear search using points  1 and  2.
     An  expanding polynomial of degree  2 produced  0.3376
 RMSU=  4.66D-08    CP:  9.94D-01  2.19D+00  2.44D+00 -3.00D+00  3.00D+00
                    CP:  3.00D+00  5.04D-02  1.23D+00 -3.00D+00  1.59D+00
                    CP:  2.95D-01  7.75D-01  6.75D-01
 Iteration   6 EE= -3448.50213026251     Delta-E=       -0.000258218675 Grad=1.308D-02 Max rot=    0.0149 deg.
 Gradient too large for Newton-Raphson -- use scaled steepest descent instead.
 Alpha Gap=     0.204 HL deriv= 1.48D-06
     ILin= 1 X=0.000D+00 Y=-3.448502130263D+03 DE= 0.00D+00 F= -1.55D-04
 RMSU=  1.70D-06    CP:  9.95D-01  2.21D+00  2.52D+00 -3.00D+00  3.00D+00
                    CP:  3.00D+00  9.71D-02  1.28D+00 -3.00D+00  1.83D+00
                    CP:  4.85D-01  4.93D-01  1.16D+00 -3.00D+00
     ILin= 2 X=5.000D-01 Y=-3.448502183681D+03 DE=-5.34D-05 F= -5.90D-05 OKLS=F
 RMSU=  2.42D-07    CP:  9.95D-01  2.24D+00  2.62D+00 -3.00D+00  3.00D+00
                    CP:  3.00D+00  1.53D-01  1.34D+00 -3.00D+00  2.11D+00
                    CP:  7.18D-01  1.85D-01  1.74D+00 -3.00D+00  2.21D+00
     ILin= 3 X=1.100D+00 Y=-3.448502184606D+03 DE=-5.43D-05 F=  5.59D-05
     Accept linear search using points  2 and  3.
     An  expanding polynomial of degree  3 produced  0.8032
 RMSU=  8.42D-09    CP:  9.95D-01  2.23D+00  2.57D+00 -3.00D+00  3.00D+00
                    CP:  3.00D+00  1.26D-01  1.31D+00 -3.00D+00  1.97D+00
                    CP:  6.02D-01  3.33D-01  1.45D+00 -3.00D+00  1.61D+00
                    CP:  4.90D-01
 Iteration   7 EE= -3448.50219276296     Delta-E=       -0.000062500450 Grad=4.300D-03 Max rot=    0.0060 deg.
 SCF Done:  E(RPBE1PBE) =  -3448.50219276     a.u. after    7 cycles
            Convg  =    0.4300D-02                    17 Fock formations.
              S**2 =  0.0000                  -V/T =  2.0047
 Leave Link  508 at Sun Oct 17 23:54:33 2021, MaxMem=  7864320000 cpu:          190006.2 elap:            6022.1
 (Enter /apps/gaussian/g16-c01-avx/g16/l502.exe)
 Integral symmetry usage will be decided dynamically.
 Closed shell SCF:
 Using DIIS extrapolation, IDIIS=  1040.
 NGot=  7864320000 LenX=  7839278762 LenY=  7826828450
 Requested convergence on RMS density matrix=1.00D-08 within 128 cycles.
 Requested convergence on MAX density matrix=1.00D-06.
 Requested convergence on             energy=1.00D-06.
 No special actions if energy rises.
 Fock matrices will be formed incrementally for  20 cycles.

 Cycle   1  Pass 1  IDiag  1:
 FoFJK:  IHMeth= 1 ICntrl=       0 DoSepK=F KAlg= 0 I1Cent=           0 FoldK=F
 IRaf= 470000000 NMat=       1 IRICut=       1 DoRegI=T DoRafI=F ISym2E= 0 IDoP0=0 IntGTp=1.
 FoFCou: FMM=T IPFlag=           0 FMFlag=      100000 FMFlg1=        2001
         NFxFlg=           0 DoJE=F BraDBF=F KetDBF=F FulRan=T
         wScrn=  0.000000 ICntrl=         0 IOpCl=  0 I1Cent=           0 NGrid=           0
         NMat0=    1 NMatS0=      1 NMatT0=    0 NMatD0=    1 NMtDS0=    0 NMtDT0=    0
 Symmetry not used in FoFCou.
 FMM levels:  10  Number of levels for PrismC:   9
 E= -3448.50219276292    
 DIIS: error= 3.48D-05 at cycle   1 NSaved=   1.
 NSaved= 1 IEnMin= 1 EnMin= -3448.50219276292     IErMin= 1 ErrMin= 3.48D-05
 ErrMax= 3.48D-05  0.00D+00 EMaxC= 1.00D-01 BMatC= 9.24D-06 BMatP= 9.24D-06
 IDIUse=1 WtCom= 1.00D+00 WtEn= 0.00D+00
 Coeff-Com:  0.100D+01
 Coeff:      0.100D+01
 Gap=     0.204 Goal=   None    Shift=    0.000
 RMSDP=7.99D-06 MaxDP=1.06D-03              OVMax= 4.78D-04

 Cycle   2  Pass 1  IDiag  1:
 RMSU=  7.82D-06    CP:  1.00D+00
 E= -3448.50219655250     Delta-E=       -0.000003789577 Rises=F Damp=F
 DIIS: error= 4.09D-05 at cycle   2 NSaved=   2.
 NSaved= 2 IEnMin= 2 EnMin= -3448.50219655250     IErMin= 1 ErrMin= 3.48D-05
 ErrMax= 4.09D-05  0.00D+00 EMaxC= 1.00D-01 BMatC= 6.57D-06 BMatP= 9.24D-06
 IDIUse=1 WtCom= 1.00D+00 WtEn= 0.00D+00
 Coeff-Com:  0.449D+00 0.551D+00
 Coeff:      0.449D+00 0.551D+00
 Gap=     0.193 Goal=   None    Shift=    0.000
 RMSDP=2.92D-06 MaxDP=4.95D-04 DE=-3.79D-06 OVMax= 3.99D-04

 Cycle   3  Pass 1  IDiag  1:
 RMSU=  2.62D-06    CP:  1.00D+00  1.11D+00
 E= -3448.50220250326     Delta-E=       -0.000005950762 Rises=F Damp=F
 DIIS: error= 1.77D-05 at cycle   3 NSaved=   3.
 NSaved= 3 IEnMin= 3 EnMin= -3448.50220250326     IErMin= 3 ErrMin= 1.77D-05
 ErrMax= 1.77D-05  0.00D+00 EMaxC= 1.00D-01 BMatC= 9.79D-07 BMatP= 6.57D-06
 IDIUse=1 WtCom= 1.00D+00 WtEn= 0.00D+00
 Coeff-Com:  0.912D-01 0.284D+00 0.625D+00
 Coeff:      0.912D-01 0.284D+00 0.625D+00
 Gap=     0.193 Goal=   None    Shift=    0.000
 RMSDP=9.45D-07 MaxDP=1.92D-04 DE=-5.95D-06 OVMax= 1.68D-04

 Cycle   4  Pass 1  IDiag  1:
 RMSU=  6.67D-07    CP:  1.00D+00  1.18D+00  1.03D+00
 E= -3448.50220315864     Delta-E=       -0.000000655382 Rises=F Damp=F
 DIIS: error= 9.36D-06 at cycle   4 NSaved=   4.
 NSaved= 4 IEnMin= 4 EnMin= -3448.50220315864     IErMin= 4 ErrMin= 9.36D-06
 ErrMax= 9.36D-06  0.00D+00 EMaxC= 1.00D-01 BMatC= 3.54D-07 BMatP= 9.79D-07
 IDIUse=1 WtCom= 1.00D+00 WtEn= 0.00D+00
 Coeff-Com: -0.973D-02 0.111D+00 0.430D+00 0.468D+00
 Coeff:     -0.973D-02 0.111D+00 0.430D+00 0.468D+00
 Gap=     0.193 Goal=   None    Shift=    0.000
 RMSDP=6.43D-07 MaxDP=1.50D-04 DE=-6.55D-07 OVMax= 8.31D-05

 Cycle   5  Pass 1  IDiag  1:
 RMSU=  1.65D-07    CP:  1.00D+00  1.16D+00  8.88D-01  4.03D-01
 E= -3448.50220347982     Delta-E=       -0.000000321175 Rises=F Damp=F
 DIIS: error= 2.07D-06 at cycle   5 NSaved=   5.
 NSaved= 5 IEnMin= 5 EnMin= -3448.50220347982     IErMin= 5 ErrMin= 2.07D-06
 ErrMax= 2.07D-06  0.00D+00 EMaxC= 1.00D-01 BMatC= 2.09D-08 BMatP= 3.54D-07
 IDIUse=1 WtCom= 1.00D+00 WtEn= 0.00D+00
 Coeff-Com: -0.130D-01 0.481D-01 0.223D+00 0.290D+00 0.452D+00
 Coeff:     -0.130D-01 0.481D-01 0.223D+00 0.290D+00 0.452D+00
 Gap=     0.193 Goal=   None    Shift=    0.000
 RMSDP=7.40D-08 MaxDP=1.44D-05 DE=-3.21D-07 OVMax= 2.01D-05

 Cycle   6  Pass 1  IDiag  1:
 RMSU=  4.02D-08    CP:  1.00D+00  1.16D+00  9.02D-01  4.43D-01  8.38D-01
 E= -3448.50220349850     Delta-E=       -0.000000018685 Rises=F Damp=F
 DIIS: error= 1.91D-07 at cycle   6 NSaved=   6.
 NSaved= 6 IEnMin= 6 EnMin= -3448.50220349850     IErMin= 6 ErrMin= 1.91D-07
 ErrMax= 1.91D-07  0.00D+00 EMaxC= 1.00D-01 BMatC= 1.90D-10 BMatP= 2.09D-08
 IDIUse=1 WtCom= 1.00D+00 WtEn= 0.00D+00
 Coeff-Com: -0.131D-02 0.263D-03 0.854D-02 0.234D-01 0.879D-01 0.881D+00
 Coeff:     -0.131D-02 0.263D-03 0.854D-02 0.234D-01 0.879D-01 0.881D+00
 Gap=     0.193 Goal=   None    Shift=    0.000
 RMSDP=1.77D-08 MaxDP=1.85D-06 DE=-1.87D-08 OVMax= 4.21D-06

 Cycle   7  Pass 1  IDiag  1:
 RMSU=  1.19D-08    CP:  1.00D+00  1.17D+00  9.05D-01  4.35D-01  8.79D-01
                    CP:  1.04D+00
 E= -3448.50220349863     Delta-E=       -0.000000000124 Rises=F Damp=F
 DIIS: error= 1.78D-07 at cycle   7 NSaved=   7.
 NSaved= 7 IEnMin= 7 EnMin= -3448.50220349863     IErMin= 7 ErrMin= 1.78D-07
 ErrMax= 1.78D-07  0.00D+00 EMaxC= 1.00D-01 BMatC= 6.38D-11 BMatP= 1.90D-10
 IDIUse=1 WtCom= 1.00D+00 WtEn= 0.00D+00
 Coeff-Com:  0.182D-03-0.307D-02-0.106D-01-0.726D-02 0.105D-01 0.442D+00
 Coeff-Com:  0.568D+00
 Coeff:      0.182D-03-0.307D-02-0.106D-01-0.726D-02 0.105D-01 0.442D+00
 Coeff:      0.568D+00
 Gap=     0.193 Goal=   None    Shift=    0.000
 RMSDP=6.76D-09 MaxDP=9.04D-07 DE=-1.24D-10 OVMax= 1.26D-06

 SCF Done:  E(RPBE1PBE) =  -3448.50220350     A.U. after    7 cycles
            NFock=  7  Conv=0.68D-08     -V/T= 2.0047
 KE= 3.432350995018D+03 PE=-3.643774119049D+04 EE= 1.534531335214D+04
 Leave Link  502 at Mon Oct 18 00:35:10 2021, MaxMem=  7864320000 cpu:           76897.8 elap:            2436.7
 (Enter /apps/gaussian/g16-c01-avx/g16/l508.exe)
 QCSCF skips out because SCF is already converged.
 Leave Link  508 at Mon Oct 18 00:35:10 2021, MaxMem=  7864320000 cpu:               0.0 elap:               0.0
 (Enter /apps/gaussian/g16-c01-avx/g16/l601.exe)
 Copying SCF densities to generalized density rwf, IOpCl= 0 IROHF=0.
 Hyperfine terms turned off by default for NAtoms > 100.

 **********************************************************************

            Population analysis using the SCF Density.

 **********************************************************************

 Orbital symmetries:
       Occupied  (A) (A) (A) (A) (A) (A) (A) (A) (A) (A) (A) (A)
                 (A) (A) (A) (A) (A) (A) (A) (A) (A) (A) (A) (A)
                 (A) (A) (A) (A) (A) (A) (A) (A) (A) (A) (A) (A)
                 (A) (A) (A) (A) (A) (A) (A) (A) (A) (A) (A) (A)
                 (A) (A) (A) (A) (A) (A) (A) (A) (A) (A) (A) (A)
                 (A) (A) (A) (A) (A) (A) (A) (A) (A) (A) (A) (A)
                 (A) (A) (A) (A) (A) (A) (A) (A) (A) (A) (A) (A)
                 (A) (A) (A) (A) (A) (A) (A) (A) (A) (A) (A) (A)
                 (A) (A) (A) (A) (A) (A) (A) (A) (A) (A) (A) (A)
                 (A) (A) (A) (A) (A) (A) (A) (A) (A) (A) (A) (A)
                 (A) (A) (A) (A) (A) (A) (A) (A) (A) (A) (A) (A)
                 (A) (A) (A) (A) (A) (A) (A) (A) (A) (A) (A) (A)
                 (A) (A) (A) (A) (A) (A) (A) (A) (A) (A) (A) (A)
                 (A) (A) (A) (A) (A) (A) (A) (A) (A) (A) (A) (A)
                 (A) (A) (A) (A) (A) (A) (A) (A) (A) (A) (A) (A)
                 (A) (A) (A) (A) (A) (A) (A) (A) (A) (A) (A) (A)
                 (A) (A) (A) (A) (A) (A) (A) (A) (A) (A) (A) (A)
                 (A) (A) (A) (A) (A) (A) (A) (A) (A) (A) (A) (A)
                 (A) (A) (A) (A) (A) (A) (A) (A) (A) (A) (A) (A)
                 (A) (A) (A) (A) (A) (A) (A) (A) (A) (A) (A) (A)
                 (A) (A) (A) (A) (A) (A) (A) (A) (A) (A) (A) (A)
                 (A) (A) (A) (A) (A) (A) (A) (A) (A) (A) (A) (A)
                 (A) (A) (A) (A) (A) (A) (A) (A) (A) (A) (A) (A)
                 (A) (A) (A) (A) (A) (A) (A) (A) (A) (A) (A) (A)
                 (A) (A) (A) (A) (A) (A) (A) (A) (A) (A) (A) (A)
       Virtual   (A) (A) (A) (A) (A) (A) (A) (A) (A) (A) (A) (A)
                 (A) (A) (A) (A) (A) (A) (A) (A) (A) (A) (A) (A)
                 (A) (A) (A) (A) (A) (A) (A) (A) (A) (A) (A) (A)
                 (A) (A) (A) (A) (A) (A) (A) (A) (A) (A) (A) (A)
                 (A) (A) (A) (A) (A) (A) (A) (A) (A) (A) (A) (A)
                 (A) (A) (A) (A) (A) (A) (A) (A) (A) (A) (A) (A)
                 (A) (A) (A) (A) (A) (A) (A) (A) (A) (A) (A) (A)
                 (A) (A) (A) (A) (A) (A) (A) (A) (A) (A) (A) (A)
                 (A) (A) (A) (A) (A) (A) (A) (A) (A) (A) (A) (A)
                 (A) (A) (A) (A) (A) (A) (A) (A) (A) (A) (A) (A)
                 (A) (A) (A) (A) (A) (A) (A) (A) (A) (A) (A) (A)
                 (A) (A) (A) (A) (A) (A) (A) (A) (A) (A) (A) (A)
                 (A) (A) (A) (A) (A) (A) (A) (A) (A) (A) (A) (A)
                 (A) (A) (A) (A) (A) (A) (A) (A) (A) (A) (A) (A)
                 (A) (A) (A) (A) (A) (A) (A) (A) (A) (A) (A) (A)
                 (A) (A) (A) (A) (A) (A) (A) (A) (A) (A) (A) (A)
                 (A) (A) (A) (A) (A) (A) (A) (A) (A) (A) (A) (A)
                 (A) (A) (A) (A) (A) (A) (A) (A) (A) (A) (A) (A)
                 (A) (A) (A) (A) (A) (A) (A) (A) (A) (A) (A) (A)
                 (A) (A) (A) (A) (A) (A) (A) (A) (A) (A) (A) (A)
                 (A) (A) (A) (A) (A) (A) (A) (A) (A) (A) (A) (A)
                 (A) (A) (A) (A) (A) (A) (A) (A) (A) (A) (A) (A)
                 (A) (A) (A) (A) (A) (A) (A) (A) (A) (A) (A) (A)
                 (A) (A) (A) (A) (A) (A) (A) (A) (A) (A) (A) (A)
                 (A) (A) (A) (A) (A) (A) (A) (A) (A) (A) (A) (A)
                 (A) (A) (A) (A) (A) (A) (A) (A) (A) (A) (A) (A)
                 (A) (A) (A) (A) (A) (A) (A) (A) (A) (A) (A) (A)
                 (A) (A) (A) (A) (A) (A) (A) (A) (A) (A) (A) (A)
                 (A) (A) (A) (A) (A) (A) (A) (A) (A) (A) (A) (A)
                 (A) (A) (A) (A) (A) (A) (A) (A) (A) (A) (A) (A)
                 (A) (A) (A) (A) (A) (A) (A) (A) (A) (A) (A) (A)
                 (A) (A) (A) (A) (A) (A) (A) (A) (A) (A) (A) (A)
                 (A) (A) (A) (A) (A) (A) (A) (A) (A) (A) (A) (A)
                 (A) (A) (A) (A) (A) (A) (A) (A) (A) (A) (A) (A)
                 (A) (A) (A) (A) (A) (A) (A) (A) (A) (A) (A) (A)
                 (A) (A) (A) (A) (A) (A) (A) (A) (A) (A) (A) (A)
                 (A) (A) (A) (A) (A) (A) (A) (A) (A) (A) (A) (A)
                 (A) (A) (A) (A) (A) (A) (A) (A) (A) (A) (A) (A)
                 (A) (A) (A) (A) (A) (A) (A) (A) (A) (A) (A) (A)
                 (A) (A) (A) (A) (A) (A) (A) (A) (A) (A) (A) (A)
                 (A) (A) (A) (A) (A) (A) (A) (A) (A) (A) (A) (A)
                 (A) (A) (A) (A) (A) (A) (A) (A) (A) (A) (A) (A)
                 (A) (A) (A) (A) (A) (A) (A) (A) (A) (A) (A) (A)
                 (A) (A) (A) (A) (A) (A) (A) (A) (A) (A) (A) (A)
                 (A) (A) (A) (A) (A) (A) (A) (A) (A) (A) (A) (A)
                 (A) (A) (A) (A) (A) (A) (A) (A) (A) (A) (A) (A)
                 (A) (A) (A) (A) (A) (A) (A) (A) (A) (A) (A) (A)
                 (A) (A) (A) (A) (A) (A) (A) (A) (A) (A) (A) (A)
                 (A) (A) (A) (A) (A) (A) (A) (A) (A) (A) (A) (A)
                 (A) (A) (A) (A) (A) (A) (A) (A) (A) (A) (A) (A)
                 (A) (A) (A) (A) (A) (A) (A) (A) (A) (A) (A) (A)
                 (A) (A) (A) (A) (A) (A) (A) (A) (A) (A) (A) (A)
                 (A) (A) (A) (A) (A) (A) (A) (A) (A) (A) (A) (A)
                 (A) (A) (A) (A) (A) (A) (A) (A) (A) (A) (A) (A)
                 (A) (A) (A) (A) (A) (A) (A) (A) (A) (A) (A) (A)
                 (A) (A) (A) (A) (A) (A) (A) (A) (A) (A) (A) (A)
                 (A) (A) (A) (A) (A) (A) (A) (A) (A) (A) (A) (A)
                 (A) (A) (A) (A) (A) (A) (A) (A) (A) (A) (A) (A)
                 (A) (A) (A) (A) (A) (A) (A) (A) (A) (A) (A) (A)
                 (A) (A) (A) (A) (A) (A) (A) (A) (A) (A) (A) (A)
                 (A) (A) (A) (A) (A) (A) (A) (A) (A) (A) (A) (A)
                 (A) (A) (A) (A) (A) (A) (A) (A) (A) (A) (A) (A)
                 (A) (A) (A) (A) (A) (A) (A) (A) (A) (A) (A) (A)
                 (A) (A) (A) (A) (A) (A) (A) (A) (A) (A) (A) (A)
                 (A) (A) (A) (A) (A) (A) (A) (A) (A) (A) (A) (A)
                 (A) (A) (A) (A) (A) (A) (A) (A) (A) (A) (A) (A)
                 (A) (A) (A) (A) (A) (A) (A) (A) (A) (A) (A) (A)
                 (A) (A) (A) (A) (A) (A) (A) (A) (A) (A) (A) (A)
                 (A) (A) (A) (A) (A) (A) (A) (A) (A) (A) (A) (A)
                 (A) (A) (A) (A) (A) (A) (A) (A) (A) (A) (A) (A)
                 (A) (A) (A) (A) (A) (A) (A) (A) (A) (A) (A) (A)
                 (A) (A) (A) (A) (A) (A) (A) (A) (A) (A) (A) (A)
                 (A) (A) (A) (A) (A) (A) (A) (A) (A) (A) (A) (A)
                 (A) (A) (A) (A) (A) (A) (A) (A) (A) (A) (A) (A)
                 (A) (A) (A) (A) (A) (A) (A) (A) (A) (A) (A) (A)
                 (A) (A) (A) (A) (A) (A) (A) (A) (A) (A) (A) (A)
                 (A) (A) (A) (A) (A) (A) (A) (A) (A) (A) (A) (A)
                 (A) (A) (A) (A) (A) (A) (A) (A) (A) (A) (A) (A)
                 (A) (A) (A) (A) (A) (A) (A) (A) (A) (A) (A) (A)
                 (A) (A) (A) (A) (A) (A) (A) (A) (A) (A) (A) (A)
                 (A) (A) (A) (A) (A) (A) (A) (A) (A) (A) (A) (A)
                 (A) (A) (A) (A) (A) (A) (A) (A) (A) (A) (A) (A)
                 (A) (A) (A) (A) (A) (A) (A) (A) (A) (A) (A) (A)
                 (A) (A) (A) (A) (A) (A) (A) (A) (A) (A) (A) (A)
                 (A) (A) (A) (A) (A) (A) (A) (A) (A) (A) (A) (A)
                 (A) (A) (A) (A) (A) (A) (A) (A) (A) (A) (A) (A)
                 (A) (A) (A) (A) (A) (A) (A) (A) (A) (A) (A) (A)
                 (A) (A) (A) (A) (A) (A) (A) (A) (A) (A) (A) (A)
                 (A) (A) (A) (A) (A) (A) (A) (A) (A) (A) (A) (A)
                 (A) (A) (A) (A) (A) (A) (A) (A) (A) (A) (A) (A)
                 (A) (A) (A) (A) (A) (A) (A) (A) (A) (A) (A) (A)
                 (A) (A) (A) (A) (A) (A) (A) (A) (A) (A) (A) (A)
                 (A) (A) (A) (A) (A) (A) (A) (A) (A) (A) (A) (A)
                 (A) (A) (A) (A) (A) (A) (A) (A) (A) (A) (A) (A)
                 (A) (A) (A) (A) (A) (A) (A) (A) (A) (A) (A) (A)
                 (A) (A) (A) (A) (A) (A) (A) (A) (A) (A) (A) (A)
                 (A) (A) (A) (A) (A) (A) (A) (A) (A) (A) (A) (A)
                 (A) (A) (A) (A) (A) (A) (A) (A) (A) (A) (A) (A)
                 (A) (A) (A) (A) (A) (A) (A) (A) (A) (A) (A) (A)
                 (A) (A) (A) (A) (A) (A) (A) (A) (A) (A) (A) (A)
                 (A) (A) (A) (A) (A) (A) (A) (A) (A) (A) (A) (A)
                 (A) (A) (A) (A) (A) (A) (A) (A) (A) (A) (A) (A)
                 (A) (A) (A) (A) (A) (A) (A) (A) (A) (A) (A) (A)
                 (A) (A) (A) (A) (A) (A) (A) (A) (A) (A) (A) (A)
                 (A) (A) (A) (A) (A) (A) (A) (A) (A) (A) (A) (A)
                 (A) (A) (A) (A) (A) (A) (A) (A) (A) (A) (A) (A)
                 (A) (A) (A) (A) (A) (A) (A) (A) (A) (A) (A) (A)
                 (A) (A) (A) (A) (A) (A) (A) (A) (A) (A) (A) (A)
                 (A) (A) (A) (A) (A) (A) (A) (A) (A) (A) (A) (A)
                 (A) (A) (A) (A) (A) (A) (A) (A) (A) (A) (A) (A)
                 (A) (A) (A) (A) (A) (A) (A) (A) (A) (A) (A) (A)
                 (A) (A) (A) (A) (A) (A) (A) (A) (A) (A) (A) (A)
                 (A) (A) (A) (A) (A) (A) (A) (A) (A) (A) (A) (A)
                 (A) (A) (A) (A) (A) (A) (A) (A) (A) (A) (A) (A)
                 (A) (A) (A) (A) (A) (A) (A) (A) (A) (A) (A) (A)
                 (A) (A) (A) (A) (A) (A) (A) (A) (A) (A) (A) (A)
                 (A) (A) (A) (A) (A) (A) (A) (A) (A) (A) (A) (A)
                 (A) (A) (A) (A) (A) (A) (A) (A) (A) (A) (A) (A)
                 (A) (A) (A) (A) (A) (A) (A) (A) (A) (A) (A) (A)
                 (A) (A) (A) (A) (A) (A) (A) (A) (A) (A) (A) (A)
                 (A) (A) (A) (A) (A) (A) (A) (A) (A) (A) (A) (A)
                 (A) (A) (A) (A) (A) (A) (A) (A) (A) (A) (A) (A)
                 (A) (A) (A) (A) (A) (A) (A) (A) (A) (A) (A) (A)
                 (A) (A) (A) (A) (A) (A) (A) (A) (A) (A) (A) (A)
                 (A) (A) (A) (A) (A) (A) (A) (A) (A) (A) (A) (A)
                 (A) (A) (A) (A) (A) (A) (A) (A) (A) (A) (A) (A)
                 (A) (A) (A) (A) (A) (A) (A) (A) (A) (A) (A) (A)
                 (A) (A) (A) (A) (A) (A) (A) (A) (A) (A) (A) (A)
                 (A) (A) (A) (A) (A) (A) (A) (A) (A) (A) (A) (A)
                 (A) (A) (A) (A) (A) (A) (A) (A) (A) (A) (A) (A)
                 (A) (A) (A) (A) (A) (A) (A) (A) (A) (A) (A) (A)
                 (A) (A) (A) (A) (A) (A) (A) (A) (A) (A) (A) (A)
                 (A) (A) (A) (A) (A) (A) (A) (A) (A) (A) (A) (A)
                 (A) (A) (A) (A) (A) (A) (A) (A) (A) (A) (A) (A)
                 (A) (A) (A) (A) (A) (A) (A) (A) (A) (A) (A) (A)
                 (A) (A) (A) (A) (A) (A) (A) (A) (A) (A) (A) (A)
                 (A) (A) (A) (A) (A) (A) (A) (A) (A) (A) (A) (A)
                 (A) (A) (A) (A) (A) (A) (A) (A) (A) (A) (A) (A)
                 (A) (A) (A) (A) (A) (A) (A) (A) (A) (A) (A) (A)
                 (A) (A) (A) (A) (A) (A) (A) (A) (A) (A) (A) (A)
                 (A) (A) (A) (A) (A) (A) (A) (A) (A) (A) (A) (A)
                 (A) (A) (A) (A) (A) (A) (A) (A) (A) (A) (A) (A)
                 (A) (A) (A) (A) (A) (A) (A) (A) (A) (A) (A) (A)
                 (A) (A) (A) (A) (A) (A) (A) (A) (A) (A) (A) (A)
                 (A) (A) (A) (A) (A) (A) (A) (A) (A) (A) (A) (A)
                 (A) (A) (A) (A) (A) (A) (A) (A) (A) (A) (A) (A)
                 (A) (A) (A) (A) (A) (A) (A) (A) (A) (A) (A) (A)
                 (A) (A) (A) (A) (A) (A) (A) (A) (A) (A) (A) (A)
                 (A) (A) (A) (A) (A) (A) (A) (A) (A) (A) (A) (A)
                 (A) (A) (A) (A) (A) (A) (A) (A) (A) (A) (A) (A)
                 (A) (A) (A) (A) (A) (A) (A) (A) (A) (A) (A) (A)
                 (A) (A) (A) (A) (A) (A) (A) (A) (A) (A) (A) (A)
                 (A) (A) (A) (A) (A) (A) (A) (A) (A) (A) (A) (A)
                 (A) (A) (A) (A) (A) (A) (A) (A) (A) (A) (A) (A)
                 (A) (A) (A) (A) (A) (A) (A) (A) (A) (A) (A) (A)
                 (A) (A) (A) (A) (A) (A) (A) (A) (A) (A) (A) (A)
                 (A) (A) (A) (A) (A) (A) (A) (A) (A) (A) (A) (A)
                 (A) (A) (A) (A) (A) (A) (A) (A) (A) (A) (A) (A)
                 (A) (A) (A) (A) (A) (A) (A) (A) (A) (A) (A) (A)
                 (A) (A) (A) (A) (A) (A) (A) (A) (A) (A) (A) (A)
                 (A) (A) (A) (A) (A) (A) (A) (A) (A) (A) (A) (A)
                 (A) (A) (A) (A) (A) (A) (A) (A) (A) (A) (A) (A)
                 (A) (A) (A) (A) (A) (A) (A) (A) (A) (A) (A) (A)
                 (A) (A) (A) (A) (A) (A) (A) (A) (A) (A) (A) (A)
                 (A) (A) (A) (A) (A) (A) (A) (A) (A) (A) (A) (A)
                 (A) (A) (A) (A) (A) (A) (A) (A) (A) (A) (A) (A)
                 (A) (A) (A) (A) (A) (A) (A) (A) (A) (A) (A) (A)
                 (A) (A) (A) (A) (A) (A) (A) (A) (A) (A) (A) (A)
                 (A) (A) (A) (A) (A) (A) (A) (A) (A) (A) (A) (A)
                 (A) (A) (A) (A) (A) (A) (A) (A) (A) (A) (A) (A)
                 (A) (A) (A) (A) (A) (A) (A) (A) (A) (A) (A) (A)
                 (A) (A) (A) (A) (A) (A) (A) (A) (A) (A) (A) (A)
                 (A) (A) (A) (A) (A) (A) (A) (A) (A) (A) (A) (A)
                 (A) (A) (A) (A) (A) (A) (A) (A) (A) (A) (A) (A)
                 (A) (A) (A) (A) (A) (A) (A) (A) (A) (A) (A) (A)
                 (A) (A) (A) (A) (A) (A) (A) (A) (A) (A) (A) (A)
                 (A) (A) (A) (A) (A) (A) (A) (A) (A) (A) (A) (A)
                 (A) (A) (A) (A) (A) (A) (A) (A) (A) (A) (A) (A)
                 (A) (A) (A) (A) (A) (A) (A) (A) (A) (A) (A) (A)
                 (A) (A) (A) (A) (A) (A) (A) (A) (A) (A) (A) (A)
                 (A) (A) (A) (A) (A) (A) (A) (A) (A) (A) (A) (A)
                 (A) (A) (A) (A) (A) (A) (A) (A) (A) (A) (A) (A)
                 (A) (A) (A) (A) (A) (A) (A) (A) (A) (A) (A) (A)
                 (A) (A) (A) (A) (A) (A) (A) (A) (A) (A) (A) (A)
                 (A) (A) (A) (A) (A) (A) (A) (A) (A) (A) (A) (A)
                 (A) (A) (A) (A) (A) (A) (A) (A) (A) (A) (A) (A)
                 (A) (A) (A) (A) (A) (A) (A) (A) (A) (A) (A) (A)
                 (A) (A) (A) (A) (A) (A) (A) (A) (A) (A) (A) (A)
                 (A) (A) (A) (A) (A) (A) (A) (A) (A) (A) (A) (A)
                 (A) (A) (A) (A) (A) (A) (A) (A) (A) (A) (A) (A)
                 (A) (A) (A) (A) (A) (A) (A) (A) (A) (A) (A) (A)
                 (A) (A) (A) (A) (A) (A) (A) (A) (A) (A) (A) (A)
                 (A) (A) (A) (A) (A) (A) (A) (A) (A) (A) (A) (A)
                 (A) (A) (A) (A) (A) (A) (A) (A) (A) (A) (A) (A)
                 (A) (A) (A) (A) (A) (A) (A) (A) (A) (A) (A) (A)
                 (A) (A) (A) (A) (A) (A) (A) (A) (A) (A) (A) (A)
                 (A) (A) (A) (A) (A) (A) (A) (A) (A) (A) (A) (A)
                 (A) (A) (A) (A) (A) (A) (A) (A) (A) (A) (A) (A)
                 (A) (A) (A) (A) (A) (A) (A) (A) (A) (A) (A) (A)
                 (A) (A) (A) (A) (A) (A) (A) (A) (A) (A) (A) (A)
                 (A) (A) (A) (A) (A) (A) (A) (A) (A) (A) (A) (A)
                 (A) (A) (A) (A) (A) (A) (A) (A) (A) (A) (A) (A)
                 (A) (A) (A) (A) (A) (A) (A) (A) (A) (A) (A) (A)
                 (A) (A) (A) (A) (A) (A) (A) (A) (A) (A) (A) (A)
                 (A) (A) (A) (A) (A) (A) (A) (A) (A) (A) (A) (A)
                 (A) (A) (A) (A) (A) (A) (A) (A) (A) (A) (A) (A)
                 (A) (A) (A) (A) (A) (A) (A) (A) (A) (A) (A) (A)
                 (A) (A) (A) (A) (A) (A) (A) (A) (A) (A) (A) (A)
                 (A) (A) (A) (A) (A) (A) (A) (A) (A) (A) (A) (A)
                 (A) (A) (A) (A) (A) (A) (A) (A) (A) (A) (A) (A)
                 (A) (A) (A) (A) (A) (A) (A) (A) (A) (A) (A) (A)
                 (A) (A) (A) (A) (A) (A) (A) (A) (A) (A) (A) (A)
                 (A) (A) (A) (A) (A) (A) (A) (A) (A) (A) (A) (A)
                 (A) (A) (A) (A) (A) (A) (A) (A) (A) (A) (A) (A)
                 (A) (A) (A) (A) (A) (A) (A) (A) (A) (A) (A) (A)
                 (A) (A) (A) (A) (A) (A) (A) (A) (A) (A) (A) (A)
                 (A) (A) (A) (A) (A) (A) (A) (A) (A) (A) (A) (A)
                 (A) (A) (A) (A) (A) (A) (A) (A) (A) (A) (A) (A)
                 (A) (A) (A) (A) (A) (A) (A) (A) (A) (A) (A) (A)
                 (A) (A) (A) (A) (A) (A) (A) (A) (A) (A) (A) (A)
                 (A) (A) (A) (A) (A) (A) (A) (A) (A) (A) (A) (A)
                 (A) (A) (A) (A) (A) (A) (A) (A) (A) (A) (A) (A)
                 (A) (A) (A) (A) (A) (A) (A) (A) (A) (A) (A) (A)
                 (A) (A) (A) (A) (A) (A) (A) (A) (A) (A) (A) (A)
                 (A) (A) (A) (A) (A) (A) (A) (A) (A) (A) (A) (A)
                 (A) (A) (A) (A) (A) (A) (A) (A) (A) (A) (A) (A)
                 (A) (A) (A) (A) (A) (A) (A) (A) (A) (A) (A) (A)
                 (A) (A) (A) (A) (A) (A) (A) (A) (A) (A) (A) (A)
                 (A) (A) (A) (A) (A) (A) (A) (A) (A) (A) (A) (A)
                 (A) (A) (A) (A) (A) (A) (A) (A) (A) (A) (A) (A)
                 (A) (A) (A) (A) (A) (A) (A) (A) (A) (A) (A) (A)
                 (A) (A) (A) (A) (A) (A) (A) (A) (A) (A) (A) (A)
                 (A) (A) (A) (A) (A) (A) (A) (A) (A) (A) (A) (A)
                 (A) (A) (A) (A) (A) (A) (A) (A) (A) (A) (A) (A)
 The electronic state is 1-A.
 Alpha  occ. eigenvalues --  -14.37178 -14.37178 -14.37177 -14.37177 -14.37177
 Alpha  occ. eigenvalues --  -14.37177 -14.37176 -14.37176 -14.37175 -14.37174
 Alpha  occ. eigenvalues --  -14.37173 -14.37173 -10.26107 -10.26107 -10.26107
 Alpha  occ. eigenvalues --  -10.26106 -10.26106 -10.26106 -10.26103 -10.26102
 Alpha  occ. eigenvalues --  -10.26102 -10.26102 -10.26102 -10.26101 -10.24803
 Alpha  occ. eigenvalues --  -10.24802 -10.24802 -10.24799 -10.24798 -10.24798
 Alpha  occ. eigenvalues --  -10.24780 -10.24780 -10.24779 -10.24776 -10.24776
 Alpha  occ. eigenvalues --  -10.24775 -10.23646 -10.23646 -10.23646 -10.23643
 Alpha  occ. eigenvalues --  -10.23642 -10.23642 -10.23642 -10.23641 -10.23640
 Alpha  occ. eigenvalues --  -10.23640 -10.23639 -10.23638 -10.23162 -10.23162
 Alpha  occ. eigenvalues --  -10.23162 -10.23158 -10.23157 -10.23157 -10.23157
 Alpha  occ. eigenvalues --  -10.23155 -10.23151 -10.23151 -10.23150 -10.23149
 Alpha  occ. eigenvalues --  -10.21435 -10.21435 -10.21435 -10.21431 -10.21431
 Alpha  occ. eigenvalues --  -10.21431 -10.21411 -10.21411 -10.21411 -10.21408
 Alpha  occ. eigenvalues --  -10.21408 -10.21408 -10.21362 -10.21362 -10.21362
 Alpha  occ. eigenvalues --  -10.21360 -10.21360 -10.21360 -10.21359 -10.21358
 Alpha  occ. eigenvalues --  -10.21358 -10.21357 -10.21356 -10.21356  -0.97267
 Alpha  occ. eigenvalues --   -0.97153  -0.97152  -0.97152  -0.97086  -0.97086
 Alpha  occ. eigenvalues --   -0.94909  -0.94908  -0.94905  -0.94591  -0.94588
 Alpha  occ. eigenvalues --   -0.94587  -0.89883  -0.89287  -0.89287  -0.89286
 Alpha  occ. eigenvalues --   -0.85670  -0.85670  -0.85345  -0.85345  -0.85345
 Alpha  occ. eigenvalues --   -0.84805  -0.80507  -0.80507  -0.80437  -0.80436
 Alpha  occ. eigenvalues --   -0.80436  -0.80256  -0.80255  -0.80255  -0.76670
 Alpha  occ. eigenvalues --   -0.76670  -0.76668  -0.76582  -0.75968  -0.75966
[...]
 Alpha virt. eigenvalues --    4.28126   4.28127   4.28130   4.28794   4.29073
 Alpha virt. eigenvalues --    4.29073   4.29076   4.29572   4.29575   4.29578
 Alpha virt. eigenvalues --    4.29630   4.29631   4.30973   4.30974   4.31001
 Alpha virt. eigenvalues --    4.31020   4.31021   4.33412   4.33413   4.33421
 Alpha virt. eigenvalues --    4.33750   4.33750   4.34273   4.34275   4.34277
 Alpha virt. eigenvalues --    4.35810   4.36108   4.36110   4.36117   4.37284
 Alpha virt. eigenvalues --    4.37291   4.37292   4.37914   4.37915   4.37918
 Alpha virt. eigenvalues --    4.38729   4.38730   4.38742   4.39275   4.39277
 Alpha virt. eigenvalues --    4.39279   4.39568   4.39570   4.39624   4.40168
 Alpha virt. eigenvalues --    4.40170   4.40172   4.40281   4.40283   4.40284
 Alpha virt. eigenvalues --    4.40945   4.43806   4.43807   4.43811   4.44518
 Alpha virt. eigenvalues --    4.44520   4.45310   4.45311   4.45318   4.45974
 Alpha virt. eigenvalues --    4.45978   4.45979   4.50751   4.52153   4.52158
 Alpha virt. eigenvalues --    4.52180   4.53588   4.53591   4.53593   4.53743
 Alpha virt. eigenvalues --    4.53745   4.53747   4.55507   4.56026   4.56027
 Alpha virt. eigenvalues --    4.56542   4.56543   4.56555   4.59953   4.59956
 Alpha virt. eigenvalues --    4.60570   4.60584   4.60604   4.60607   4.61183
 Alpha virt. eigenvalues --    4.61184   4.61185   4.62094   4.62149   4.62150
 Alpha virt. eigenvalues --    4.62151   4.63398   4.63408   4.63412   4.63634
 Alpha virt. eigenvalues --    4.63637   4.63927   4.63940   4.63942   4.64257
 Alpha virt. eigenvalues --    4.64259   4.64278   4.65579   4.65581   4.65820
 Alpha virt. eigenvalues --    4.65822   4.65823   4.67669   4.68749   4.68756
 Alpha virt. eigenvalues --    4.68756   4.68937   4.68939   4.68985   4.68995
 Alpha virt. eigenvalues --    4.68996   4.69202   4.70672   4.70673   4.70676
 Alpha virt. eigenvalues --    4.71560   4.71561   4.71562   4.72865   4.72866
 Alpha virt. eigenvalues --    4.72918   4.72920   4.72933   4.74661   4.74754
 Alpha virt. eigenvalues --    4.74754   4.74757   4.76125   4.76139   4.76141
 Alpha virt. eigenvalues --    4.77121   4.79763   4.79765   4.80498   4.80499
 Alpha virt. eigenvalues --    4.80501   4.81950   4.81953   4.81956   4.83012
 Alpha virt. eigenvalues --    4.83014   4.83019   4.83146   4.83272   4.83272
 Alpha virt. eigenvalues --    4.83604   4.83608   4.83609   4.84535   4.85592
 Alpha virt. eigenvalues --    4.85594   4.85594   4.86119   4.86120   4.86127
 Alpha virt. eigenvalues --    4.87177   4.87198   4.87200   4.88835   4.88836
 Alpha virt. eigenvalues --    4.88850   4.89275   4.89276   4.90221   4.90228
 Alpha virt. eigenvalues --    4.90229   4.90484   4.90496   4.90497   4.92508
 Alpha virt. eigenvalues --    4.92526   4.92526   4.93422   4.93423   4.93434
 Alpha virt. eigenvalues --    4.94284   4.94284   4.94476   4.94485   4.94486
 Alpha virt. eigenvalues --    4.96373   4.96374   4.96379   4.97466   4.99792
 Alpha virt. eigenvalues --    4.99793   4.99798   5.03430   5.03431   5.03623
 Alpha virt. eigenvalues --    5.03628   5.03629   5.04671   5.04672   5.04673
 Alpha virt. eigenvalues --    5.05098   5.05319   5.05319   5.05327   5.06597
 Alpha virt. eigenvalues --    5.06607   5.06607   5.06989   5.06990   5.06998
 Alpha virt. eigenvalues --    5.07210   5.07210   5.07861   5.08067   5.08071
 Alpha virt. eigenvalues --    5.08072   5.10142   5.10143   5.10336   5.10354
 Alpha virt. eigenvalues --    5.10356   5.11073   5.11077   5.11096   5.11194
 Alpha virt. eigenvalues --    5.12092   5.12096   5.12097   5.12482   5.12483
 Alpha virt. eigenvalues --    5.14400   5.14401   5.14402   5.17033   5.17034
 Alpha virt. eigenvalues --    5.17037   5.18330   5.18402   5.18404   5.18406
 Alpha virt. eigenvalues --    5.21861   5.21866   5.21868   5.23242   5.23242
 Alpha virt. eigenvalues --    5.23389   5.23389   5.23393   5.26138   5.26139
 Alpha virt. eigenvalues --    5.26392   5.26393   5.26393   5.27229   5.27230
 Alpha virt. eigenvalues --    5.27234   5.31271   5.31272   5.31277   5.31739
 Alpha virt. eigenvalues --    5.36517   5.36519   5.36522   5.36583   5.36586
 Alpha virt. eigenvalues --    5.36588   5.39230   5.39243   5.39249   5.39418
 Alpha virt. eigenvalues --    5.40046   5.40051   5.40065   5.40529   5.40530
 Alpha virt. eigenvalues --    5.40860   5.40862   5.40870   5.43695   5.45265
 Alpha virt. eigenvalues --    5.45270   5.45272   5.46863   5.46864   5.46909
 Alpha virt. eigenvalues --    5.46910   5.46910   5.48003   5.48004   5.48010
 Alpha virt. eigenvalues --    5.48320   5.48321   5.48602   5.48610   5.48612
 Alpha virt. eigenvalues --    5.48917   5.50158   5.50167   5.50170   5.50649
 Alpha virt. eigenvalues --    5.50654   5.50654   5.51025   5.51027   5.53624
 Alpha virt. eigenvalues --    5.54264   5.54271   5.54276   5.58450   5.59552
 Alpha virt. eigenvalues --    5.59554   5.59557   5.65626   5.65633   5.65638
 Alpha virt. eigenvalues --    5.67353   5.70521   5.70732   5.70734   5.70738
 Alpha virt. eigenvalues --    5.71355   5.71358   5.71979   5.71983   5.72024
 Alpha virt. eigenvalues --    5.74470   5.74505   5.74510   5.79838   5.79842
 Alpha virt. eigenvalues --    5.79843   5.80270   5.80273   5.80361   5.80370
 Alpha virt. eigenvalues --    5.80371   5.83497   5.84397   5.84400   5.84415
 Alpha virt. eigenvalues --    5.96954   5.96954   5.97425   5.97426   5.97441
 Alpha virt. eigenvalues --    5.99228   5.99248   5.99251   6.01046   6.03039
 Alpha virt. eigenvalues --    6.03046   6.03048   6.03781   6.03783   6.09498
 Alpha virt. eigenvalues --    6.09500   6.09503   6.09875   6.09880   6.09886
 Alpha virt. eigenvalues --    6.12920   6.12927   6.12951   6.14274  22.43503
 Alpha virt. eigenvalues --   22.44656  22.44663  22.44697  22.56562  22.56637
 Alpha virt. eigenvalues --   22.56637  22.56638  22.56683  22.56683  22.59513
 Alpha virt. eigenvalues --   22.59517  22.59518  22.59532  22.59533  22.59535
 Alpha virt. eigenvalues --   22.63951  22.63954  22.63958  22.64064  22.64070
 Alpha virt. eigenvalues --   22.64071  22.68447  22.68449  22.68515  22.68516
 Alpha virt. eigenvalues --   22.68517  22.68614  22.84691  22.84696  22.85045
 Alpha virt. eigenvalues --   22.85047  22.85055  22.85764  22.89181  22.89194
 Alpha virt. eigenvalues --   22.89197  22.89436  22.89439  22.89904  22.89909
 Alpha virt. eigenvalues --   22.89912  22.93393  22.93394  22.93397  22.94736
 Alpha virt. eigenvalues --   22.94739  22.94740  22.98940  23.03673  23.03678
 Alpha virt. eigenvalues --   23.03685  23.14766  23.14770  23.15458  23.15459
 Alpha virt. eigenvalues --   23.15469  23.16684  23.16694  23.16695  23.16899
 Alpha virt. eigenvalues --   23.16908  23.16910  23.17448  23.17461  23.17466
 Alpha virt. eigenvalues --   23.17562  23.17564  23.51075  23.52124  23.52131
 Alpha virt. eigenvalues --   23.52149  32.81050  32.81056  32.81058  32.85204
 Alpha virt. eigenvalues --   32.87022  32.87027  32.87049  32.90204  32.90237
 Alpha virt. eigenvalues --   32.90242  32.91169  32.91172
          Condensed to atoms (all electrons):
 Mulliken charges:
               1
     1  C    0.365909
     2  C   -0.156865
     3  C   -0.342024
     4  C    0.365926
     5  H    0.114198
     6  C   -0.342133
     7  C    0.365876
     8  H    0.114204
     9  C   -0.342068
    10  C   -0.156822
    11  H    0.114213
    12  C   -0.156870
    13  H    0.071405
    14  H    0.071432
    15  H    0.071425
    16  C    0.365779
    17  C   -0.156922
    18  C   -0.341355
    19  C    0.365571
    20  H    0.114215
    21  C   -0.341806
    22  C    0.366055
    23  H    0.114226
    24  C   -0.342621
    25  C   -0.156784
    26  H    0.114162
    27  C   -0.156792
    28  H    0.071436
    29  H    0.071263
    30  H    0.071417
    31  C    0.365779
    32  C   -0.156875
    33  C   -0.341304
    34  C    0.365600
    35  H    0.114214
    36  C   -0.341977
    37  C    0.366111
    38  H    0.114208
    39  C   -0.342614
    40  C   -0.156778
    41  H    0.114175
    42  C   -0.156779
    43  H    0.071435
    44  H    0.071283
    45  H    0.071430
    46  C    0.365800
    47  C   -0.156919
    48  C   -0.341394
    49  C    0.365682
    50  H    0.114196
    51  C   -0.341925
    52  C    0.366007
    53  H    0.114209
    54  C   -0.342500
    55  C   -0.156786
    56  H    0.114177
    57  C   -0.156812
    58  H    0.071408
    59  H    0.071294
    60  H    0.071401
    61  C    0.047972
    62  C    0.048159
    63  N   -0.186861
    64  N   -0.186668
    65  C   -0.191416
    66  H    0.042334
    67  C   -0.169546
    68  H    0.108226
    69  H    0.102006
    70  C   -0.169531
    71  H    0.086462
    72  H    0.108176
    73  C   -0.191513
    74  H    0.108165
    75  H    0.086480
    76  H    0.102049
    77  H    0.108190
    78  H    0.042421
    79  C    0.048003
    80  C    0.048159
    81  N   -0.186825
    82  N   -0.186725
    83  C   -0.191462
    84  H    0.042344
    85  C   -0.169534
    86  H    0.108213
    87  H    0.102022
    88  C   -0.169488
    89  H    0.086469
    90  H    0.108162
    91  C   -0.191542
    92  H    0.108168
    93  H    0.086480
    94  H    0.102030
    95  H    0.108193
    96  H    0.042397
    97  C    0.047933
    98  C    0.048153
    99  N   -0.186809
   100  N   -0.186728
   101  C   -0.191387
   102  H    0.042328
   103  C   -0.169562
   104  H    0.108223
   105  H    0.102005
   106  C   -0.169466
   107  H    0.086461
   108  H    0.108175
   109  C   -0.191550
   110  H    0.108169
   111  H    0.086474
   112  H    0.102037
   113  H    0.108188
   114  H    0.042407
   115  C    0.047728
   116  C    0.047761
   117  N   -0.186873
   118  N   -0.186860
   119  C   -0.191393
   120  H    0.042441
   121  C   -0.169550
   122  H    0.108196
   123  H    0.102029
   124  C   -0.169516
   125  H    0.086489
   126  H    0.108172
   127  C   -0.191486
   128  H    0.108186
   129  H    0.086468
   130  H    0.102055
   131  H    0.108200
   132  H    0.042421
   133  C    0.047729
   134  C    0.047660
   135  N   -0.186878
   136  N   -0.186853
   137  C   -0.191422
   138  H    0.042406
   139  C   -0.169517
   140  H    0.108203
   141  H    0.102045
   142  C   -0.169564
   143  H    0.086483
   144  H    0.108177
   145  C   -0.191371
   146  H    0.108190
   147  H    0.086485
   148  H    0.102025
   149  H    0.108194
   150  H    0.042432
   151  C    0.047702
   152  C    0.047712
   153  N   -0.186861
   154  N   -0.186824
   155  C   -0.191321
   156  H    0.042438
   157  C   -0.169564
   158  H    0.108199
   159  H    0.102023
   160  C   -0.169499
   161  H    0.086469
   162  H    0.108184
   163  C   -0.191493
   164  H    0.108196
   165  H    0.086466
   166  H    0.102051
   167  H    0.108197
   168  H    0.042421
 Sum of Mulliken charges =   0.00000
 Mulliken charges with hydrogens summed into heavy atoms:
               1
     1  C    0.365909
     2  C   -0.085433
     3  C   -0.227826
     4  C    0.365926
     6  C   -0.227928
     7  C    0.365876
     9  C   -0.227855
    10  C   -0.085418
    12  C   -0.085444
    16  C    0.365779
    17  C   -0.085659
    18  C   -0.227140
    19  C    0.365571
    21  C   -0.227580
    22  C    0.366055
    24  C   -0.228459
    25  C   -0.085348
    27  C   -0.085374
    31  C    0.365779
    32  C   -0.085593
    33  C   -0.227090
    34  C    0.365600
    36  C   -0.227769
    37  C    0.366111
    39  C   -0.228439
    40  C   -0.085344
    42  C   -0.085350
    46  C    0.365800
    47  C   -0.085625
    48  C   -0.227198
    49  C    0.365682
    51  C   -0.227717
    52  C    0.366007
    54  C   -0.228323
    55  C   -0.085378
    57  C   -0.085411
    61  C    0.090392
    62  C    0.090493
    63  N   -0.186861
    64  N   -0.186668
    65  C    0.018816
    67  C    0.025092
    70  C    0.025114
    73  C    0.018726
    79  C    0.090400
    80  C    0.090502
    81  N   -0.186825
    82  N   -0.186725
    83  C    0.018773
    85  C    0.025097
    88  C    0.025160
    91  C    0.018681
    97  C    0.090339
    98  C    0.090481
    99  N   -0.186809
   100  N   -0.186728
   101  C    0.018841
   103  C    0.025074
   106  C    0.025177
   109  C    0.018675
   115  C    0.090149
   116  C    0.090202
   117  N   -0.186873
   118  N   -0.186860
   119  C    0.018833
   121  C    0.025111
   124  C    0.025138
   127  C    0.018769
   133  C    0.090160
   134  C    0.090066
   135  N   -0.186878
   136  N   -0.186853
   137  C    0.018827
   139  C    0.025143
   142  C    0.025111
   145  C    0.018848
   151  C    0.090123
   152  C    0.090150
   153  N   -0.186861
   154  N   -0.186824
   155  C    0.018901
   157  C    0.025090
   160  C    0.025162
   163  C    0.018756
 Electronic spatial extent (au):  <R**2>=          94423.4981
 Charge=              0.0000 electrons
 Dipole moment (field-independent basis, Debye):
    X=             -0.0166    Y=             -0.0004    Z=              0.0021  Tot=              0.0167
 Quadrupole moment (field-independent basis, Debye-Ang):
   XX=           -477.1518   YY=           -477.1825   ZZ=           -477.1815
   XY=             -0.0054   XZ=              0.0020   YZ=              0.0041
 Traceless Quadrupole moment (field-independent basis, Debye-Ang):
   XX=              0.0202   YY=             -0.0106   ZZ=             -0.0096
   XY=             -0.0054   XZ=              0.0020   YZ=              0.0041
 Octapole moment (field-independent basis, Debye-Ang**2):
  XXX=           -115.7683  YYY=            -82.9517  ZZZ=            -25.3016  XYY=             58.9047
  XXY=              1.3589  XXZ=             17.3563  XZZ=             56.0816  YZZ=             81.5993
  YYZ=              8.0338  XYZ=              6.0448
 Hexadecapole moment (field-independent basis, Debye-Ang**3):
 XXXX=         -43080.4318 YYYY=         -42696.1256 ZZZZ=         -42696.0527 XXXY=             -2.9500
 XXXZ=            116.0537 YYYX=            544.2506 YYYZ=            -39.6341 ZZZX=             -8.0855
 ZZZY=            122.5198 XXYY=         -13848.7283 XXZZ=         -13846.6834 YYZZ=         -14210.2988
 XXYZ=            -82.7618 YYXZ=           -107.7975 ZZXY=           -541.4585
 N-N= 1.421157463983D+04 E-N=-3.643774148881D+04  KE= 3.432350995018D+03
 Leave Link  601 at Mon Oct 18 00:35:13 2021, MaxMem=  7864320000 cpu:              78.6 elap:               3.2
 (Enter /apps/gaussian/g16-c01-avx/g16/l9999.exe)
 Unable to Open any file for archive entry.
 1\1\GINC-CX3-5-0\SP\RPBE1PBE\def2TZVP\C72H84N12\ROOT\18-Oct-2021\0\\#P
  PBE1PBE/Def2TZVP SP SCF=(YQC,MaxCycle=900) int=(Grid=Superfinegrid) E
 mpiricalDispersion=GD3\\_4_alde1_6_ami3_1_opt_gas\\0,1\C,0,-1.3617,-0.
 3363,4.0772\C,0,-2.7717,-0.698,4.1104\C,0,-0.985,1.0014,4.069\C,0,0.36
 28,1.3606,4.0764\H,0,-1.7234,1.7885,4.0711\C,0,1.333,0.3656,4.0819\C,0
 ,0.9701,-0.9813,4.0902\H,0,2.3838,0.6116,4.0942\C,0,-0.3767,-1.324,4.0
 827\C,0,1.9883,-2.0211,4.137\H,0,-0.6892,-2.357,4.0953\C,0,0.754,2.762
 8,4.1088\H,0,1.6278,-3.0508,3.9877\H,0,-3.4816,0.1284,3.9507\H,0,1.826
 2,2.964,3.9596\C,0,-3.5094,-2.4793,-0.0849\C,0,-3.7494,-3.0691,1.2245\
 C,0,-2.7304,-3.1513,-1.0193\C,0,-2.525,-2.616,-2.2909\H,0,-2.2809,-4.1
 048,-0.7878\C,0,-3.0996,-1.3931,-2.6161\C,0,-3.8839,-0.707,-1.6887\H,0
 ,-2.9645,-0.9559,-3.5935\C,0,-4.0799,-1.2528,-0.4257\C,0,-4.5174,0.554
 3,-2.0464\H,0,-4.6866,-0.7492,0.3113\C,0,-1.7421,-3.3422,-3.2807\H,0,-
 4.9882,1.1055,-1.2176\H,0,-3.1434,-3.9557,1.4677\H,0,-1.4986,-2.7868,-
 4.1997\C,0,3.9091,-1.8151,-0.0566\C,0,4.5371,-1.7139,1.2531\C,0,4.1037
 ,-0.8146,-1.0014\C,0,3.5401,-0.918,-2.2731\H,0,4.7043,0.0538,-0.778\C,
 0,2.7691,-2.0305,-2.5881\C,0,2.5649,-3.0427,-1.6502\H,0,2.325,-2.1426,
 -3.5653\C,0,3.1329,-2.926,-0.3871\C,0,1.7901,-4.2259,-1.9967\H,0,2.998
 4,-3.6953,0.3579\C,0,3.7799,0.1125,-3.2735\H,0,1.5466,-4.9002,-1.1611\
 H,0,5.0016,-0.7433,1.4868\H,0,3.1792,0.036,-4.1931\C,0,-0.376,4.2769,-
 0.1037\C,0,-0.7809,4.7842,1.1997\C,0,-1.3373,3.9348,-1.0472\C,0,-0.962
 6,3.4847,-2.3132\H,0,-2.3902,4.0229,-0.8274\C,0,0.3871,3.37,-2.6235\C,
 0,1.3634,3.7095,-1.6867\H,0,0.7087,3.0308,-3.5963\C,0,0.9751,4.1566,-0
 .4294\C,0,2.7763,3.6265,-2.0289\H,0,1.7065,4.433,0.3145\C,0,-1.9723,3.
 1661,-3.3128\H,0,3.48,3.7615,-1.1928\H,0,-1.8542,4.703,1.4319\H,0,-1.6
 033,2.674,-4.226\C,0,-4.5443,-2.1913,4.3828\C,0,-4.8392,-3.2296,3.2814
 \N,0,-3.1507,-1.8786,4.3373\N,0,-4.6179,-2.6088,2.0135\C,0,-6.3021,-3.
 6737,3.3641\H,0,-4.1721,-4.0966,3.4387\C,0,-6.6207,-4.2546,4.7363\H,0,
 -6.4896,-4.4137,2.5831\H,0,-6.9361,-2.8081,3.1644\C,0,-6.3269,-3.23,5.
 8268\H,0,-6.0128,-5.1468,4.9036\H,0,-7.6707,-4.5516,4.7737\C,0,-4.8717
 ,-2.7837,5.7562\H,0,-6.5311,-3.6594,6.8097\H,0,-6.9798,-2.3639,5.6961\
 H,0,-4.208,-3.632,5.9318\H,0,-4.6651,-2.0324,6.5214\H,0,-5.1736,-1.302
 5,4.195\C,0,4.1671,-2.8067,4.4228\C,0,5.2162,-2.5551,3.3208\N,0,3.1997
 ,-1.7567,4.3637\N,0,4.5706,-2.6876,2.0529\C,0,6.3318,-3.5993,3.4174\H,
 0,5.6333,-1.5424,3.4681\C,0,6.9912,-3.5699,4.7907\H,0,7.0681,-3.4003,2
 .6357\H,0,5.8994,-4.5832,3.2274\C,0,5.9546,-3.8157,5.8818\H,0,7.4598,-
 2.5957,4.9484\H,0,7.7732,-4.3305,4.8381\C,0,4.8409,-2.7793,5.7974\H,0,
 6.4265,-3.7672,6.8652\H,0,5.5311,-4.8154,5.7611\H,0,5.2435,-1.7785,5.9
 63\H,0,4.0852,-2.9674,6.5631\H,0,3.7123,-3.7981,4.2448\C,0,0.3435,5.04
 54,4.369\C,0,-0.397,5.8157,3.2571\N,0,-0.0814,3.6818,4.3239\N,0,0.0435
 ,5.3093,1.9956\C,0,-0.0517,7.3051,3.3382\H,0,-1.4829,5.6715,3.4036\C,0
 ,-0.41,7.8761,4.7047\H,0,-0.5909,7.8344,2.5497\H,0,1.0169,7.4212,3.149
 2\C,0,0.3194,7.1136,5.8056\H,0,-1.4883,7.7958,4.861\H,0,-0.1431,8.9342
 ,4.7411\C,0,-0.0202,5.6299,5.7366\H,0,0.0392,7.5085,6.7842\H,0,1.3971,
 7.2461,5.6856\H,0,-1.0885,5.4793,5.9018\H,0,0.5194,5.0782,6.5095\H,0,1
 .4298,5.1457,4.1921\C,0,-0.6426,-5.2277,-4.1067\C,0,0.7047,-5.6543,-3.
 4895\N,0,-1.3931,-4.5404,-3.1037\N,0,1.4478,-4.4724,-3.1845\C,0,1.4977
 ,-6.4886,-4.4991\H,0,0.4943,-6.2547,-2.5859\C,0,0.706,-7.7144,-4.9377\
 H,0,2.4433,-6.7881,-4.042\H,0,1.7268,-5.8592,-5.3608\C,0,-0.6279,-7.29
 43,-5.5457\H,0,0.5242,-8.3581,-4.074\H,0,1.2869,-8.2846,-5.6655\C,0,-1
 .4276,-6.4663,-4.5474\H,0,-1.2031,-8.1764,-5.834\H,0,-0.4459,-6.7026,-
 6.4459\H,0,-1.6568,-7.0613,-3.6617\H,0,-2.3732,-6.1444,-4.9889\H,0,-0.
 4325,-4.5835,-4.9797\C,0,-5.1958,2.203,-3.5526\C,0,-4.1459,3.154,-4.16
 23\N,0,-4.5473,0.9697,-3.2361\N,0,-3.1862,3.464,-3.1502\C,0,-4.821,4.4
 515,-4.6154\H,0,-3.6838,2.6464,-5.0284\C,0,-5.9272,4.1692,-5.6245\H,0,
 -4.0645,5.1076,-5.0513\H,0,-5.231,4.951,-3.7359\C,0,-6.9647,3.2267,-5.
 0239\H,0,-5.4963,3.7122,-6.5183\H,0,-6.4002,5.1074,-5.9216\C,0,-6.3041
 ,1.9298,-4.5731\H,0,-7.7412,3.0061,-5.7591\H,0,-7.4404,3.7095,-4.1671\
 H,0,-5.8645,1.4132,-5.4281\H,0,-7.0412,1.2626,-4.1212\H,0,-5.6201,2.68
 89,-2.6553\C,0,4.8653,1.9985,-4.1169\C,0,4.5597,3.385,-3.5148\N,0,4.64
 28,1.0155,-3.1041\N,0,3.1639,3.4408,-3.2138\C,0,4.8883,4.4784,-4.535\H
 ,0,5.1827,3.5123,-2.6109\C,0,6.3467,4.4009,-4.9693\H,0,4.6739,5.4517,-
 4.0884\H,0,4.2308,4.3532,-5.397\C,0,6.6512,3.0295,-5.5624\H,0,6.9931,4
 .5742,-4.1057\H,0,6.552,5.1815,-5.7046\C,0,6.3314,1.9333,-4.5535\H,0,7
 .7034,2.9693,-5.8476\H,0,6.0499,2.882,-6.4625\H,0,6.9592,2.0413,-3.667
 3\H,0,6.5264,0.9489,-4.9844\H,0,4.2043,1.8494,-4.9899\\Version=ES64L-G
 16RevC.01\State=1-A\HF=-3448.5022035\RMSD=6.755e-09\Dipole=0.0000171,0
 .0003626,-0.006575\Quadrupole=-0.0054299,-0.0091911,0.0146209,0.002028
 4,-0.0023397,0.0047447\PG=C01 [X(C72H84N12)]\\@
 The archive entry for this job was punched.


 The arm of the moral universe is long, but it bends toward justice.
 -- Martin Luther King, Jr.
 Job cpu time:       3 days  2 hours 57 minutes  2.2 seconds.
 Elapsed time:       0 days  2 hours 22 minutes 32.0 seconds.
 File lengths (MBytes):  RWF=   5520 Int=      0 D2E=      0 Chk=    568 Scr=     16
 Normal termination of Gaussian 16 at Mon Oct 18 00:35:14 2021.
