 Entering Gaussian System, Link 0=g16
 Initial command:
 /apps/gaussian/g16-c01-avx/g16/l1.exe "/rds/general/ephemeral/user/atarzia/ephemeral/Gau-1873654.inp" -scrdir="/rds/general/ephemeral/user/atarzia/ephemeral/"
 Entering Link 1 = /apps/gaussian/g16-c01-avx/g16/l1.exe PID=   1873655.
  
 Copyright (c) 1988-2019, Gaussian, Inc.  All Rights Reserved.
  
 This is part of the Gaussian(R) 16 program.  It is based on
 the Gaussian(R) 09 system (copyright 2009, Gaussian, Inc.),
 the Gaussian(R) 03 system (copyright 2003, Gaussian, Inc.),
 the Gaussian(R) 98 system (copyright 1998, Gaussian, Inc.),
 the Gaussian(R) 94 system (copyright 1995, Gaussian, Inc.),
 the Gaussian 92(TM) system (copyright 1992, Gaussian, Inc.),
 the Gaussian 90(TM) system (copyright 1990, Gaussian, Inc.),
 the Gaussian 88(TM) system (copyright 1988, Gaussian, Inc.),
 the Gaussian 86(TM) system (copyright 1986, Carnegie Mellon
 University), and the Gaussian 82(TM) system (copyright 1983,
 Carnegie Mellon University). Gaussian is a federally registered
 trademark of Gaussian, Inc.
  
 This software contains proprietary and confidential information,
 including trade secrets, belonging to Gaussian, Inc.
  
 This software is provided under written license and may be
 used, copied, transmitted, or stored only in accord with that
 written license.
  
 The following legend is applicable only to US Government
 contracts under FAR:
  
                    RESTRICTED RIGHTS LEGEND
  
 Use, reproduction and disclosure by the US Government is
 subject to restrictions as set forth in subparagraphs (a)
 and (c) of the Commercial Computer Software - Restricted
 Rights clause in FAR 52.227-19.
  
 Gaussian, Inc.
 340 Quinnipiac St., Bldg. 40, Wallingford CT 06492
  
  
 ---------------------------------------------------------------
 Warning -- This program may not be used in any manner that
 competes with the business of Gaussian, Inc. or will provide
 assistance to any competitor of Gaussian, Inc.  The licensee
 of this program is prohibited from giving any competitor of
 Gaussian, Inc. access to this program.  By using this program,
 the user acknowledges that Gaussian, Inc. is engaged in the
 business of creating and licensing software in the field of
 computational chemistry and represents and warrants to the
 licensee that it is not a competitor of Gaussian, Inc. and that
 it will not use this program in any manner prohibited above.
 ---------------------------------------------------------------
  

 Cite this work as:
 Gaussian 16, Revision C.01,
 M. J. Frisch, G. W. Trucks, H. B. Schlegel, G. E. Scuseria, 
 M. A. Robb, J. R. Cheeseman, G. Scalmani, V. Barone, 
 G. A. Petersson, H. Nakatsuji, X. Li, M. Caricato, A. V. Marenich, 
 J. Bloino, B. G. Janesko, R. Gomperts, B. Mennucci, H. P. Hratchian, 
 J. V. Ortiz, A. F. Izmaylov, J. L. Sonnenberg, D. Williams-Young, 
 F. Ding, F. Lipparini, F. Egidi, J. Goings, B. Peng, A. Petrone, 
 T. Henderson, D. Ranasinghe, V. G. Zakrzewski, J. Gao, N. Rega, 
 G. Zheng, W. Liang, M. Hada, M. Ehara, K. Toyota, R. Fukuda, 
 J. Hasegawa, M. Ishida, T. Nakajima, Y. Honda, O. Kitao, H. Nakai, 
 T. Vreven, K. Throssell, J. A. Montgomery, Jr., J. E. Peralta, 
 F. Ogliaro, M. J. Bearpark, J. J. Heyd, E. N. Brothers, K. N. Kudin, 
 V. N. Staroverov, T. A. Keith, R. Kobayashi, J. Normand, 
 K. Raghavachari, A. P. Rendell, J. C. Burant, S. S. Iyengar, 
 J. Tomasi, M. Cossi, J. M. Millam, M. Klene, C. Adamo, R. Cammi, 
 J. W. Ochterski, R. L. Martin, K. Morokuma, O. Farkas, 
 J. B. Foresman, and D. J. Fox, Gaussian, Inc., Wallingford CT, 2019.
 
 ******************************************
 Gaussian 16:  ES64L-G16RevC.01  3-Jul-2019
                17-Oct-2021 
 ******************************************
 %chk=_4_alde1_6_ami2_1_opt_gas.chk
 %mem=60000mb
 %nprocshared=32
 Will use up to   32 processors via shared memory.
 ----------------------------------------------------------------------
 #P PBE1PBE/Def2TZVP SP SCF=(YQC,MaxCycle=900) int=(Grid=Superfinegrid)
  EmpiricalDispersion=GD3
 ----------------------------------------------------------------------
 1/38=1,172=1/1;
 2/12=2,17=6,18=5,40=1/2;
 3/5=44,7=101,11=2,25=1,30=1,74=-13,75=-7,124=31/1,2,3;
 4//1;
 5/5=2,7=900,8=4,13=1,38=1/8,2,8;
 6/7=2,8=2,9=2,10=2,28=1/1;
 99/5=1,9=1/99;
 Leave Link    1 at Sun Oct 17 21:48:12 2021, MaxMem=  7864320000 cpu:               5.2 elap:               0.2
 (Enter /apps/gaussian/g16-c01-avx/g16/l101.exe)
 -------------------------
 _4_alde1_6_ami2_1_opt_gas
 -------------------------
 Symbolic Z-matrix:
 Charge =  0 Multiplicity = 1
 C                    -0.9449   -1.0282    4.0437 
 C                    -1.9641   -2.0721    4.0799 
 C                    -1.3055    0.3187    4.0697 
 C                    -0.3348    1.3129    4.0745 
 H                    -2.356     0.5648    4.101 
 C                     1.0119    0.9522    4.0421 
 C                     1.3874   -0.3854    4.0159 
 H                     1.7511    1.7388    4.053 
 C                     0.4011   -1.3713    4.0115 
 C                     2.8013   -0.7465    4.023 
 H                     0.713    -2.4046    3.9975 
 C                    -0.7286    2.7164    4.1421 
 H                     3.4894    0.0908    3.8568 
 H                    -1.5912   -3.0846    3.8858 
 H                    -1.7993    2.8998    3.9937 
 C                    -3.948    -1.6446   -0.083 
 C                    -4.544    -1.5206    1.2397 
 C                    -3.2155   -2.7806   -0.4276 
 C                    -2.6765   -2.9176   -1.7008 
 H                    -3.0908   -3.5541    0.3148 
 C                    -2.8669   -1.9004   -2.6356 
 C                    -3.5955   -0.7634   -2.3084 
 H                    -2.4461   -2.0287   -3.6213 
 C                    -4.1285   -0.6395   -1.0258 
 C                    -3.8194    0.2728   -3.3115 
 H                    -4.6962    0.2482   -0.7921 
 C                    -1.943    -4.128    -2.0568 
 H                    -3.2164    0.1682   -4.2211 
 H                    -4.9458   -0.5269    1.4925 
 H                    -1.7048   -4.7853   -1.2123 
 C                     3.3532   -2.499    -0.2104 
 C                     3.5679   -3.1322    1.0832 
 C                     3.9764   -1.2905   -0.5214 
 C                     3.8004   -0.7016   -1.7676 
 H                     4.6084   -0.8337    0.2248 
 C                     2.9824   -1.3261   -2.7084 
 C                     2.356    -2.5316   -2.4146 
 H                     2.863    -0.8566   -3.6728 
 C                     2.5421   -3.11     -1.1592 
 C                     1.5375   -3.1931   -3.4212 
 H                     2.053    -4.0489   -0.9495 
 C                     4.4892    0.5443   -2.0891 
 H                     1.2872   -2.5888   -4.3071 
 H                     2.9075   -3.9822    1.3156 
 H                     4.961     1.0415   -1.2335 
 C                     0.4643    4.214    -0.044 
 C                     0.9196    4.677     1.2596 
 C                    -0.8977    4.1375   -0.334 
 C                    -1.3338    3.73     -1.5892 
 H                    -1.6019    4.4164    0.4348 
 C                    -0.3937    3.3854   -2.56 
 C                     0.9671    3.4564   -2.2863 
 H                    -0.7493    3.0771   -3.5312 
 C                     1.3889    3.867    -1.022 
 C                     1.9373    3.1279   -3.3214 
 H                     2.4491    3.9224   -0.8282 
 C                    -2.7582    3.6896   -1.8895 
 H                     1.5305    2.639    -4.2204 
 H                     1.9904    4.5319    1.4718 
 H                    -3.4326    3.7937   -1.0252 
 C                    -4.2269   -2.7546    4.4189 
 C                    -5.2273   -2.3431    3.3095 
 N                    -3.1621   -1.7918    4.3482 
 C                    -3.838    -4.2241    4.2331 
 C                    -4.8934   -2.5537    5.7858 
 N                    -4.6262   -2.5017    2.0271 
 H                    -5.5639   -1.3101    3.4934 
 H                    -6.0875   -3.0176    3.3581 
 H                    -4.2124   -2.8631    6.5753 
 H                    -5.8053   -3.1412    5.855 
 H                    -5.1322   -1.5036    5.9307 
 H                    -3.4513   -4.3859    3.2306 
 H                    -4.7177   -4.8479    4.3669 
 H                    -3.0907   -4.5186    4.9676 
 C                     4.5286   -2.3753    4.276 
 C                     4.6607   -3.4016    3.1225 
 N                     3.1612   -1.9339    4.2382 
 C                     5.6038   -1.2958    4.1216 
 C                     4.7039   -3.1076    5.6124 
 N                     4.4776   -2.7506    1.8681 
 H                     3.9388   -4.2185    3.2836 
 H                     5.6766   -3.8074    3.1405 
 H                     4.6404   -2.3957    6.4321 
 H                     5.6694   -3.6054    5.6502 
 H                     3.9158   -3.8452    5.7368 
 H                     6.5857   -1.7498    4.2254 
 H                     5.4934   -0.5323    4.8894 
 H                     5.5386   -0.8392    3.1377 
 C                    -0.1797    5.0152    4.4796 
 C                     0.6257    5.6859    3.3382 
 N                     0.1218    3.6129    4.3847 
 C                    -1.6545    5.4106    4.3609 
 C                     0.3857    5.4837    5.8263 
 N                     0.1404    5.2406    2.0745 
 H                     1.6971    5.4704    3.4787 
 H                     0.4633    6.7664    3.3942 
 H                     0.3357    6.5667    5.9044 
 H                     1.4198    5.165     5.9248 
 H                    -0.1881    5.0434    6.6384 
 H                    -2.2497    4.9016    5.1168 
 H                    -2.0304    5.1654    3.3712 
 H                    -1.7518    6.4826    4.5097 
 C                    -0.9389   -5.5418   -3.6973 
 C                     0.3808   -5.0091   -4.3105 
 N                    -1.6517   -4.3739   -3.2569 
 C                    -0.6156   -6.592    -2.6307 
 C                    -1.7876   -6.1653   -4.8125 
 N                     1.1736   -4.3937   -3.2986 
 H                     0.1423   -4.3206   -5.1372 
 H                     0.9444   -5.8617   -4.7011 
 H                    -2.0512   -5.4073   -5.545 
 H                    -2.705    -6.5707   -4.3923 
 H                    -1.2408   -6.9649   -5.3055 
 H                     0.069    -6.1805   -1.8939 
 H                    -0.1393   -7.4475   -3.1021 
 H                    -1.5254   -6.9309   -2.1386 
 C                    -4.9619    2.2325   -4.0553 
 C                    -4.5885    3.546    -3.3224 
 N                    -4.6707    1.1806   -3.12 
 C                    -4.2328    2.1768   -5.4009 
 C                    -6.4795    2.2017   -4.2751 
 N                    -3.1864    3.5782   -3.0698 
 H                    -5.1855    3.6254   -2.3996 
 H                    -4.8272    4.3857   -3.9817 
 H                    -6.7989    3.0681   -4.8485 
 H                    -6.9925    2.1974   -3.3173 
 H                    -6.7538    1.2988   -4.8156 
 H                    -4.5834    2.9883   -6.0329 
 H                    -4.4332    1.2341   -5.9067 
 H                    -3.1626    2.2938   -5.253 
 C                     5.1983    2.1754   -3.681 
 C                     4.075     3.0826   -4.2442 
 N                     4.539     0.9644   -3.2751 
 C                     5.9684    2.9347   -2.5968 
 C                     6.1422    1.7862   -4.8255 
 N                     3.1583    3.4191   -3.2062 
 H                     3.5869    2.5695   -5.0884 
 H                     4.5311    4.0113   -4.5995 
 H                     6.9545    1.1749   -4.4395 
 H                     6.5593    2.674    -5.2937 
 H                     5.6023    1.2085   -5.5707 
 H                     6.4705    3.7883   -3.0443 
 H                     6.7194    2.2931   -2.1397 
 H                     5.284     3.299    -1.8354 
 
 ITRead=  0  0  0  0  0  0  0  0  0  0  0  0  0  0  0  0  0  0  0  0
 ITRead=  0  0  0  0  0  0  0  0  0  0  0  0  0  0  0  0  0  0  0  0
 ITRead=  0  0  0  0  0  0  0  0  0  0  0  0  0  0  0  0  0  0  0  0
 ITRead=  0  0  0  0  0  0  0  0  0  0  0  0  0  0  0  0  0  0  0  0
 ITRead=  0  0  0  0  0  0  0  0  0  0  0  0  0  0  0  0  0  0  0  0
 ITRead=  0  0  0  0  0  0  0  0  0  0  0  0  0  0  0  0  0  0  0  0
 ITRead=  0  0  0  0  0  0  0  0  0  0  0  0  0  0  0  0  0  0  0  0
 ITRead=  0  0  0  0
 MicOpt= -1 -1 -1 -1 -1 -1 -1 -1 -1 -1 -1 -1 -1 -1 -1 -1 -1 -1 -1 -1
 MicOpt= -1 -1 -1 -1 -1 -1 -1 -1 -1 -1 -1 -1 -1 -1 -1 -1 -1 -1 -1 -1
 MicOpt= -1 -1 -1 -1 -1 -1 -1 -1 -1 -1 -1 -1 -1 -1 -1 -1 -1 -1 -1 -1
 MicOpt= -1 -1 -1 -1 -1 -1 -1 -1 -1 -1 -1 -1 -1 -1 -1 -1 -1 -1 -1 -1
 MicOpt= -1 -1 -1 -1 -1 -1 -1 -1 -1 -1 -1 -1 -1 -1 -1 -1 -1 -1 -1 -1
 MicOpt= -1 -1 -1 -1 -1 -1 -1 -1 -1 -1 -1 -1 -1 -1 -1 -1 -1 -1 -1 -1
 MicOpt= -1 -1 -1 -1 -1 -1 -1 -1 -1 -1 -1 -1 -1 -1 -1 -1 -1 -1 -1 -1
 MicOpt= -1 -1 -1 -1
 NAtoms=    144 NQM=      144 NQMF=       0 NMMI=      0 NMMIF=      0
                NMic=       0 NMicF=      0.
                    Isotopes and Nuclear Properties:
 (Nuclear quadrupole moments (NQMom) in fm**2, nuclear magnetic moments (NMagM)
  in nuclear magnetons)

  Atom         1           2           3           4           5           6           7           8           9          10
 IAtWgt=          12          12          12          12           1          12          12           1          12          12
 AtmWgt=  12.0000000  12.0000000  12.0000000  12.0000000   1.0078250  12.0000000  12.0000000   1.0078250  12.0000000  12.0000000
 NucSpn=           0           0           0           0           1           0           0           1           0           0
 AtZEff=  -0.0000000  -0.0000000  -0.0000000  -0.0000000  -0.0000000  -0.0000000  -0.0000000  -0.0000000  -0.0000000  -0.0000000
 NQMom=    0.0000000   0.0000000   0.0000000   0.0000000   0.0000000   0.0000000   0.0000000   0.0000000   0.0000000   0.0000000
 NMagM=    0.0000000   0.0000000   0.0000000   0.0000000   2.7928460   0.0000000   0.0000000   2.7928460   0.0000000   0.0000000
 AtZNuc=   6.0000000   6.0000000   6.0000000   6.0000000   1.0000000   6.0000000   6.0000000   1.0000000   6.0000000   6.0000000

  Atom        11          12          13          14          15          16          17          18          19          20
 IAtWgt=           1          12           1           1           1          12          12          12          12           1
 AtmWgt=   1.0078250  12.0000000   1.0078250   1.0078250   1.0078250  12.0000000  12.0000000  12.0000000  12.0000000   1.0078250
 NucSpn=           1           0           1           1           1           0           0           0           0           1
 AtZEff=  -0.0000000  -0.0000000  -0.0000000  -0.0000000  -0.0000000  -0.0000000  -0.0000000  -0.0000000  -0.0000000  -0.0000000
 NQMom=    0.0000000   0.0000000   0.0000000   0.0000000   0.0000000   0.0000000   0.0000000   0.0000000   0.0000000   0.0000000
 NMagM=    2.7928460   0.0000000   2.7928460   2.7928460   2.7928460   0.0000000   0.0000000   0.0000000   0.0000000   2.7928460
 AtZNuc=   1.0000000   6.0000000   1.0000000   1.0000000   1.0000000   6.0000000   6.0000000   6.0000000   6.0000000   1.0000000

  Atom        21          22          23          24          25          26          27          28          29          30
 IAtWgt=          12          12           1          12          12           1          12           1           1           1
 AtmWgt=  12.0000000  12.0000000   1.0078250  12.0000000  12.0000000   1.0078250  12.0000000   1.0078250   1.0078250   1.0078250
 NucSpn=           0           0           1           0           0           1           0           1           1           1
 AtZEff=  -0.0000000  -0.0000000  -0.0000000  -0.0000000  -0.0000000  -0.0000000  -0.0000000  -0.0000000  -0.0000000  -0.0000000
 NQMom=    0.0000000   0.0000000   0.0000000   0.0000000   0.0000000   0.0000000   0.0000000   0.0000000   0.0000000   0.0000000
 NMagM=    0.0000000   0.0000000   2.7928460   0.0000000   0.0000000   2.7928460   0.0000000   2.7928460   2.7928460   2.7928460
 AtZNuc=   6.0000000   6.0000000   1.0000000   6.0000000   6.0000000   1.0000000   6.0000000   1.0000000   1.0000000   1.0000000

  Atom        31          32          33          34          35          36          37          38          39          40
 IAtWgt=          12          12          12          12           1          12          12           1          12          12
 AtmWgt=  12.0000000  12.0000000  12.0000000  12.0000000   1.0078250  12.0000000  12.0000000   1.0078250  12.0000000  12.0000000
 NucSpn=           0           0           0           0           1           0           0           1           0           0
 AtZEff=  -0.0000000  -0.0000000  -0.0000000  -0.0000000  -0.0000000  -0.0000000  -0.0000000  -0.0000000  -0.0000000  -0.0000000
 NQMom=    0.0000000   0.0000000   0.0000000   0.0000000   0.0000000   0.0000000   0.0000000   0.0000000   0.0000000   0.0000000
 NMagM=    0.0000000   0.0000000   0.0000000   0.0000000   2.7928460   0.0000000   0.0000000   2.7928460   0.0000000   0.0000000
 AtZNuc=   6.0000000   6.0000000   6.0000000   6.0000000   1.0000000   6.0000000   6.0000000   1.0000000   6.0000000   6.0000000

  Atom        41          42          43          44          45          46          47          48          49          50
 IAtWgt=           1          12           1           1           1          12          12          12          12           1
 AtmWgt=   1.0078250  12.0000000   1.0078250   1.0078250   1.0078250  12.0000000  12.0000000  12.0000000  12.0000000   1.0078250
 NucSpn=           1           0           1           1           1           0           0           0           0           1
 AtZEff=  -0.0000000  -0.0000000  -0.0000000  -0.0000000  -0.0000000  -0.0000000  -0.0000000  -0.0000000  -0.0000000  -0.0000000
 NQMom=    0.0000000   0.0000000   0.0000000   0.0000000   0.0000000   0.0000000   0.0000000   0.0000000   0.0000000   0.0000000
 NMagM=    2.7928460   0.0000000   2.7928460   2.7928460   2.7928460   0.0000000   0.0000000   0.0000000   0.0000000   2.7928460
 AtZNuc=   1.0000000   6.0000000   1.0000000   1.0000000   1.0000000   6.0000000   6.0000000   6.0000000   6.0000000   1.0000000

  Atom        51          52          53          54          55          56          57          58          59          60
 IAtWgt=          12          12           1          12          12           1          12           1           1           1
 AtmWgt=  12.0000000  12.0000000   1.0078250  12.0000000  12.0000000   1.0078250  12.0000000   1.0078250   1.0078250   1.0078250
 NucSpn=           0           0           1           0           0           1           0           1           1           1
 AtZEff=  -0.0000000  -0.0000000  -0.0000000  -0.0000000  -0.0000000  -0.0000000  -0.0000000  -0.0000000  -0.0000000  -0.0000000
 NQMom=    0.0000000   0.0000000   0.0000000   0.0000000   0.0000000   0.0000000   0.0000000   0.0000000   0.0000000   0.0000000
 NMagM=    0.0000000   0.0000000   2.7928460   0.0000000   0.0000000   2.7928460   0.0000000   2.7928460   2.7928460   2.7928460
 AtZNuc=   6.0000000   6.0000000   1.0000000   6.0000000   6.0000000   1.0000000   6.0000000   1.0000000   1.0000000   1.0000000

  Atom        61          62          63          64          65          66          67          68          69          70
 IAtWgt=          12          12          14          12          12          14           1           1           1           1
 AtmWgt=  12.0000000  12.0000000  14.0030740  12.0000000  12.0000000  14.0030740   1.0078250   1.0078250   1.0078250   1.0078250
 NucSpn=           0           0           2           0           0           2           1           1           1           1
 AtZEff=  -0.0000000  -0.0000000  -0.0000000  -0.0000000  -0.0000000  -0.0000000  -0.0000000  -0.0000000  -0.0000000  -0.0000000
 NQMom=    0.0000000   0.0000000   2.0440000   0.0000000   0.0000000   2.0440000   0.0000000   0.0000000   0.0000000   0.0000000
 NMagM=    0.0000000   0.0000000   0.4037610   0.0000000   0.0000000   0.4037610   2.7928460   2.7928460   2.7928460   2.7928460
 AtZNuc=   6.0000000   6.0000000   7.0000000   6.0000000   6.0000000   7.0000000   1.0000000   1.0000000   1.0000000   1.0000000

  Atom        71          72          73          74          75          76          77          78          79          80
 IAtWgt=           1           1           1           1          12          12          14          12          12          14
 AtmWgt=   1.0078250   1.0078250   1.0078250   1.0078250  12.0000000  12.0000000  14.0030740  12.0000000  12.0000000  14.0030740
 NucSpn=           1           1           1           1           0           0           2           0           0           2
 AtZEff=  -0.0000000  -0.0000000  -0.0000000  -0.0000000  -0.0000000  -0.0000000  -0.0000000  -0.0000000  -0.0000000  -0.0000000
 NQMom=    0.0000000   0.0000000   0.0000000   0.0000000   0.0000000   0.0000000   2.0440000   0.0000000   0.0000000   2.0440000
 NMagM=    2.7928460   2.7928460   2.7928460   2.7928460   0.0000000   0.0000000   0.4037610   0.0000000   0.0000000   0.4037610
 AtZNuc=   1.0000000   1.0000000   1.0000000   1.0000000   6.0000000   6.0000000   7.0000000   6.0000000   6.0000000   7.0000000

  Atom        81          82          83          84          85          86          87          88          89          90
 IAtWgt=           1           1           1           1           1           1           1           1          12          12
 AtmWgt=   1.0078250   1.0078250   1.0078250   1.0078250   1.0078250   1.0078250   1.0078250   1.0078250  12.0000000  12.0000000
 NucSpn=           1           1           1           1           1           1           1           1           0           0
 AtZEff=  -0.0000000  -0.0000000  -0.0000000  -0.0000000  -0.0000000  -0.0000000  -0.0000000  -0.0000000  -0.0000000  -0.0000000
 NQMom=    0.0000000   0.0000000   0.0000000   0.0000000   0.0000000   0.0000000   0.0000000   0.0000000   0.0000000   0.0000000
 NMagM=    2.7928460   2.7928460   2.7928460   2.7928460   2.7928460   2.7928460   2.7928460   2.7928460   0.0000000   0.0000000
 AtZNuc=   1.0000000   1.0000000   1.0000000   1.0000000   1.0000000   1.0000000   1.0000000   1.0000000   6.0000000   6.0000000

  Atom        91          92          93          94          95          96          97          98          99         100
 IAtWgt=          14          12          12          14           1           1           1           1           1           1
 AtmWgt=  14.0030740  12.0000000  12.0000000  14.0030740   1.0078250   1.0078250   1.0078250   1.0078250   1.0078250   1.0078250
 NucSpn=           2           0           0           2           1           1           1           1           1           1
 AtZEff=  -0.0000000  -0.0000000  -0.0000000  -0.0000000  -0.0000000  -0.0000000  -0.0000000  -0.0000000  -0.0000000  -0.0000000
 NQMom=    2.0440000   0.0000000   0.0000000   2.0440000   0.0000000   0.0000000   0.0000000   0.0000000   0.0000000   0.0000000
 NMagM=    0.4037610   0.0000000   0.0000000   0.4037610   2.7928460   2.7928460   2.7928460   2.7928460   2.7928460   2.7928460
 AtZNuc=   7.0000000   6.0000000   6.0000000   7.0000000   1.0000000   1.0000000   1.0000000   1.0000000   1.0000000   1.0000000

  Atom       101         102         103         104         105         106         107         108         109         110
 IAtWgt=           1           1          12          12          14          12          12          14           1           1
 AtmWgt=   1.0078250   1.0078250  12.0000000  12.0000000  14.0030740  12.0000000  12.0000000  14.0030740   1.0078250   1.0078250
 NucSpn=           1           1           0           0           2           0           0           2           1           1
 AtZEff=  -0.0000000  -0.0000000  -0.0000000  -0.0000000  -0.0000000  -0.0000000  -0.0000000  -0.0000000  -0.0000000  -0.0000000
 NQMom=    0.0000000   0.0000000   0.0000000   0.0000000   2.0440000   0.0000000   0.0000000   2.0440000   0.0000000   0.0000000
 NMagM=    2.7928460   2.7928460   0.0000000   0.0000000   0.4037610   0.0000000   0.0000000   0.4037610   2.7928460   2.7928460
 AtZNuc=   1.0000000   1.0000000   6.0000000   6.0000000   7.0000000   6.0000000   6.0000000   7.0000000   1.0000000   1.0000000

  Atom       111         112         113         114         115         116         117         118         119         120
 IAtWgt=           1           1           1           1           1           1          12          12          14          12
 AtmWgt=   1.0078250   1.0078250   1.0078250   1.0078250   1.0078250   1.0078250  12.0000000  12.0000000  14.0030740  12.0000000
 NucSpn=           1           1           1           1           1           1           0           0           2           0
 AtZEff=  -0.0000000  -0.0000000  -0.0000000  -0.0000000  -0.0000000  -0.0000000  -0.0000000  -0.0000000  -0.0000000  -0.0000000
 NQMom=    0.0000000   0.0000000   0.0000000   0.0000000   0.0000000   0.0000000   0.0000000   0.0000000   2.0440000   0.0000000
 NMagM=    2.7928460   2.7928460   2.7928460   2.7928460   2.7928460   2.7928460   0.0000000   0.0000000   0.4037610   0.0000000
 AtZNuc=   1.0000000   1.0000000   1.0000000   1.0000000   1.0000000   1.0000000   6.0000000   6.0000000   7.0000000   6.0000000

  Atom       121         122         123         124         125         126         127         128         129         130
 IAtWgt=          12          14           1           1           1           1           1           1           1           1
 AtmWgt=  12.0000000  14.0030740   1.0078250   1.0078250   1.0078250   1.0078250   1.0078250   1.0078250   1.0078250   1.0078250
 NucSpn=           0           2           1           1           1           1           1           1           1           1
 AtZEff=  -0.0000000  -0.0000000  -0.0000000  -0.0000000  -0.0000000  -0.0000000  -0.0000000  -0.0000000  -0.0000000  -0.0000000
 NQMom=    0.0000000   2.0440000   0.0000000   0.0000000   0.0000000   0.0000000   0.0000000   0.0000000   0.0000000   0.0000000
 NMagM=    0.0000000   0.4037610   2.7928460   2.7928460   2.7928460   2.7928460   2.7928460   2.7928460   2.7928460   2.7928460
 AtZNuc=   6.0000000   7.0000000   1.0000000   1.0000000   1.0000000   1.0000000   1.0000000   1.0000000   1.0000000   1.0000000

  Atom       131         132         133         134         135         136         137         138         139         140
 IAtWgt=          12          12          14          12          12          14           1           1           1           1
 AtmWgt=  12.0000000  12.0000000  14.0030740  12.0000000  12.0000000  14.0030740   1.0078250   1.0078250   1.0078250   1.0078250
 NucSpn=           0           0           2           0           0           2           1           1           1           1
 AtZEff=  -0.0000000  -0.0000000  -0.0000000  -0.0000000  -0.0000000  -0.0000000  -0.0000000  -0.0000000  -0.0000000  -0.0000000
 NQMom=    0.0000000   0.0000000   2.0440000   0.0000000   0.0000000   2.0440000   0.0000000   0.0000000   0.0000000   0.0000000
 NMagM=    0.0000000   0.0000000   0.4037610   0.0000000   0.0000000   0.4037610   2.7928460   2.7928460   2.7928460   2.7928460
 AtZNuc=   6.0000000   6.0000000   7.0000000   6.0000000   6.0000000   7.0000000   1.0000000   1.0000000   1.0000000   1.0000000

  Atom       141         142         143         144
 IAtWgt=           1           1           1           1
 AtmWgt=   1.0078250   1.0078250   1.0078250   1.0078250
 NucSpn=           1           1           1           1
 AtZEff=  -0.0000000  -0.0000000  -0.0000000  -0.0000000
 NQMom=    0.0000000   0.0000000   0.0000000   0.0000000
 NMagM=    2.7928460   2.7928460   2.7928460   2.7928460
 AtZNuc=   1.0000000   1.0000000   1.0000000   1.0000000
 Leave Link  101 at Sun Oct 17 21:48:12 2021, MaxMem=  7864320000 cpu:               3.2 elap:               0.1
 (Enter /apps/gaussian/g16-c01-avx/g16/l202.exe)
 Stoichiometry    C60H72N12
 Framework group  C1[X(C60H72N12)]
 Deg. of freedom   426
 Full point group                 C1      NOp   1
 Largest Abelian subgroup         C1      NOp   1
 Largest concise Abelian subgroup C1      NOp   1
                         Standard orientation:                         
 ---------------------------------------------------------------------
 Center     Atomic      Atomic             Coordinates (Angstroms)
 Number     Number       Type             X           Y           Z
 ---------------------------------------------------------------------
      1          6           0        2.904012   -2.914415   -0.809084
      2          6           0        2.276315   -4.089524   -1.404837
      3          6           0        3.073170   -2.822056    0.572112
      4          6           0        3.705551   -1.721401    1.137238
      5          1           0        2.713348   -3.634207    1.185329
      6          6           0        4.163626   -0.697449    0.308719
      7          6           0        4.002615   -0.774570   -1.069319
      8          1           0        4.658093    0.146139    0.766035
      9          6           0        3.365861   -1.885863   -1.621024
     10          6           0        4.523618    0.286356   -1.925208
     11          1           0        3.256149   -1.930284   -2.693953
     12          6           0        3.909870   -1.659234    2.580793
     13          1           0        4.851982    1.186302   -1.391870
     14          1           0        2.038390   -3.992172   -2.470576
     15          1           0        3.369568   -2.422161    3.153570
     16          6           0       -2.126348   -3.642909   -0.039023
     17          6           0       -1.185749   -4.723915    0.219488
     18          6           0       -2.372779   -3.213374   -1.343083
     19          6           0       -3.296671   -2.206882   -1.595521
     20          1           0       -1.838208   -3.691973   -2.149425
     21          6           0       -3.974257   -1.618974   -0.527794
     22          6           0       -3.741274   -2.036767    0.776757
     23          1           0       -4.692967   -0.843509   -0.745157
     24          6           0       -2.809485   -3.046645    1.014290
     25          6           0       -4.488841   -1.438728    1.878367
     26          1           0       -2.646249   -3.361618    2.033631
     27          6           0       -3.569170   -1.793437   -2.968341
     28          1           0       -5.058724   -0.540966    1.611574
     29          1           0       -0.912488   -4.878557    1.275047
     30          1           0       -2.871325   -2.191252   -3.714477
     31          6           0        0.643165    2.215742   -3.511739
     32          6           0        1.731615    1.593819   -4.252636
     33          6           0        0.898937    3.241418   -2.601716
     34          6           0       -0.141330    3.859798   -1.918895
     35          1           0        1.922347    3.550423   -2.453216
     36          6           0       -1.451285    3.438086   -2.143403
     37          6           0       -1.722873    2.418769   -3.048477
     38          1           0       -2.246207    3.934692   -1.608394
     39          6           0       -0.667941    1.807571   -3.725799
     40          6           0       -3.099120    2.016592   -3.303362
     41          1           0       -0.896812    1.021680   -4.429163
     42          6           0        0.141065    4.956035   -0.997704
     43          1           0       -3.850204    2.408017   -2.599583
     44          1           0        1.470340    0.681810   -4.811756
     45          1           0        1.202297    5.092695   -0.759030
     46          6           0        1.059542    1.753427    3.771852
     47          6           0        2.500458    1.654830    3.959146
     48          6           0        0.214648    0.737840    4.218768
     49          6           0       -1.163330    0.846161    4.073135
     50          1           0        0.656638   -0.125191    4.692644
     51          6           0       -1.698378    1.980411    3.463061
     52          6           0       -0.869548    3.001043    3.012418
     53          1           0       -2.770671    2.051252    3.363563
     54          6           0        0.511109    2.877500    3.165668
     55          6           0       -1.444953    4.195409    2.409897
     56          1           0        1.139764    3.681871    2.815765
     57          6           0       -2.035544   -0.205494    4.577110
     58          1           0       -2.515200    4.135611    2.157495
     59          1           0        3.105411    2.399223    3.418214
     60          1           0       -1.535659   -1.141248    4.872317
     61          6           0        1.471979   -6.330429   -1.224886
     62          6           0        0.166129   -6.513388   -0.411140
     63          7           0        2.070558   -5.125537   -0.719199
     64          6           0        1.146998   -6.360683   -2.721103
     65          6           0        2.438829   -7.467701   -0.871599
     66          7           0       -0.744518   -5.457531   -0.705951
     67          1           0        0.414880   -6.569682    0.660850
     68          1           0       -0.302076   -7.451787   -0.723305
     69          1           0        3.351461   -7.368111   -1.454681
     70          1           0        1.986251   -8.432617   -1.085180
     71          1           0        2.698178   -7.419373    0.182504
     72          1           0        0.391754   -5.615611   -2.956041
     73          1           0        0.756773   -7.340248   -2.983930
     74          1           0        2.042415   -6.175704   -3.311601
     75          6           0        5.112373    1.111261   -4.087028
     76          6           0        3.925963    1.457347   -5.021886
     77          7           0        4.601675    0.127442   -3.171969
     78          6           0        5.667493    2.399233   -3.472063
     79          6           0        6.199990    0.406776   -4.907850
     80          7           0        2.889232    2.092318   -4.278350
     81          1           0        3.583409    0.537891   -5.523561
     82          1           0        4.279286    2.169689   -5.773406
     83          1           0        7.052000    0.180810   -4.270856
     84          1           0        6.529188    1.040412   -5.727336
     85          1           0        5.814845   -0.526499   -5.309460
     86          1           0        6.071349    3.028463   -4.260725
     87          1           0        6.465526    2.174321   -2.766942
     88          1           0        4.875354    2.946118   -2.967854
     89          6           0        4.946175   -0.674320    4.492780
     90          6           0        4.428954    0.732978    4.884309
     91          7           0        4.679283   -0.799791    3.085876
     92          6           0        4.308951   -1.722827    5.409320
     93          6           0        6.472535   -0.700298    4.642184
     94          7           0        3.014444    0.793181    4.722192
     95          1           0        4.955499    1.490592    4.281938
     96          1           0        4.648937    0.895708    5.943609
     97          1           0        6.759787   -0.454034    5.661169
     98          1           0        6.923609    0.015268    3.960178
     99          1           0        6.848376   -1.691157    4.398138
    100          1           0        4.611147   -2.725511    5.112620
    101          1           0        3.225801   -1.641182    5.376914
    102          1           0        4.636085   -1.552434    6.431447
    103          6           0       -4.903070   -0.610643   -4.555791
    104          6           0       -4.769767    0.932632   -4.511929
    105          7           0       -4.557004   -1.059471   -3.234875
    106          6           0       -4.060923   -1.160403   -5.710620
    107          6           0       -6.379168   -0.975249   -4.758063
    108          7           0       -3.409862    1.297181   -4.290672
    109          1           0       -5.445175    1.331151   -3.737750
    110          1           0       -5.065017    1.328735   -5.488182
    111          1           0       -6.966873   -0.621150   -3.915554
    112          1           0       -6.484938   -2.055721   -4.820769
    113          1           0       -6.759861   -0.528890   -5.673069
    114          1           0       -3.033682   -0.816920   -5.622979
    115          1           0       -4.464625   -0.799449   -6.652797
    116          1           0       -4.085523   -2.248559   -5.718536
    117          6           0       -5.190303   -1.447998    4.160215
    118          6           0       -4.097850   -1.090420    5.199704
    119          7           0       -4.477561   -1.962951    3.023158
    120          6           0       -6.079966   -0.225346    3.917418
    121          6           0       -6.028760   -2.612036    4.702780
    122          7           0       -3.278799   -0.037214    4.699064
    123          1           0       -3.519404   -1.996986    5.440144
    124          1           0       -4.592604   -0.725716    6.104668
    125          1           0       -6.475964   -2.346772    5.657294
    126          1           0       -5.402705   -3.490538    4.832620
    127          1           0       -6.819420   -2.855137    3.996829
    128          1           0       -6.603998    0.025234    4.835829
    129          1           0       -6.817819   -0.435460    3.145342
    130          1           0       -5.473866    0.627430    3.623637
    131          6           0       -0.600603    6.783804    0.346411
    132          6           0       -1.367897    6.389840    1.634068
    133          7           0       -0.788608    5.682678   -0.558093
    134          6           0        0.845202    7.138550    0.705417
    135          6           0       -1.296755    7.989774   -0.296483
    136          7           0       -0.765671    5.240869    2.224156
    137          1           0       -2.429471    6.229520    1.385983
    138          1           0       -1.283272    7.213988    2.348467
    139          1           0       -0.750717    8.298103   -1.184904
    140          1           0       -1.336918    8.822580    0.400793
    141          1           0       -2.307294    7.720439   -0.591137
    142          1           0        0.851434    8.021830    1.338483
    143          1           0        1.421316    7.353427   -0.192643
    144          1           0        1.307897    6.321023    1.251686
 ---------------------------------------------------------------------
 Rotational constants (GHZ):           0.0242408           0.0234409           0.0227009
 Leave Link  202 at Sun Oct 17 21:48:12 2021, MaxMem=  7864320000 cpu:               0.2 elap:               0.0
 (Enter /apps/gaussian/g16-c01-avx/g16/l301.exe)
 Standard basis: def2TZVP (5D, 7F)
 Ernie: Thresh=  0.10000D-02 Tol=  0.10000D-05 Strict=F.
 There are  3024 symmetry adapted cartesian basis functions of A   symmetry.
 There are  2664 symmetry adapted basis functions of A   symmetry.
  2664 basis functions,  4248 primitive gaussians,  3024 cartesian basis functions
   258 alpha electrons      258 beta electrons
       nuclear repulsion energy     11443.3521366819 Hartrees.
 IExCor= 1009 DFT=T Ex+Corr=PBE1PBE ExCW=0 ScaHFX=  0.250000
 ScaDFX=  0.750000  0.750000  1.000000  1.000000 ScalE2=  1.000000  1.000000
 IRadAn=      7 IRanWt=     -1 IRanGd=            0 ICorTp=0 IEmpDi=131
 NAtoms=  144 NActive=  144 NUniq=  144 SFac= 1.00D+00 NAtFMM=   60 NAOKFM=T Big=T
 Integral buffers will be    131072 words long.
 Raffenetti 2 integral format.
 Two-electron integral symmetry is turned on.
 R6Disp:  Grimme-D3 Dispersion energy=       -0.1145240336 Hartrees.
 Nuclear repulsion after empirical dispersion term =    11443.2376126483 Hartrees.
 Leave Link  301 at Sun Oct 17 21:48:12 2021, MaxMem=  7864320000 cpu:               1.3 elap:               0.1
 (Enter /apps/gaussian/g16-c01-avx/g16/l302.exe)
 NPDir=0 NMtPBC=     1 NCelOv=     1 NCel=       1 NClECP=     1 NCelD=      1
         NCelK=      1 NCelE2=     1 NClLst=     1 CellRange=     0.0.
 One-electron integrals computed using PRISM.
 One-electron integral symmetry used in STVInt
   1 Symmetry operations used in ECPInt.
 ECPInt:  NShTT=  583740 NPrTT= 1754928 LenC2=  355341 LenP2D=  668672.
 LDataN:  DoStor=T MaxTD1= 6 Len=  172
 Number of processors reduced to  28 by ecpmxn.
 NBasis=  2664 RedAO= T EigKep=  4.80D-06  NBF=  2664
 NBsUse=  2664 1.00D-06 EigRej= -1.00D+00 NBFU=  2664
 Precomputing XC quadrature grid using
 IXCGrd= 4 IRadAn=           7 IRanWt=          -1 IRanGd=           0 AccXCQ= 0.00D+00.
 Generated NRdTot=       0 NPtTot=           0 NUsed=           0 NTot=          32
 NSgBfM=  2219  2163  2178  2190  2219 MxSgAt=   144 MxSgA2=   144.
 Leave Link  302 at Sun Oct 17 21:48:34 2021, MaxMem=  7864320000 cpu:             678.2 elap:              21.3
 (Enter /apps/gaussian/g16-c01-avx/g16/l303.exe)
 DipDrv:  MaxL=1.
 Leave Link  303 at Sun Oct 17 21:48:35 2021, MaxMem=  7864320000 cpu:              31.6 elap:               1.3
 (Enter /apps/gaussian/g16-c01-avx/g16/l401.exe)
 ExpMin= 9.52D-02 ExpMax= 1.97D+04 ExpMxC= 6.73D+02 IAcc=3 IRadAn=         7 AccDes= 0.00D+00
 Harris functional with IExCor= 1009 and IRadAn=       7 diagonalized for initial guess.
 HarFok:  IExCor= 1009 AccDes= 0.00D+00 IRadAn=         7 IDoV= 1 UseB2=F ITyADJ=14
 ICtDFT=  3500011 ScaDFX=  1.000000  1.000000  1.000000  1.000000
 FoFCou: FMM=F IPFlag=           0 FMFlag=      100000 FMFlg1=        2001
         NFxFlg=           0 DoJE=T BraDBF=F KetDBF=T FulRan=T
         wScrn=  0.000000 ICntrl=       500 IOpCl=  0 I1Cent=   200000004 NGrid=           0
         NMat0=    1 NMatS0=      1 NMatT0=    0 NMatD0=    1 NMtDS0=    0 NMtDT0=    0
 Petite list used in FoFCou.
 Harris En= -2985.19956736455    
 JPrj=0 DoOrth=F DoCkMO=F.
 Leave Link  401 at Sun Oct 17 21:49:20 2021, MaxMem=  7864320000 cpu:            1432.9 elap:              45.1
 (Enter /apps/gaussian/g16-c01-avx/g16/l508.exe)
 Integral symmetry usage will be decided dynamically.
 Tight linear equation convergence will be used.
 RPBE1PBE wavefunction.
 Linear searches until partial convergence.
 Full line searches.
 Fock matrices will be formed incrementally for  20 cycles.
 FoFJK:  IHMeth= 1 ICntrl=       0 DoSepK=F KAlg= 0 I1Cent=           0 FoldK=F
 IRaf= 560000000 NMat=       1 IRICut=       1 DoRegI=T DoRafI=F ISym2E= 1 IDoP0=0 IntGTp=1.
 FoFCou: FMM=T IPFlag=           0 FMFlag=      100000 FMFlg1=        2001
         NFxFlg=           0 DoJE=F BraDBF=F KetDBF=F FulRan=T
         wScrn=  0.000000 ICntrl=         0 IOpCl=  0 I1Cent=           0 NGrid=           0
         NMat0=    1 NMatS0=      1 NMatT0=    0 NMatD0=    1 NMtDS0=    0 NMtDT0=    0
 Petite list used in FoFCou.
 FMM levels:  10  Number of levels for PrismC:   9
 Iteration   1 EE= -2982.65167789078                                    Grad=1.890D+00 Max rot=    1.9405 deg.
 Gradient too large for Newton-Raphson -- use scaled steepest descent instead.
 Alpha Gap=     0.194 HL deriv= 7.85D-04
     ILin= 1 X=0.000D+00 Y=-2.982651677891D+03 DE= 0.00D+00 F= -6.85D+00
 RMSU=  4.37D-04    CP:  9.95D-01
     ILin= 2 X=3.000D-01 Y=-2.984023402730D+03 DE=-1.37D+00 F= -2.28D+00 OKLS=F
 RMSU=  7.52D-05    CP:  9.94D-01  1.73D+00
     ILin= 3 X=5.000D-01 Y=-2.984173041097D+03 DE=-1.52D+00 F=  7.88D-01
     Accept linear search using points  2 and  3.
     An  expanding polynomial of degree  3 produced  0.3896
 RMSU=  3.96D-08    CP:  9.95D-01  1.32D+00  3.49D-01
 Iteration   2 EE= -2984.16636020354     Delta-E=       -1.514682312756 Grad=6.017D-01 Max rot=    1.4251 deg.
 Gradient too large for Newton-Raphson -- use scaled steepest descent instead.
 Alpha Gap=     0.206 HL deriv= 1.65D-03
     ILin= 1 X=0.000D+00 Y=-2.984166360204D+03 DE= 0.00D+00 F= -3.34D-01
 RMSU=  7.21D-05    CP:  9.92D-01  1.57D+00  7.22D-01 -3.00D+00
     ILin= 2 X=3.000D-01 Y=-2.984242544715D+03 DE=-7.62D-02 F= -1.74D-01 OKLS=F
 RMSU=  9.17D-06    CP:  9.90D-01  1.91D+00  1.44D+00 -3.00D+00  2.35D+00
     ILin= 3 X=7.000D-01 Y=-2.984269744695D+03 DE=-1.03D-01 F=  3.82D-02
     Accept linear search using points  2 and  3.
     An  expanding polynomial of degree  3 produced  0.5154
 RMSU=  2.87D-08    CP:  9.91D-01  1.75D+00  1.08D+00 -3.00D+00  1.72D+00
                    CP:  3.97D-01
 Iteration   3 EE= -2984.26775305639     Delta-E=       -0.101392852854 Grad=2.553D-01 Max rot=    0.6605 deg.
 Gradient too large for Newton-Raphson -- use scaled steepest descent instead.
 Alpha Gap=     0.199 HL deriv= 1.90D-03
     ILin= 1 X=0.000D+00 Y=-2.984267753056D+03 DE= 0.00D+00 F= -4.98D-02
 RMSU=  4.31D-05    CP:  9.91D-01  1.91D+00  1.48D+00 -3.00D+00  2.32D+00
                    CP:  6.66D-01 -3.00D+00
     ILin= 2 X=4.000D-01 Y=-2.984280223467D+03 DE=-1.25D-02 F= -1.26D-02 OKLS=F
 RMSU=  6.16D-06    CP:  9.90D-01  2.11D+00  2.07D+00 -3.00D+00  3.00D+00
                    CP:  1.29D+00 -3.00D+00  2.26D+00
     ILin= 3 X=9.000D-01 Y=-2.984274883942D+03 DE=-7.13D-03 F=  3.39D-02
     An  expanding polynomial of degree  3 produced  0.5352
 RMSU=  4.28D-07    CP:  9.91D-01  1.96D+00  1.63D+00 -3.00D+00  2.53D+00
                    CP:  8.03D-01 -3.00D+00  1.34D+00  3.98D-02
 Iteration   4 EE= -2984.28107332025     Delta-E=       -0.013320263861 Grad=1.227D-01 Max rot=    0.3387 deg.
 Gradient too large for Newton-Raphson -- use scaled steepest descent instead.
 Alpha Gap=     0.205 HL deriv= 1.51D-03
     ILin= 1 X=0.000D+00 Y=-2.984281073320D+03 DE= 0.00D+00 F= -1.69D-02
 RMSU=  2.34D-05    CP:  9.90D-01  1.99D+00  1.72D+00 -3.00D+00  2.97D+00
                    CP:  1.29D+00 -3.00D+00  1.26D+00  1.90D-01  3.00D+00
     ILin= 2 X=5.000D-01 Y=-2.984283926145D+03 DE=-2.85D-03 F=  5.49D-03 OKLS=T
     Accept linear search using points  1 and  2.
     An  expanding polynomial of degree  2 produced  0.2854
 RMSU=  3.97D-07    CP:  9.90D-01  1.98D+00  1.68D+00 -3.00D+00  2.78D+00
                    CP:  1.07D+00 -3.00D+00  1.30D+00  1.24D-01  3.00D+00
                    CP:  5.70D-01
 Iteration   5 EE= -2984.28407404076     Delta-E=       -0.003000720511 Grad=7.513D-02 Max rot=    0.2174 deg.
 Gradient too large for Newton-Raphson -- use scaled steepest descent instead.
 Alpha Gap=     0.203 HL deriv= 3.61D-05
     ILin= 1 X=0.000D+00 Y=-2.984284074041D+03 DE= 0.00D+00 F= -2.75D-03
 RMSU=  5.01D-06    CP:  9.90D-01  2.04D+00  1.86D+00 -3.00D+00  3.00D+00
                    CP:  1.38D+00 -3.00D+00  1.57D+00  9.01D-01  1.04D+00
                    CP:  1.04D+00  2.31D+00
     ILin= 2 X=5.000D-01 Y=-2.984285089675D+03 DE=-1.02D-03 F= -1.31D-03 OKLS=F
 RMSU=  1.28D-05    CP:  9.90D-01  2.11D+00  2.10D+00 -3.00D+00  3.00D+00
                    CP:  1.81D+00 -3.00D+00  1.90D+00  3.00D+00 -3.00D+00
                    CP:  1.60D+00  3.00D+00  2.21D+00
     ILin= 3 X=1.100D+00 Y=-2.984285359067D+03 DE=-1.29D-03 F=  4.14D-04
     Accept linear search using points  2 and  3.
     An  expanding polynomial of degree  3 produced  0.8697
 RMSU=  2.87D-06    CP:  9.90D-01  2.08D+00  2.01D+00 -3.00D+00  3.00D+00
                    CP:  1.64D+00 -3.00D+00  1.78D+00  3.00D+00 -3.00D+00
                    CP:  1.39D+00  3.00D+00  1.74D+00  2.91D-01
 Iteration   6 EE= -2984.28537815151     Delta-E=       -0.001304110749 Grad=1.016D-02 Max rot=    0.0186 deg.
 Gradient too large for Newton-Raphson -- use scaled steepest descent instead.
 Alpha Gap=     0.203 HL deriv= 6.24D-05
     ILin= 1 X=0.000D+00 Y=-2.984285378152D+03 DE= 0.00D+00 F= -8.76D-05
 RMSU=  2.03D-06    CP:  9.90D-01  2.09D+00  2.05D+00 -3.00D+00  3.00D+00
                    CP:  1.70D+00 -3.00D+00  1.87D+00  3.00D+00 -3.00D+00
                    CP:  1.57D+00  3.00D+00  2.42D+00  5.40D-01  5.57D-01
     ILin= 2 X=5.000D-01 Y=-2.984285406092D+03 DE=-2.79D-05 F= -2.41D-05 OKLS=F
 RMSU=  5.14D-07    CP:  9.90D-01  2.11D+00  2.10D+00 -3.00D+00  3.00D+00
                    CP:  1.75D+00 -3.00D+00  1.96D+00  3.00D+00 -3.00D+00
                    CP:  1.76D+00  3.00D+00  3.00D+00  7.89D-01  1.07D-01
                    CP:  2.00D+00
     ILin= 3 X=1.000D+00 Y=-2.984285402287D+03 DE=-2.41D-05 F=  3.94D-05
     An  expanding polynomial of degree  3 produced  0.6901
 RMSU=  8.27D-09    CP:  9.90D-01  2.10D+00  2.07D+00 -3.00D+00  3.00D+00
                    CP:  1.72D+00 -3.00D+00  1.90D+00  3.00D+00 -3.00D+00
                    CP:  1.65D+00  3.00D+00  2.68D+00  6.35D-01  3.87D-01
                    CP:  1.38D+00  9.90D-04
 Iteration   7 EE= -2984.28540838539     Delta-E=       -0.000030233874 Grad=4.385D-03 Max rot=    0.0146 deg.
 SCF Done:  E(RPBE1PBE) =  -2984.28540839     a.u. after    7 cycles
            Convg  =    0.4385D-02                    18 Fock formations.
              S**2 =  0.0000                  -V/T =  2.0046
 Leave Link  508 at Sun Oct 17 23:04:13 2021, MaxMem=  7864320000 cpu:          142600.2 elap:            4493.4
 (Enter /apps/gaussian/g16-c01-avx/g16/l502.exe)
 Integral symmetry usage will be decided dynamically.
 Closed shell SCF:
 Using DIIS extrapolation, IDIIS=  1040.
 NGot=  7864320000 LenX=  7845904250 LenY=  7836756650
 Requested convergence on RMS density matrix=1.00D-08 within 128 cycles.
 Requested convergence on MAX density matrix=1.00D-06.
 Requested convergence on             energy=1.00D-06.
 No special actions if energy rises.
 Fock matrices will be formed incrementally for  20 cycles.

 Cycle   1  Pass 1  IDiag  1:
 FoFJK:  IHMeth= 1 ICntrl=       0 DoSepK=F KAlg= 0 I1Cent=           0 FoldK=F
 IRaf= 560000000 NMat=       1 IRICut=       1 DoRegI=T DoRafI=F ISym2E= 0 IDoP0=0 IntGTp=1.
 FoFCou: FMM=T IPFlag=           0 FMFlag=      100000 FMFlg1=        2001
         NFxFlg=           0 DoJE=F BraDBF=F KetDBF=F FulRan=T
         wScrn=  0.000000 ICntrl=         0 IOpCl=  0 I1Cent=           0 NGrid=           0
         NMat0=    1 NMatS0=      1 NMatT0=    0 NMatD0=    1 NMtDS0=    0 NMtDT0=    0
 Symmetry not used in FoFCou.
 FMM levels:  10  Number of levels for PrismC:   9
 E= -2984.28540838543    
 DIIS: error= 3.09D-05 at cycle   1 NSaved=   1.
 NSaved= 1 IEnMin= 1 EnMin= -2984.28540838543     IErMin= 1 ErrMin= 3.09D-05
 ErrMax= 3.09D-05  0.00D+00 EMaxC= 1.00D-01 BMatC= 9.61D-06 BMatP= 9.61D-06
 IDIUse=1 WtCom= 1.00D+00 WtEn= 0.00D+00
 Coeff-Com:  0.100D+01
 Coeff:      0.100D+01
 Gap=     0.203 Goal=   None    Shift=    0.000
 RMSDP=8.89D-06 MaxDP=1.63D-03              OVMax= 9.13D-04

 Cycle   2  Pass 1  IDiag  1:
 RMSU=  8.74D-06    CP:  1.00D+00
 E= -2984.28539984228     Delta-E=        0.000008543157 Rises=F Damp=F
 DIIS: error= 6.55D-05 at cycle   2 NSaved=   2.
 NSaved= 2 IEnMin= 1 EnMin= -2984.28540838543     IErMin= 1 ErrMin= 3.09D-05
 ErrMax= 6.55D-05  0.00D+00 EMaxC= 1.00D-01 BMatC= 1.98D-05 BMatP= 9.61D-06
 IDIUse=1 WtCom= 1.00D+00 WtEn= 0.00D+00
 Coeff-Com:  0.606D+00 0.394D+00
 Coeff:      0.606D+00 0.394D+00
 Gap=     0.191 Goal=   None    Shift=    0.000
 RMSDP=2.99D-06 MaxDP=6.03D-04 DE= 8.54D-06 OVMax= 7.52D-04

 Cycle   3  Pass 1  IDiag  1:
 RMSU=  2.88D-06    CP:  1.00D+00  1.05D+00
 E= -2984.28541679941     Delta-E=       -0.000016957130 Rises=F Damp=F
 DIIS: error= 1.84D-05 at cycle   3 NSaved=   3.
 NSaved= 3 IEnMin= 3 EnMin= -2984.28541679941     IErMin= 3 ErrMin= 1.84D-05
 ErrMax= 1.84D-05  0.00D+00 EMaxC= 1.00D-01 BMatC= 1.36D-06 BMatP= 9.61D-06
 IDIUse=1 WtCom= 1.00D+00 WtEn= 0.00D+00
 Coeff-Com:  0.410D-01 0.205D+00 0.754D+00
 Coeff:      0.410D-01 0.205D+00 0.754D+00
 Gap=     0.191 Goal=   None    Shift=    0.000
 RMSDP=1.17D-06 MaxDP=2.51D-04 DE=-1.70D-05 OVMax= 2.47D-04

 Cycle   4  Pass 1  IDiag  1:
 RMSU=  7.13D-07    CP:  1.00D+00  1.04D+00  7.03D-01
 E= -2984.28541779180     Delta-E=       -0.000000992392 Rises=F Damp=F
 DIIS: error= 8.38D-06 at cycle   4 NSaved=   4.
 NSaved= 4 IEnMin= 4 EnMin= -2984.28541779180     IErMin= 4 ErrMin= 8.38D-06
 ErrMax= 8.38D-06  0.00D+00 EMaxC= 1.00D-01 BMatC= 3.22D-07 BMatP= 1.36D-06
 IDIUse=1 WtCom= 1.00D+00 WtEn= 0.00D+00
 Coeff-Com: -0.202D-01 0.988D-01 0.481D+00 0.440D+00
 Coeff:     -0.202D-01 0.988D-01 0.481D+00 0.440D+00
 Gap=     0.191 Goal=   None    Shift=    0.000
 RMSDP=4.29D-07 MaxDP=1.02D-04 DE=-9.92D-07 OVMax= 9.06D-05

 Cycle   5  Pass 1  IDiag  1:
 RMSU=  1.18D-07    CP:  1.00D+00  1.06D+00  7.76D-01  6.44D-01
 E= -2984.28541810359     Delta-E=       -0.000000311797 Rises=F Damp=F
 DIIS: error= 4.74D-07 at cycle   5 NSaved=   5.
 NSaved= 5 IEnMin= 5 EnMin= -2984.28541810359     IErMin= 5 ErrMin= 4.74D-07
 ErrMax= 4.74D-07  0.00D+00 EMaxC= 1.00D-01 BMatC= 1.43D-09 BMatP= 3.22D-07
 IDIUse=1 WtCom= 1.00D+00 WtEn= 0.00D+00
 Coeff-Com: -0.599D-02 0.242D-01 0.126D+00 0.120D+00 0.736D+00
 Coeff:     -0.599D-02 0.242D-01 0.126D+00 0.120D+00 0.736D+00
 Gap=     0.191 Goal=   None    Shift=    0.000
 RMSDP=4.62D-08 MaxDP=7.31D-06 DE=-3.12D-07 OVMax= 1.03D-05

 Cycle   6  Pass 1  IDiag  1:
 RMSU=  4.30D-08    CP:  1.00D+00  1.06D+00  7.78D-01  6.50D-01  9.21D-01
 E= -2984.28541810421     Delta-E=       -0.000000000611 Rises=F Damp=F
 DIIS: error= 4.00D-07 at cycle   6 NSaved=   6.
 NSaved= 6 IEnMin= 6 EnMin= -2984.28541810421     IErMin= 6 ErrMin= 4.00D-07
 ErrMax= 4.00D-07  0.00D+00 EMaxC= 1.00D-01 BMatC= 1.32D-09 BMatP= 1.43D-09
 IDIUse=1 WtCom= 1.00D+00 WtEn= 0.00D+00
 Coeff-Com: -0.597D-03-0.181D-02-0.217D-02-0.107D-02 0.496D+00 0.510D+00
 Coeff:     -0.597D-03-0.181D-02-0.217D-02-0.107D-02 0.496D+00 0.510D+00
 Gap=     0.191 Goal=   None    Shift=    0.000
 RMSDP=2.60D-08 MaxDP=5.26D-06 DE=-6.11D-10 OVMax= 6.35D-06

 Cycle   7  Pass 1  IDiag  1:
 RMSU=  1.25D-08    CP:  1.00D+00  1.06D+00  7.77D-01  6.53D-01  1.03D+00
                    CP:  5.89D-01
 E= -2984.28541810561     Delta-E=       -0.000000001404 Rises=F Damp=F
 DIIS: error= 9.73D-08 at cycle   7 NSaved=   7.
 NSaved= 7 IEnMin= 7 EnMin= -2984.28541810561     IErMin= 7 ErrMin= 9.73D-08
 ErrMax= 9.73D-08  0.00D+00 EMaxC= 1.00D-01 BMatC= 9.32D-11 BMatP= 1.32D-09
 IDIUse=1 WtCom= 1.00D+00 WtEn= 0.00D+00
 Coeff-Com: -0.775D-04-0.275D-02-0.984D-02-0.931D-02 0.232D+00 0.295D+00
 Coeff-Com:  0.495D+00
 Coeff:     -0.775D-04-0.275D-02-0.984D-02-0.931D-02 0.232D+00 0.295D+00
 Coeff:      0.495D+00
 Gap=     0.191 Goal=   None    Shift=    0.000
 RMSDP=9.15D-09 MaxDP=2.27D-06 DE=-1.40D-09 OVMax= 1.69D-06

 Cycle   8  Pass 1  IDiag  1:
 RMSU=  3.71D-09    CP:  1.00D+00  1.06D+00  7.77D-01  6.60D-01  1.03D+00
                    CP:  6.35D-01  6.99D-01
 E= -2984.28541810563     Delta-E=       -0.000000000024 Rises=F Damp=F
 DIIS: error= 2.99D-08 at cycle   8 NSaved=   8.
 NSaved= 8 IEnMin= 8 EnMin= -2984.28541810563     IErMin= 8 ErrMin= 2.99D-08
 ErrMax= 2.99D-08  0.00D+00 EMaxC= 1.00D-01 BMatC= 3.35D-12 BMatP= 9.32D-11
 IDIUse=1 WtCom= 1.00D+00 WtEn= 0.00D+00
 Coeff-Com:  0.125D-03-0.710D-03-0.361D-02-0.380D-02-0.675D-02 0.767D-02
 Coeff-Com:  0.134D+00 0.873D+00
 Coeff:      0.125D-03-0.710D-03-0.361D-02-0.380D-02-0.675D-02 0.767D-02
 Coeff:      0.134D+00 0.873D+00
 Gap=     0.191 Goal=   None    Shift=    0.000
 RMSDP=2.23D-09 MaxDP=2.88D-07 DE=-2.36D-11 OVMax= 1.14D-06

 SCF Done:  E(RPBE1PBE) =  -2984.28541811     A.U. after    8 cycles
            NFock=  8  Conv=0.22D-08     -V/T= 2.0046
 KE= 2.970568264298D+03 PE=-2.982299288108D+04 EE= 1.242490158603D+04
 Leave Link  502 at Sun Oct 17 23:35:38 2021, MaxMem=  7864320000 cpu:           59807.0 elap:            1884.1
 (Enter /apps/gaussian/g16-c01-avx/g16/l508.exe)
 QCSCF skips out because SCF is already converged.
 Leave Link  508 at Sun Oct 17 23:35:39 2021, MaxMem=  7864320000 cpu:               0.0 elap:               0.0
 (Enter /apps/gaussian/g16-c01-avx/g16/l601.exe)
 Copying SCF densities to generalized density rwf, IOpCl= 0 IROHF=0.
 Hyperfine terms turned off by default for NAtoms > 100.

 **********************************************************************

            Population analysis using the SCF Density.

 **********************************************************************

 Orbital symmetries:
       Occupied  (A) (A) (A) (A) (A) (A) (A) (A) (A) (A) (A) (A)
                 (A) (A) (A) (A) (A) (A) (A) (A) (A) (A) (A) (A)
                 (A) (A) (A) (A) (A) (A) (A) (A) (A) (A) (A) (A)
                 (A) (A) (A) (A) (A) (A) (A) (A) (A) (A) (A) (A)
                 (A) (A) (A) (A) (A) (A) (A) (A) (A) (A) (A) (A)
                 (A) (A) (A) (A) (A) (A) (A) (A) (A) (A) (A) (A)
                 (A) (A) (A) (A) (A) (A) (A) (A) (A) (A) (A) (A)
                 (A) (A) (A) (A) (A) (A) (A) (A) (A) (A) (A) (A)
                 (A) (A) (A) (A) (A) (A) (A) (A) (A) (A) (A) (A)
                 (A) (A) (A) (A) (A) (A) (A) (A) (A) (A) (A) (A)
                 (A) (A) (A) (A) (A) (A) (A) (A) (A) (A) (A) (A)
                 (A) (A) (A) (A) (A) (A) (A) (A) (A) (A) (A) (A)
                 (A) (A) (A) (A) (A) (A) (A) (A) (A) (A) (A) (A)
                 (A) (A) (A) (A) (A) (A) (A) (A) (A) (A) (A) (A)
                 (A) (A) (A) (A) (A) (A) (A) (A) (A) (A) (A) (A)
                 (A) (A) (A) (A) (A) (A) (A) (A) (A) (A) (A) (A)
                 (A) (A) (A) (A) (A) (A) (A) (A) (A) (A) (A) (A)
                 (A) (A) (A) (A) (A) (A) (A) (A) (A) (A) (A) (A)
                 (A) (A) (A) (A) (A) (A) (A) (A) (A) (A) (A) (A)
                 (A) (A) (A) (A) (A) (A) (A) (A) (A) (A) (A) (A)
                 (A) (A) (A) (A) (A) (A) (A) (A) (A) (A) (A) (A)
                 (A) (A) (A) (A) (A) (A)
       Virtual   (A) (A) (A) (A) (A) (A) (A) (A) (A) (A) (A) (A)
                 (A) (A) (A) (A) (A) (A) (A) (A) (A) (A) (A) (A)
                 (A) (A) (A) (A) (A) (A) (A) (A) (A) (A) (A) (A)
                 (A) (A) (A) (A) (A) (A) (A) (A) (A) (A) (A) (A)
                 (A) (A) (A) (A) (A) (A) (A) (A) (A) (A) (A) (A)
                 (A) (A) (A) (A) (A) (A) (A) (A) (A) (A) (A) (A)
                 (A) (A) (A) (A) (A) (A) (A) (A) (A) (A) (A) (A)
                 (A) (A) (A) (A) (A) (A) (A) (A) (A) (A) (A) (A)
                 (A) (A) (A) (A) (A) (A) (A) (A) (A) (A) (A) (A)
                 (A) (A) (A) (A) (A) (A) (A) (A) (A) (A) (A) (A)
                 (A) (A) (A) (A) (A) (A) (A) (A) (A) (A) (A) (A)
                 (A) (A) (A) (A) (A) (A) (A) (A) (A) (A) (A) (A)
                 (A) (A) (A) (A) (A) (A) (A) (A) (A) (A) (A) (A)
                 (A) (A) (A) (A) (A) (A) (A) (A) (A) (A) (A) (A)
                 (A) (A) (A) (A) (A) (A) (A) (A) (A) (A) (A) (A)
                 (A) (A) (A) (A) (A) (A) (A) (A) (A) (A) (A) (A)
                 (A) (A) (A) (A) (A) (A) (A) (A) (A) (A) (A) (A)
                 (A) (A) (A) (A) (A) (A) (A) (A) (A) (A) (A) (A)
                 (A) (A) (A) (A) (A) (A) (A) (A) (A) (A) (A) (A)
                 (A) (A) (A) (A) (A) (A) (A) (A) (A) (A) (A) (A)
                 (A) (A) (A) (A) (A) (A) (A) (A) (A) (A) (A) (A)
                 (A) (A) (A) (A) (A) (A) (A) (A) (A) (A) (A) (A)
                 (A) (A) (A) (A) (A) (A) (A) (A) (A) (A) (A) (A)
                 (A) (A) (A) (A) (A) (A) (A) (A) (A) (A) (A) (A)
                 (A) (A) (A) (A) (A) (A) (A) (A) (A) (A) (A) (A)
                 (A) (A) (A) (A) (A) (A) (A) (A) (A) (A) (A) (A)
                 (A) (A) (A) (A) (A) (A) (A) (A) (A) (A) (A) (A)
                 (A) (A) (A) (A) (A) (A) (A) (A) (A) (A) (A) (A)
                 (A) (A) (A) (A) (A) (A) (A) (A) (A) (A) (A) (A)
                 (A) (A) (A) (A) (A) (A) (A) (A) (A) (A) (A) (A)
                 (A) (A) (A) (A) (A) (A) (A) (A) (A) (A) (A) (A)
                 (A) (A) (A) (A) (A) (A) (A) (A) (A) (A) (A) (A)
                 (A) (A) (A) (A) (A) (A) (A) (A) (A) (A) (A) (A)
                 (A) (A) (A) (A) (A) (A) (A) (A) (A) (A) (A) (A)
                 (A) (A) (A) (A) (A) (A) (A) (A) (A) (A) (A) (A)
                 (A) (A) (A) (A) (A) (A) (A) (A) (A) (A) (A) (A)
                 (A) (A) (A) (A) (A) (A) (A) (A) (A) (A) (A) (A)
                 (A) (A) (A) (A) (A) (A) (A) (A) (A) (A) (A) (A)
                 (A) (A) (A) (A) (A) (A) (A) (A) (A) (A) (A) (A)
                 (A) (A) (A) (A) (A) (A) (A) (A) (A) (A) (A) (A)
                 (A) (A) (A) (A) (A) (A) (A) (A) (A) (A) (A) (A)
                 (A) (A) (A) (A) (A) (A) (A) (A) (A) (A) (A) (A)
                 (A) (A) (A) (A) (A) (A) (A) (A) (A) (A) (A) (A)
                 (A) (A) (A) (A) (A) (A) (A) (A) (A) (A) (A) (A)
                 (A) (A) (A) (A) (A) (A) (A) (A) (A) (A) (A) (A)
                 (A) (A) (A) (A) (A) (A) (A) (A) (A) (A) (A) (A)
                 (A) (A) (A) (A) (A) (A) (A) (A) (A) (A) (A) (A)
                 (A) (A) (A) (A) (A) (A) (A) (A) (A) (A) (A) (A)
                 (A) (A) (A) (A) (A) (A) (A) (A) (A) (A) (A) (A)
                 (A) (A) (A) (A) (A) (A) (A) (A) (A) (A) (A) (A)
                 (A) (A) (A) (A) (A) (A) (A) (A) (A) (A) (A) (A)
                 (A) (A) (A) (A) (A) (A) (A) (A) (A) (A) (A) (A)
                 (A) (A) (A) (A) (A) (A) (A) (A) (A) (A) (A) (A)
                 (A) (A) (A) (A) (A) (A) (A) (A) (A) (A) (A) (A)
                 (A) (A) (A) (A) (A) (A) (A) (A) (A) (A) (A) (A)
                 (A) (A) (A) (A) (A) (A) (A) (A) (A) (A) (A) (A)
                 (A) (A) (A) (A) (A) (A) (A) (A) (A) (A) (A) (A)
                 (A) (A) (A) (A) (A) (A) (A) (A) (A) (A) (A) (A)
                 (A) (A) (A) (A) (A) (A) (A) (A) (A) (A) (A) (A)
                 (A) (A) (A) (A) (A) (A) (A) (A) (A) (A) (A) (A)
                 (A) (A) (A) (A) (A) (A) (A) (A) (A) (A) (A) (A)
                 (A) (A) (A) (A) (A) (A) (A) (A) (A) (A) (A) (A)
                 (A) (A) (A) (A) (A) (A) (A) (A) (A) (A) (A) (A)
                 (A) (A) (A) (A) (A) (A) (A) (A) (A) (A) (A) (A)
                 (A) (A) (A) (A) (A) (A) (A) (A) (A) (A) (A) (A)
                 (A) (A) (A) (A) (A) (A) (A) (A) (A) (A) (A) (A)
                 (A) (A) (A) (A) (A) (A) (A) (A) (A) (A) (A) (A)
                 (A) (A) (A) (A) (A) (A) (A) (A) (A) (A) (A) (A)
                 (A) (A) (A) (A) (A) (A) (A) (A) (A) (A) (A) (A)
                 (A) (A) (A) (A) (A) (A) (A) (A) (A) (A) (A) (A)
                 (A) (A) (A) (A) (A) (A) (A) (A) (A) (A) (A) (A)
                 (A) (A) (A) (A) (A) (A) (A) (A) (A) (A) (A) (A)
                 (A) (A) (A) (A) (A) (A) (A) (A) (A) (A) (A) (A)
                 (A) (A) (A) (A) (A) (A) (A) (A) (A) (A) (A) (A)
                 (A) (A) (A) (A) (A) (A) (A) (A) (A) (A) (A) (A)
                 (A) (A) (A) (A) (A) (A) (A) (A) (A) (A) (A) (A)
                 (A) (A) (A) (A) (A) (A) (A) (A) (A) (A) (A) (A)
                 (A) (A) (A) (A) (A) (A) (A) (A) (A) (A) (A) (A)
                 (A) (A) (A) (A) (A) (A) (A) (A) (A) (A) (A) (A)
                 (A) (A) (A) (A) (A) (A) (A) (A) (A) (A) (A) (A)
                 (A) (A) (A) (A) (A) (A) (A) (A) (A) (A) (A) (A)
                 (A) (A) (A) (A) (A) (A) (A) (A) (A) (A) (A) (A)
                 (A) (A) (A) (A) (A) (A) (A) (A) (A) (A) (A) (A)
                 (A) (A) (A) (A) (A) (A) (A) (A) (A) (A) (A) (A)
                 (A) (A) (A) (A) (A) (A) (A) (A) (A) (A) (A) (A)
                 (A) (A) (A) (A) (A) (A) (A) (A) (A) (A) (A) (A)
                 (A) (A) (A) (A) (A) (A) (A) (A) (A) (A) (A) (A)
                 (A) (A) (A) (A) (A) (A) (A) (A) (A) (A) (A) (A)
                 (A) (A) (A) (A) (A) (A) (A) (A) (A) (A) (A) (A)
                 (A) (A) (A) (A) (A) (A) (A) (A) (A) (A) (A) (A)
                 (A) (A) (A) (A) (A) (A) (A) (A) (A) (A) (A) (A)
                 (A) (A) (A) (A) (A) (A) (A) (A) (A) (A) (A) (A)
                 (A) (A) (A) (A) (A) (A) (A) (A) (A) (A) (A) (A)
                 (A) (A) (A) (A) (A) (A) (A) (A) (A) (A) (A) (A)
                 (A) (A) (A) (A) (A) (A) (A) (A) (A) (A) (A) (A)
                 (A) (A) (A) (A) (A) (A) (A) (A) (A) (A) (A) (A)
                 (A) (A) (A) (A) (A) (A) (A) (A) (A) (A) (A) (A)
                 (A) (A) (A) (A) (A) (A) (A) (A) (A) (A) (A) (A)
                 (A) (A) (A) (A) (A) (A) (A) (A) (A) (A) (A) (A)
                 (A) (A) (A) (A) (A) (A) (A) (A) (A) (A) (A) (A)
                 (A) (A) (A) (A) (A) (A) (A) (A) (A) (A) (A) (A)
                 (A) (A) (A) (A) (A) (A) (A) (A) (A) (A) (A) (A)
                 (A) (A) (A) (A) (A) (A) (A) (A) (A) (A) (A) (A)
                 (A) (A) (A) (A) (A) (A) (A) (A) (A) (A) (A) (A)
                 (A) (A) (A) (A) (A) (A) (A) (A) (A) (A) (A) (A)
                 (A) (A) (A) (A) (A) (A) (A) (A) (A) (A) (A) (A)
                 (A) (A) (A) (A) (A) (A) (A) (A) (A) (A) (A) (A)
                 (A) (A) (A) (A) (A) (A) (A) (A) (A) (A) (A) (A)
                 (A) (A) (A) (A) (A) (A) (A) (A) (A) (A) (A) (A)
                 (A) (A) (A) (A) (A) (A) (A) (A) (A) (A) (A) (A)
                 (A) (A) (A) (A) (A) (A) (A) (A) (A) (A) (A) (A)
                 (A) (A) (A) (A) (A) (A) (A) (A) (A) (A) (A) (A)
                 (A) (A) (A) (A) (A) (A) (A) (A) (A) (A) (A) (A)
                 (A) (A) (A) (A) (A) (A) (A) (A) (A) (A) (A) (A)
                 (A) (A) (A) (A) (A) (A) (A) (A) (A) (A) (A) (A)
                 (A) (A) (A) (A) (A) (A) (A) (A) (A) (A) (A) (A)
                 (A) (A) (A) (A) (A) (A) (A) (A) (A) (A) (A) (A)
                 (A) (A) (A) (A) (A) (A) (A) (A) (A) (A) (A) (A)
                 (A) (A) (A) (A) (A) (A) (A) (A) (A) (A) (A) (A)
                 (A) (A) (A) (A) (A) (A) (A) (A) (A) (A) (A) (A)
                 (A) (A) (A) (A) (A) (A) (A) (A) (A) (A) (A) (A)
                 (A) (A) (A) (A) (A) (A) (A) (A) (A) (A) (A) (A)
                 (A) (A) (A) (A) (A) (A) (A) (A) (A) (A) (A) (A)
                 (A) (A) (A) (A) (A) (A) (A) (A) (A) (A) (A) (A)
                 (A) (A) (A) (A) (A) (A) (A) (A) (A) (A) (A) (A)
                 (A) (A) (A) (A) (A) (A) (A) (A) (A) (A) (A) (A)
                 (A) (A) (A) (A) (A) (A) (A) (A) (A) (A) (A) (A)
                 (A) (A) (A) (A) (A) (A) (A) (A) (A) (A) (A) (A)
                 (A) (A) (A) (A) (A) (A) (A) (A) (A) (A) (A) (A)
                 (A) (A) (A) (A) (A) (A) (A) (A) (A) (A) (A) (A)
                 (A) (A) (A) (A) (A) (A) (A) (A) (A) (A) (A) (A)
                 (A) (A) (A) (A) (A) (A) (A) (A) (A) (A) (A) (A)
                 (A) (A) (A) (A) (A) (A) (A) (A) (A) (A) (A) (A)
                 (A) (A) (A) (A) (A) (A) (A) (A) (A) (A) (A) (A)
                 (A) (A) (A) (A) (A) (A) (A) (A) (A) (A) (A) (A)
                 (A) (A) (A) (A) (A) (A) (A) (A) (A) (A) (A) (A)
                 (A) (A) (A) (A) (A) (A) (A) (A) (A) (A) (A) (A)
                 (A) (A) (A) (A) (A) (A) (A) (A) (A) (A) (A) (A)
                 (A) (A) (A) (A) (A) (A) (A) (A) (A) (A) (A) (A)
                 (A) (A) (A) (A) (A) (A) (A) (A) (A) (A) (A) (A)
                 (A) (A) (A) (A) (A) (A) (A) (A) (A) (A) (A) (A)
                 (A) (A) (A) (A) (A) (A) (A) (A) (A) (A) (A) (A)
                 (A) (A) (A) (A) (A) (A) (A) (A) (A) (A) (A) (A)
                 (A) (A) (A) (A) (A) (A) (A) (A) (A) (A) (A) (A)
                 (A) (A) (A) (A) (A) (A) (A) (A) (A) (A) (A) (A)
                 (A) (A) (A) (A) (A) (A) (A) (A) (A) (A) (A) (A)
                 (A) (A) (A) (A) (A) (A) (A) (A) (A) (A) (A) (A)
                 (A) (A) (A) (A) (A) (A) (A) (A) (A) (A) (A) (A)
                 (A) (A) (A) (A) (A) (A) (A) (A) (A) (A) (A) (A)
                 (A) (A) (A) (A) (A) (A) (A) (A) (A) (A) (A) (A)
                 (A) (A) (A) (A) (A) (A) (A) (A) (A) (A) (A) (A)
                 (A) (A) (A) (A) (A) (A) (A) (A) (A) (A) (A) (A)
                 (A) (A) (A) (A) (A) (A) (A) (A) (A) (A) (A) (A)
                 (A) (A) (A) (A) (A) (A) (A) (A) (A) (A) (A) (A)
                 (A) (A) (A) (A) (A) (A) (A) (A) (A) (A) (A) (A)
                 (A) (A) (A) (A) (A) (A) (A) (A) (A) (A) (A) (A)
                 (A) (A) (A) (A) (A) (A) (A) (A) (A) (A) (A) (A)
                 (A) (A) (A) (A) (A) (A) (A) (A) (A) (A) (A) (A)
                 (A) (A) (A) (A) (A) (A) (A) (A) (A) (A) (A) (A)
                 (A) (A) (A) (A) (A) (A) (A) (A) (A) (A) (A) (A)
                 (A) (A) (A) (A) (A) (A) (A) (A) (A) (A) (A) (A)
                 (A) (A) (A) (A) (A) (A) (A) (A) (A) (A) (A) (A)
                 (A) (A) (A) (A) (A) (A) (A) (A) (A) (A) (A) (A)
                 (A) (A) (A) (A) (A) (A) (A) (A) (A) (A) (A) (A)
                 (A) (A) (A) (A) (A) (A) (A) (A) (A) (A) (A) (A)
                 (A) (A) (A) (A) (A) (A) (A) (A) (A) (A) (A) (A)
                 (A) (A) (A) (A) (A) (A) (A) (A) (A) (A) (A) (A)
                 (A) (A) (A) (A) (A) (A) (A) (A) (A) (A) (A) (A)
                 (A) (A) (A) (A) (A) (A) (A) (A) (A) (A) (A) (A)
                 (A) (A) (A) (A) (A) (A) (A) (A) (A) (A) (A) (A)
                 (A) (A) (A) (A) (A) (A) (A) (A) (A) (A) (A) (A)
                 (A) (A) (A) (A) (A) (A) (A) (A) (A) (A) (A) (A)
                 (A) (A) (A) (A) (A) (A) (A) (A) (A) (A) (A) (A)
                 (A) (A) (A) (A) (A) (A) (A) (A) (A) (A) (A) (A)
                 (A) (A) (A) (A) (A) (A) (A) (A) (A) (A) (A) (A)
                 (A) (A) (A) (A) (A) (A) (A) (A) (A) (A) (A) (A)
                 (A) (A) (A) (A) (A) (A) (A) (A) (A) (A) (A) (A)
                 (A) (A) (A) (A) (A) (A) (A) (A) (A) (A) (A) (A)
                 (A) (A) (A) (A) (A) (A) (A) (A) (A) (A) (A) (A)
                 (A) (A) (A) (A) (A) (A) (A) (A) (A) (A) (A) (A)
                 (A) (A) (A) (A) (A) (A) (A) (A) (A) (A) (A) (A)
                 (A) (A) (A) (A) (A) (A) (A) (A) (A) (A) (A) (A)
                 (A) (A) (A) (A) (A) (A) (A) (A) (A) (A) (A) (A)
                 (A) (A) (A) (A) (A) (A) (A) (A) (A) (A) (A) (A)
                 (A) (A) (A) (A) (A) (A) (A) (A) (A) (A) (A) (A)
                 (A) (A) (A) (A) (A) (A) (A) (A) (A) (A) (A) (A)
                 (A) (A) (A) (A) (A) (A) (A) (A) (A) (A) (A) (A)
                 (A) (A) (A) (A) (A) (A) (A) (A) (A) (A) (A) (A)
                 (A) (A) (A) (A) (A) (A) (A) (A) (A) (A) (A) (A)
                 (A) (A) (A) (A) (A) (A) (A) (A) (A) (A) (A) (A)
                 (A) (A) (A) (A) (A) (A) (A) (A) (A) (A) (A) (A)
                 (A) (A) (A) (A) (A) (A) (A) (A) (A) (A) (A) (A)
                 (A) (A) (A) (A) (A) (A) (A) (A) (A) (A) (A) (A)
                 (A) (A) (A) (A) (A) (A) (A) (A) (A) (A) (A) (A)
                 (A) (A) (A) (A) (A) (A) (A) (A) (A) (A) (A) (A)
                 (A) (A) (A) (A) (A) (A) (A) (A) (A) (A) (A) (A)
                 (A) (A) (A) (A) (A) (A) (A) (A) (A) (A) (A) (A)
                 (A) (A) (A) (A) (A) (A) (A) (A) (A) (A) (A) (A)
                 (A) (A) (A) (A) (A) (A) (A) (A) (A) (A) (A) (A)
                 (A) (A) (A) (A) (A) (A) (A) (A) (A) (A) (A) (A)
                 (A) (A) (A) (A) (A) (A)
 The electronic state is 1-A.
 Alpha  occ. eigenvalues --  -14.37668 -14.37634 -14.37619 -14.37555 -14.37523
 Alpha  occ. eigenvalues --  -14.37422 -14.37312 -14.37212 -14.37187 -14.37117
 Alpha  occ. eigenvalues --  -14.37102 -14.37071 -10.26595 -10.26560 -10.26546
 Alpha  occ. eigenvalues --  -10.26478 -10.26455 -10.26400 -10.26351 -10.26342
 Alpha  occ. eigenvalues --  -10.26333 -10.26296 -10.26286 -10.26254 -10.26228
 Alpha  occ. eigenvalues --  -10.26210 -10.26200 -10.26136 -10.26123 -10.26090
 Alpha  occ. eigenvalues --  -10.24628 -10.24571 -10.24538 -10.24537 -10.24482
 Alpha  occ. eigenvalues --  -10.24421 -10.24093 -10.24084 -10.24082 -10.23936
 Alpha  occ. eigenvalues --  -10.23933 -10.23870 -10.23768 -10.23704 -10.23701
 Alpha  occ. eigenvalues --  -10.23634 -10.23631 -10.23623 -10.23552 -10.23549
 Alpha  occ. eigenvalues --  -10.23540 -10.23474 -10.23442 -10.23401 -10.23273
 Alpha  occ. eigenvalues --  -10.23232 -10.23197 -10.23046 -10.23039 -10.23033
 Alpha  occ. eigenvalues --  -10.20833 -10.20790 -10.20750 -10.20743 -10.20721
 Alpha  occ. eigenvalues --  -10.20684 -10.20572 -10.20526 -10.20476 -10.20472
 Alpha  occ. eigenvalues --  -10.20446 -10.20392  -0.97425  -0.97307  -0.97256
 Alpha  occ. eigenvalues --   -0.97241  -0.97159  -0.97095  -0.95098  -0.95024
 Alpha  occ. eigenvalues --   -0.94951  -0.94742  -0.94681  -0.94619  -0.89993
 Alpha  occ. eigenvalues --   -0.89504  -0.89396  -0.89290  -0.83724  -0.83705
 Alpha  occ. eigenvalues --   -0.83405  -0.83194  -0.82861  -0.81489  -0.80348
 Alpha  occ. eigenvalues --   -0.80287  -0.80158  -0.78916  -0.78527  -0.77928
 Alpha  occ. eigenvalues --   -0.77750  -0.77701  -0.72692  -0.72320  -0.71953
 Alpha  occ. eigenvalues --   -0.71909  -0.71881  -0.71801  -0.71382  -0.71340
 Alpha  occ. eigenvalues --   -0.71311  -0.71306  -0.71278  -0.71232  -0.67845
 Alpha  occ. eigenvalues --   -0.67792  -0.67690  -0.67665  -0.67403  -0.66984
 Alpha  occ. eigenvalues --   -0.65589  -0.65524  -0.65277  -0.64417  -0.63856
 Alpha  occ. eigenvalues --   -0.62659  -0.60623  -0.60493  -0.60450  -0.59421
 Alpha  occ. eigenvalues --   -0.58634  -0.57762  -0.56160  -0.56077  -0.55945
 Alpha  occ. eigenvalues --   -0.55100  -0.54674  -0.54182  -0.53888  -0.53665
 Alpha  occ. eigenvalues --   -0.53438  -0.53175  -0.53094  -0.52994  -0.52048
 Alpha  occ. eigenvalues --   -0.51585  -0.51312  -0.51164  -0.50718  -0.50639
 Alpha  occ. eigenvalues --   -0.50137  -0.49751  -0.49392  -0.49141  -0.49095
 Alpha  occ. eigenvalues --   -0.49039  -0.48602  -0.48567  -0.48521  -0.48048
 Alpha  occ. eigenvalues --   -0.47700  -0.47674  -0.47584  -0.47561  -0.47537
 Alpha  occ. eigenvalues --   -0.46844  -0.46224  -0.46167  -0.46097  -0.45436
 Alpha  occ. eigenvalues --   -0.45279  -0.45252  -0.45204  -0.44946  -0.44833
 Alpha  occ. eigenvalues --   -0.44722  -0.44497  -0.44486  -0.42272  -0.42183
 Alpha  occ. eigenvalues --   -0.42039  -0.42016  -0.41999  -0.41930  -0.41546
 Alpha  occ. eigenvalues --   -0.41451  -0.41410  -0.41010  -0.40854  -0.40816
 Alpha  occ. eigenvalues --   -0.40725  -0.40702  -0.40661  -0.40436  -0.39869
 Alpha  occ. eigenvalues --   -0.39827  -0.39788  -0.39656  -0.39623  -0.39564
 Alpha  occ. eigenvalues --   -0.39497  -0.39459  -0.39404  -0.39374  -0.39132
 Alpha  occ. eigenvalues --   -0.38883  -0.38142  -0.38114  -0.37970  -0.37611
 Alpha  occ. eigenvalues --   -0.37445  -0.37019  -0.36933  -0.36835  -0.36789
 Alpha  occ. eigenvalues --   -0.36567  -0.36405  -0.36294  -0.36266  -0.35938
 Alpha  occ. eigenvalues --   -0.35795  -0.35765  -0.35676  -0.35532  -0.35138
 Alpha  occ. eigenvalues --   -0.35047  -0.34575  -0.34479  -0.34401  -0.34094
 Alpha  occ. eigenvalues --   -0.34019  -0.33937  -0.33362  -0.33357  -0.30489
 Alpha  occ. eigenvalues --   -0.30428  -0.30362  -0.29400  -0.27117  -0.26961
 Alpha  occ. eigenvalues --   -0.26855  -0.26836  -0.26767  -0.26728  -0.26281
 Alpha  occ. eigenvalues --   -0.26253  -0.26234  -0.26084  -0.25991  -0.25965
 Alpha  occ. eigenvalues --   -0.25718  -0.25645  -0.25519  -0.25319  -0.25247
 Alpha  occ. eigenvalues --   -0.25151  -0.24982  -0.24941
 Alpha virt. eigenvalues --   -0.05821  -0.05759  -0.05651  -0.05377  -0.05281
 Alpha virt. eigenvalues --   -0.05145  -0.05000  -0.04954  -0.01837  -0.01633
 Alpha virt. eigenvalues --   -0.01416  -0.00927   0.04219   0.04293   0.04359
 Alpha virt. eigenvalues --    0.04428   0.04903   0.04926   0.05025   0.05138
 Alpha virt. eigenvalues --    0.05202   0.06092   0.06179   0.06209   0.06242
 Alpha virt. eigenvalues --    0.06300   0.06333   0.06417   0.06523   0.06536
 Alpha virt. eigenvalues --    0.06760   0.06859   0.06889   0.07829   0.08051
 Alpha virt. eigenvalues --    0.08192   0.08214   0.08288   0.09103   0.09120
 Alpha virt. eigenvalues --    0.09127   0.09248   0.09278   0.09315   0.09568
 Alpha virt. eigenvalues --    0.10039   0.10054   0.10098   0.10164   0.10364
 Alpha virt. eigenvalues --    0.10567   0.10973   0.11111   0.11174   0.11337
 Alpha virt. eigenvalues --    0.11350   0.11465   0.11611   0.11757   0.11801
 Alpha virt. eigenvalues --    0.11988   0.12060   0.12350   0.12497   0.12563
 Alpha virt. eigenvalues --    0.12679   0.12774   0.12943   0.12954   0.13075
 Alpha virt. eigenvalues --    0.13291   0.13648   0.14035   0.14150   0.14338
 Alpha virt. eigenvalues --    0.14442   0.14628   0.14785   0.14934   0.15039
 Alpha virt. eigenvalues --    0.15122   0.15410   0.15494   0.15638   0.15805
 Alpha virt. eigenvalues --    0.15896   0.16108   0.16216   0.16293   0.16305
 Alpha virt. eigenvalues --    0.16320   0.16391   0.16406   0.16504   0.16618
 Alpha virt. eigenvalues --    0.16680   0.16757   0.16792   0.16849   0.16905
 Alpha virt. eigenvalues --    0.16963   0.16991   0.17058   0.17108   0.17136
 Alpha virt. eigenvalues --    0.17328   0.17767   0.17835   0.17956   0.18045
 Alpha virt. eigenvalues --    0.18140   0.18355   0.18453   0.18517   0.18615
 Alpha virt. eigenvalues --    0.18797   0.18887   0.19004   0.19178   0.19291
 Alpha virt. eigenvalues --    0.19446   0.19886   0.19913   0.20237   0.20485
 Alpha virt. eigenvalues --    0.20561   0.20655   0.20819   0.20953   0.21089
 Alpha virt. eigenvalues --    0.21373   0.21568   0.21687   0.21872   0.22041
 Alpha virt. eigenvalues --    0.22077   0.22238   0.22331   0.22606   0.22719
 Alpha virt. eigenvalues --    0.22964   0.23066   0.23245   0.23296   0.23559
 Alpha virt. eigenvalues --    0.23751   0.23815   0.24119   0.24286   0.24396
 Alpha virt. eigenvalues --    0.24490   0.24510   0.24656   0.24934   0.25212
 Alpha virt. eigenvalues --    0.25392   0.25522   0.25604   0.25661   0.26001
 Alpha virt. eigenvalues --    0.26056   0.26148   0.26460   0.26526   0.26766
 Alpha virt. eigenvalues --    0.26917   0.27287   0.27337   0.27462   0.27641
 Alpha virt. eigenvalues --    0.27699   0.27849   0.28022   0.28185   0.28400
 Alpha virt. eigenvalues --    0.28509   0.28548   0.28674   0.28783   0.28870
 Alpha virt. eigenvalues --    0.29181   0.29318   0.29479   0.29683   0.29902
 Alpha virt. eigenvalues --    0.29917   0.30075   0.30314   0.30437   0.30680
 Alpha virt. eigenvalues --    0.30811   0.31002   0.31281   0.31403   0.31646
 Alpha virt. eigenvalues --    0.31725   0.31754   0.31783   0.31988   0.32127
 Alpha virt. eigenvalues --    0.32216   0.32355   0.32450   0.32466   0.32677
 Alpha virt. eigenvalues --    0.32730   0.32753   0.32961   0.33074   0.33287
 Alpha virt. eigenvalues --    0.33675   0.33918   0.34075   0.34119   0.34472
 Alpha virt. eigenvalues --    0.34771   0.34845   0.34949   0.35000   0.35136
 Alpha virt. eigenvalues --    0.35304   0.35400   0.35492   0.35702   0.35951
 Alpha virt. eigenvalues --    0.36047   0.36078   0.36257   0.36320   0.36388
 Alpha virt. eigenvalues --    0.36622   0.36720   0.36790   0.36909   0.37007
 Alpha virt. eigenvalues --    0.37171   0.37253   0.37442   0.37565   0.37615
 Alpha virt. eigenvalues --    0.37773   0.37897   0.37935   0.38099   0.38149
 Alpha virt. eigenvalues --    0.38269   0.38331   0.38579   0.38840   0.38924
 Alpha virt. eigenvalues --    0.39101   0.39209   0.39417   0.39514   0.39741
 Alpha virt. eigenvalues --    0.39932   0.40017   0.40164   0.40429   0.40467
 Alpha virt. eigenvalues --    0.40712   0.40804   0.40910   0.41042   0.41294
 Alpha virt. eigenvalues --    0.41394   0.41564   0.41706   0.41861   0.41952
 Alpha virt. eigenvalues --    0.42212   0.42278   0.42297   0.42388   0.42478
 Alpha virt. eigenvalues --    0.42648   0.42705   0.42982   0.43397   0.43593
 Alpha virt. eigenvalues --    0.43713   0.43807   0.43854   0.43990   0.44067
 Alpha virt. eigenvalues --    0.44134   0.44281   0.44352   0.44562   0.44631
 Alpha virt. eigenvalues --    0.44743   0.44898   0.44970   0.45162   0.45378
 Alpha virt. eigenvalues --    0.45532   0.45603   0.45658   0.45755   0.45918
 Alpha virt. eigenvalues --    0.45983   0.46104   0.46157   0.46198   0.46298
[...]
 Alpha virt. eigenvalues --    3.86485   3.87168   3.87318   3.87463   3.87597
 Alpha virt. eigenvalues --    3.88019   3.88493   3.88595   3.88858   3.89291
 Alpha virt. eigenvalues --    3.89632   3.89900   3.90232   3.90455   3.91124
 Alpha virt. eigenvalues --    3.91372   3.91596   3.91979   3.92193   3.92325
 Alpha virt. eigenvalues --    3.92696   3.93036   3.93272   3.93523   3.94307
 Alpha virt. eigenvalues --    3.94338   3.95050   3.95379   3.95708   3.96116
 Alpha virt. eigenvalues --    3.96349   3.97017   3.97428   3.97683   3.97910
 Alpha virt. eigenvalues --    3.98446   3.98565   3.98818   3.99546   4.00572
 Alpha virt. eigenvalues --    4.00795   4.01031   4.01226   4.01480   4.01976
 Alpha virt. eigenvalues --    4.02476   4.02613   4.02755   4.02809   4.03102
 Alpha virt. eigenvalues --    4.04111   4.04573   4.04774   4.04982   4.05372
 Alpha virt. eigenvalues --    4.05745   4.06180   4.06407   4.06555   4.06735
 Alpha virt. eigenvalues --    4.07071   4.07142   4.07311   4.08129   4.08359
 Alpha virt. eigenvalues --    4.08759   4.08854   4.09036   4.09267   4.09698
 Alpha virt. eigenvalues --    4.09850   4.09948   4.10966   4.11212   4.11335
 Alpha virt. eigenvalues --    4.11404   4.11454   4.11498   4.11728   4.11945
 Alpha virt. eigenvalues --    4.12063   4.12361   4.12503   4.12931   4.13212
 Alpha virt. eigenvalues --    4.13427   4.13741   4.13770   4.14084   4.14368
 Alpha virt. eigenvalues --    4.14778   4.15106   4.15555   4.15747   4.15891
 Alpha virt. eigenvalues --    4.16165   4.16238   4.16402   4.16670   4.16717
 Alpha virt. eigenvalues --    4.17596   4.17669   4.17848   4.18358   4.18478
 Alpha virt. eigenvalues --    4.18564   4.18675   4.18796   4.18906   4.19217
 Alpha virt. eigenvalues --    4.19315   4.19690   4.19699   4.19886   4.20045
 Alpha virt. eigenvalues --    4.20143   4.20445   4.20542   4.20657   4.20859
 Alpha virt. eigenvalues --    4.20997   4.21240   4.21405   4.21622   4.21901
 Alpha virt. eigenvalues --    4.22452   4.22968   4.23187   4.23482   4.23556
 Alpha virt. eigenvalues --    4.23700   4.24464   4.24581   4.24865   4.25105
 Alpha virt. eigenvalues --    4.25632   4.26444   4.26503   4.26570   4.26599
 Alpha virt. eigenvalues --    4.26770   4.27194   4.27641   4.27778   4.28264
 Alpha virt. eigenvalues --    4.28332   4.28747   4.28967   4.29421   4.29845
 Alpha virt. eigenvalues --    4.30850   4.31160   4.31246   4.31383   4.31557
 Alpha virt. eigenvalues --    4.31717   4.32433   4.32700   4.32999   4.33082
 Alpha virt. eigenvalues --    4.33734   4.33844   4.34111   4.35129   4.35426
 Alpha virt. eigenvalues --    4.36529   4.36721   4.37188   4.37979   4.38404
 Alpha virt. eigenvalues --    4.39514   4.40523   4.40601   4.40995   4.41173
 Alpha virt. eigenvalues --    4.41389   4.41577   4.41820   4.42035   4.42187
 Alpha virt. eigenvalues --    4.43414   4.44170   4.44778   4.45424   4.45986
 Alpha virt. eigenvalues --    4.46076   4.46181   4.46375   4.46538   4.46926
 Alpha virt. eigenvalues --    4.46967   4.47114   4.47160   4.47325   4.47491
 Alpha virt. eigenvalues --    4.48122   4.48605   4.48782   4.49128   4.49682
 Alpha virt. eigenvalues --    4.49824   4.49962   4.50099   4.50276   4.50540
 Alpha virt. eigenvalues --    4.50649   4.50806   4.50912   4.52808   4.53081
 Alpha virt. eigenvalues --    4.53727   4.53849   4.53986   4.54544   4.55472
 Alpha virt. eigenvalues --    4.55654   4.56027   4.56586   4.56745   4.57144
 Alpha virt. eigenvalues --    4.57350   4.58611   4.58949   4.59029   4.59790
 Alpha virt. eigenvalues --    4.60102   4.61021   4.61413   4.61843   4.63634
 Alpha virt. eigenvalues --    4.64844   4.65641   4.66164   4.66579   4.67241
 Alpha virt. eigenvalues --    4.67408   4.67791   4.68142   4.68912   4.69208
 Alpha virt. eigenvalues --    4.69367   4.69654   4.69920   4.70399   4.70669
 Alpha virt. eigenvalues --    4.71599   4.71809   4.72384   4.72549   4.72877
 Alpha virt. eigenvalues --    4.73355   4.73813   4.74197   4.74521   4.74935
 Alpha virt. eigenvalues --    4.75294   4.76124   4.76402   4.76686   4.76954
 Alpha virt. eigenvalues --    4.77025   4.77225   4.80057   4.80484   4.80684
 Alpha virt. eigenvalues --    4.80787   4.82690   4.82919   4.82936   4.83567
 Alpha virt. eigenvalues --    4.83817   4.84017   4.84190   4.84247   4.84752
 Alpha virt. eigenvalues --    4.85380   4.85621   4.86232   4.87554   4.87756
 Alpha virt. eigenvalues --    4.88419   4.88520   4.88668   4.89011   4.89276
 Alpha virt. eigenvalues --    4.89552   4.91380   4.92195   4.92507   4.93042
 Alpha virt. eigenvalues --    4.93293   4.93395   4.93719   4.93790   4.93973
 Alpha virt. eigenvalues --    4.94245   4.94590   4.94983   4.95553   4.95817
 Alpha virt. eigenvalues --    4.96372   4.96780   4.97049   4.97659   4.98234
 Alpha virt. eigenvalues --    4.98271   4.99142   5.00794   5.00949   5.01145
 Alpha virt. eigenvalues --    5.01323   5.01590   5.01656   5.02369   5.02645
 Alpha virt. eigenvalues --    5.02709   5.07445   5.07752   5.08347   5.08738
 Alpha virt. eigenvalues --    5.08893   5.09155   5.09587   5.09707   5.10151
 Alpha virt. eigenvalues --    5.10566   5.10727   5.10916   5.11151   5.11678
 Alpha virt. eigenvalues --    5.12809   5.12893   5.13031   5.13258   5.16406
 Alpha virt. eigenvalues --    5.16589   5.17072   5.17257   5.17371   5.18165
 Alpha virt. eigenvalues --    5.18729   5.19210   5.19711   5.20931   5.21284
 Alpha virt. eigenvalues --    5.22297   5.22482   5.22493   5.25231   5.25256
 Alpha virt. eigenvalues --    5.25510   5.26045   5.26351   5.27281   5.27761
 Alpha virt. eigenvalues --    5.27935   5.27964   5.28332   5.28400   5.30484
 Alpha virt. eigenvalues --    5.30629   5.30727   5.31011   5.32517   5.33520
 Alpha virt. eigenvalues --    5.34204   5.36063   5.37753   5.37944   5.38044
 Alpha virt. eigenvalues --    5.38138   5.38449   5.38556   5.38662   5.38819
 Alpha virt. eigenvalues --    5.39009   5.39186   5.39380   5.41586   5.42518
 Alpha virt. eigenvalues --    5.42756   5.43456   5.43900   5.44670   5.44827
 Alpha virt. eigenvalues --    5.44947   5.45142   5.45665   5.45716   5.45978
 Alpha virt. eigenvalues --    5.46138   5.46546   5.47007   5.47081   5.47496
 Alpha virt. eigenvalues --    5.47597   5.47770   5.47992   5.48308   5.48330
 Alpha virt. eigenvalues --    5.48582   5.48708   5.48874   5.48898   5.51615
 Alpha virt. eigenvalues --    5.52438   5.53365   5.54591   5.58148   5.59285
 Alpha virt. eigenvalues --    5.59949   5.61378   5.63688   5.63846   5.64007
 Alpha virt. eigenvalues --    5.64080   5.65947   5.66198   5.66544   5.68443
 Alpha virt. eigenvalues --    5.69248   5.69890   5.75391   5.75469   5.75775
 Alpha virt. eigenvalues --    5.75941   5.76394   5.76917   5.77471   5.77673
 Alpha virt. eigenvalues --    5.78576   5.78958   5.79333   5.79761   5.79854
 Alpha virt. eigenvalues --    5.80021   5.80709   5.82717   5.83249   5.83658
 Alpha virt. eigenvalues --    5.93173   5.93179   5.94221   5.94584   5.95006
 Alpha virt. eigenvalues --    5.97773   5.98394   5.98487   5.98691   5.99838
 Alpha virt. eigenvalues --    5.99975   6.00074   6.00394   6.00446   6.06255
 Alpha virt. eigenvalues --    6.07472   6.08844   6.11597   6.12055   6.12290
 Alpha virt. eigenvalues --    6.12326   6.14450   6.15598   6.16539  22.41782
 Alpha virt. eigenvalues --   22.43290  22.44522  22.45649  22.51853  22.51888
 Alpha virt. eigenvalues --   22.51906  22.51994  22.52052  22.52098  22.58961
 Alpha virt. eigenvalues --   22.59003  22.59085  22.59242  22.59335  22.59436
 Alpha virt. eigenvalues --   22.71164  22.71242  22.71424  22.71648  22.71809
 Alpha virt. eigenvalues --   22.71958  22.87767  22.88072  22.88335  22.88419
 Alpha virt. eigenvalues --   22.88763  22.89054  22.89296  22.89411  22.91132
 Alpha virt. eigenvalues --   22.91159  22.91256  22.93231  22.93347  22.93528
 Alpha virt. eigenvalues --   23.00358  23.03608  23.04006  23.04270  23.13534
 Alpha virt. eigenvalues --   23.13583  23.14322  23.14542  23.14584  23.15545
 Alpha virt. eigenvalues --   23.15566  23.15707  23.16300  23.16381  23.16474
 Alpha virt. eigenvalues --   23.16686  23.17172  23.18056  23.18125  23.18158
 Alpha virt. eigenvalues --   23.50997  23.51754  23.52027  23.52306  32.69841
 Alpha virt. eigenvalues --   32.71698  32.73750  32.75787  32.75845  32.76081
 Alpha virt. eigenvalues --   32.91883  32.93965  32.95592  32.97266  32.97518
 Alpha virt. eigenvalues --   32.97534
          Condensed to atoms (all electrons):
 Mulliken charges:
               1
     1  C    0.347302
     2  C   -0.153747
     3  C   -0.334047
     4  C    0.346447
     5  H    0.111554
     6  C   -0.335509
     7  C    0.347326
     8  H    0.111202
     9  C   -0.334998
    10  C   -0.153239
    11  H    0.111442
    12  C   -0.153255
    13  H    0.084862
    14  H    0.085137
    15  H    0.085130
    16  C    0.354368
    17  C   -0.174733
    18  C   -0.330001
    19  C    0.345144
    20  H    0.132153
    21  C   -0.343651
    22  C    0.348069
    23  H    0.112029
    24  C   -0.325490
    25  C   -0.144196
    26  H    0.113481
    27  C   -0.154414
    28  H    0.085254
    29  H    0.065207
    30  H    0.084662
    31  C    0.353448
    32  C   -0.176944
    33  C   -0.339525
    34  C    0.346813
    35  H    0.132671
    36  C   -0.336262
    37  C    0.358107
    38  H    0.114039
    39  C   -0.319897
    40  C   -0.168217
    41  H    0.134193
    42  C   -0.143215
    43  H    0.065727
    44  H    0.065036
    45  H    0.084946
    46  C    0.358822
    47  C   -0.168922
    48  C   -0.331386
    49  C    0.358451
    50  H    0.134835
    51  C   -0.332059
    52  C    0.358725
    53  H    0.134545
    54  C   -0.332425
    55  C   -0.168891
    56  H    0.134354
    57  C   -0.169093
    58  H    0.065392
    59  H    0.065362
    60  H    0.065621
    61  C    0.139947
    62  C   -0.062814
    63  N   -0.187522
    64  C   -0.415950
    65  C   -0.343238
    66  N   -0.188786
    67  H    0.073172
    68  H    0.112766
    69  H    0.122450
    70  H    0.112680
    71  H    0.127349
    72  H    0.145390
    73  H    0.122403
    74  H    0.127313
    75  C    0.139733
    76  C   -0.063244
    77  N   -0.187579
    78  C   -0.416107
    79  C   -0.343383
    80  N   -0.188344
    81  H    0.073539
    82  H    0.113063
    83  H    0.122556
    84  H    0.112756
    85  H    0.127618
    86  H    0.122598
    87  H    0.127562
    88  H    0.145092
    89  C    0.139550
    90  C   -0.062174
    91  N   -0.187817
    92  C   -0.416297
    93  C   -0.343303
    94  N   -0.188482
    95  H    0.073704
    96  H    0.113148
    97  H    0.112737
    98  H    0.127606
    99  H    0.122693
   100  H    0.127901
   101  H    0.145023
   102  H    0.122693
   103  C    0.139781
   104  C   -0.061909
   105  N   -0.187336
   106  C   -0.416766
   107  C   -0.343013
   108  N   -0.189110
   109  H    0.073613
   110  H    0.112891
   111  H    0.127423
   112  H    0.122609
   113  H    0.112806
   114  H    0.145482
   115  H    0.122740
   116  H    0.128015
   117  C    0.140328
   118  C   -0.062021
   119  N   -0.187901
   120  C   -0.416884
   121  C   -0.343566
   122  N   -0.188644
   123  H    0.073841
   124  H    0.113261
   125  H    0.112981
   126  H    0.128036
   127  H    0.122674
   128  H    0.122890
   129  H    0.127828
   130  H    0.145266
   131  C    0.140345
   132  C   -0.061989
   133  N   -0.187694
   134  C   -0.417575
   135  C   -0.343364
   136  N   -0.188794
   137  H    0.073975
   138  H    0.113259
   139  H    0.122737
   140  H    0.113113
   141  H    0.127936
   142  H    0.123102
   143  H    0.128278
   144  H    0.145616
 Sum of Mulliken charges =   0.00000
 Mulliken charges with hydrogens summed into heavy atoms:
               1
     1  C    0.347302
     2  C   -0.068610
     3  C   -0.222493
     4  C    0.346447
     6  C   -0.224307
     7  C    0.347326
     9  C   -0.223555
    10  C   -0.068378
    12  C   -0.068125
    16  C    0.354368
    17  C   -0.109526
    18  C   -0.197848
    19  C    0.345144
    21  C   -0.231622
    22  C    0.348069
    24  C   -0.212009
    25  C   -0.058942
    27  C   -0.069752
    31  C    0.353448
    32  C   -0.111909
    33  C   -0.206853
    34  C    0.346813
    36  C   -0.222223
    37  C    0.358107
    39  C   -0.185704
    40  C   -0.102490
    42  C   -0.058269
    46  C    0.358822
    47  C   -0.103560
    48  C   -0.196551
    49  C    0.358451
    51  C   -0.197514
    52  C    0.358725
    54  C   -0.198071
    55  C   -0.103500
    57  C   -0.103472
    61  C    0.139947
    62  C    0.123124
    63  N   -0.187522
    64  C   -0.020843
    65  C    0.019241
    66  N   -0.188786
    75  C    0.139733
    76  C    0.123358
    77  N   -0.187579
    78  C   -0.020856
    79  C    0.019547
    80  N   -0.188344
    89  C    0.139550
    90  C    0.124677
    91  N   -0.187817
    92  C   -0.020681
    93  C    0.019733
    94  N   -0.188482
   103  C    0.139781
   104  C    0.124595
   105  N   -0.187336
   106  C   -0.020530
   107  C    0.019826
   108  N   -0.189110
   117  C    0.140328
   118  C    0.125081
   119  N   -0.187901
   120  C   -0.020899
   121  C    0.020125
   122  N   -0.188644
   131  C    0.140345
   132  C    0.125244
   133  N   -0.187694
   134  C   -0.020580
   135  C    0.020422
   136  N   -0.188794
 Electronic spatial extent (au):  <R**2>=          64771.2753
 Charge=              0.0000 electrons
 Dipole moment (field-independent basis, Debye):
    X=             -0.1623    Y=              0.3593    Z=              0.1568  Tot=              0.4243
 Quadrupole moment (field-independent basis, Debye-Ang):
   XX=           -415.8824   YY=           -415.2836   ZZ=           -414.8594
   XY=              0.2993   XZ=             -0.0281   YZ=              0.2709
 Traceless Quadrupole moment (field-independent basis, Debye-Ang):
   XX=             -0.5406   YY=              0.0582   ZZ=              0.4824
   XY=              0.2993   XZ=             -0.0281   YZ=              0.2709
 Octapole moment (field-independent basis, Debye-Ang**2):
  XXX=            -43.9014  YYY=             11.3900  ZZZ=            -29.3373  XYY=             24.3550
  XXY=             89.0476  XXZ=             15.8716  XZZ=              8.3892  YZZ=            -79.1624
  YYZ=             24.4890  XYZ=             -5.6612
 Hexadecapole moment (field-independent basis, Debye-Ang**3):
 XXXX=         -31585.4266 YYYY=         -28577.3688 ZZZZ=         -27413.2595 XXXY=             78.8795
 XXXZ=             -4.5040 YYYX=           -162.5297 YYYZ=            333.0908 ZZZX=             71.2576
 ZZZY=           -171.7582 XXYY=         -10441.7937 XXZZ=          -9181.0036 YYZZ=          -9722.3862
 XXYZ=           -131.2070 YYXZ=            -70.9592 ZZXY=            117.9466
 N-N= 1.144323761265D+04 E-N=-2.982299283286D+04  KE= 2.970568264298D+03
 Leave Link  601 at Sun Oct 17 23:35:41 2021, MaxMem=  7864320000 cpu:              50.7 elap:               2.1
 (Enter /apps/gaussian/g16-c01-avx/g16/l9999.exe)
 Unable to Open any file for archive entry.
 1\1\GINC-CX3-6-10\SP\RPBE1PBE\def2TZVP\C60H72N12\ATARZIA\17-Oct-2021\0
 \\#P PBE1PBE/Def2TZVP SP SCF=(YQC,MaxCycle=900) int=(Grid=Superfinegri
 d) EmpiricalDispersion=GD3\\_4_alde1_6_ami2_1_opt_gas\\0,1\C,0,-0.9449
 ,-1.0282,4.0437\C,0,-1.9641,-2.0721,4.0799\C,0,-1.3055,0.3187,4.0697\C
 ,0,-0.3348,1.3129,4.0745\H,0,-2.356,0.5648,4.101\C,0,1.0119,0.9522,4.0
 421\C,0,1.3874,-0.3854,4.0159\H,0,1.7511,1.7388,4.053\C,0,0.4011,-1.37
 13,4.0115\C,0,2.8013,-0.7465,4.023\H,0,0.713,-2.4046,3.9975\C,0,-0.728
 6,2.7164,4.1421\H,0,3.4894,0.0908,3.8568\H,0,-1.5912,-3.0846,3.8858\H,
 0,-1.7993,2.8998,3.9937\C,0,-3.948,-1.6446,-0.083\C,0,-4.544,-1.5206,1
 .2397\C,0,-3.2155,-2.7806,-0.4276\C,0,-2.6765,-2.9176,-1.7008\H,0,-3.0
 908,-3.5541,0.3148\C,0,-2.8669,-1.9004,-2.6356\C,0,-3.5955,-0.7634,-2.
 3084\H,0,-2.4461,-2.0287,-3.6213\C,0,-4.1285,-0.6395,-1.0258\C,0,-3.81
 94,0.2728,-3.3115\H,0,-4.6962,0.2482,-0.7921\C,0,-1.943,-4.128,-2.0568
 \H,0,-3.2164,0.1682,-4.2211\H,0,-4.9458,-0.5269,1.4925\H,0,-1.7048,-4.
 7853,-1.2123\C,0,3.3532,-2.499,-0.2104\C,0,3.5679,-3.1322,1.0832\C,0,3
 .9764,-1.2905,-0.5214\C,0,3.8004,-0.7016,-1.7676\H,0,4.6084,-0.8337,0.
 2248\C,0,2.9824,-1.3261,-2.7084\C,0,2.356,-2.5316,-2.4146\H,0,2.863,-0
 .8566,-3.6728\C,0,2.5421,-3.11,-1.1592\C,0,1.5375,-3.1931,-3.4212\H,0,
 2.053,-4.0489,-0.9495\C,0,4.4892,0.5443,-2.0891\H,0,1.2872,-2.5888,-4.
 3071\H,0,2.9075,-3.9822,1.3156\H,0,4.961,1.0415,-1.2335\C,0,0.4643,4.2
 14,-0.044\C,0,0.9196,4.677,1.2596\C,0,-0.8977,4.1375,-0.334\C,0,-1.333
 8,3.73,-1.5892\H,0,-1.6019,4.4164,0.4348\C,0,-0.3937,3.3854,-2.56\C,0,
 0.9671,3.4564,-2.2863\H,0,-0.7493,3.0771,-3.5312\C,0,1.3889,3.867,-1.0
 22\C,0,1.9373,3.1279,-3.3214\H,0,2.4491,3.9224,-0.8282\C,0,-2.7582,3.6
 896,-1.8895\H,0,1.5305,2.639,-4.2204\H,0,1.9904,4.5319,1.4718\H,0,-3.4
 326,3.7937,-1.0252\C,0,-4.2269,-2.7546,4.4189\C,0,-5.2273,-2.3431,3.30
 95\N,0,-3.1621,-1.7918,4.3482\C,0,-3.838,-4.2241,4.2331\C,0,-4.8934,-2
 .5537,5.7858\N,0,-4.6262,-2.5017,2.0271\H,0,-5.5639,-1.3101,3.4934\H,0
 ,-6.0875,-3.0176,3.3581\H,0,-4.2124,-2.8631,6.5753\H,0,-5.8053,-3.1412
 ,5.855\H,0,-5.1322,-1.5036,5.9307\H,0,-3.4513,-4.3859,3.2306\H,0,-4.71
 77,-4.8479,4.3669\H,0,-3.0907,-4.5186,4.9676\C,0,4.5286,-2.3753,4.276\
 C,0,4.6607,-3.4016,3.1225\N,0,3.1612,-1.9339,4.2382\C,0,5.6038,-1.2958
 ,4.1216\C,0,4.7039,-3.1076,5.6124\N,0,4.4776,-2.7506,1.8681\H,0,3.9388
 ,-4.2185,3.2836\H,0,5.6766,-3.8074,3.1405\H,0,4.6404,-2.3957,6.4321\H,
 0,5.6694,-3.6054,5.6502\H,0,3.9158,-3.8452,5.7368\H,0,6.5857,-1.7498,4
 .2254\H,0,5.4934,-0.5323,4.8894\H,0,5.5386,-0.8392,3.1377\C,0,-0.1797,
 5.0152,4.4796\C,0,0.6257,5.6859,3.3382\N,0,0.1218,3.6129,4.3847\C,0,-1
 .6545,5.4106,4.3609\C,0,0.3857,5.4837,5.8263\N,0,0.1404,5.2406,2.0745\
 H,0,1.6971,5.4704,3.4787\H,0,0.4633,6.7664,3.3942\H,0,0.3357,6.5667,5.
 9044\H,0,1.4198,5.165,5.9248\H,0,-0.1881,5.0434,6.6384\H,0,-2.2497,4.9
 016,5.1168\H,0,-2.0304,5.1654,3.3712\H,0,-1.7518,6.4826,4.5097\C,0,-0.
 9389,-5.5418,-3.6973\C,0,0.3808,-5.0091,-4.3105\N,0,-1.6517,-4.3739,-3
 .2569\C,0,-0.6156,-6.592,-2.6307\C,0,-1.7876,-6.1653,-4.8125\N,0,1.173
 6,-4.3937,-3.2986\H,0,0.1423,-4.3206,-5.1372\H,0,0.9444,-5.8617,-4.701
 1\H,0,-2.0512,-5.4073,-5.545\H,0,-2.705,-6.5707,-4.3923\H,0,-1.2408,-6
 .9649,-5.3055\H,0,0.069,-6.1805,-1.8939\H,0,-0.1393,-7.4475,-3.1021\H,
 0,-1.5254,-6.9309,-2.1386\C,0,-4.9619,2.2325,-4.0553\C,0,-4.5885,3.546
 ,-3.3224\N,0,-4.6707,1.1806,-3.12\C,0,-4.2328,2.1768,-5.4009\C,0,-6.47
 95,2.2017,-4.2751\N,0,-3.1864,3.5782,-3.0698\H,0,-5.1855,3.6254,-2.399
 6\H,0,-4.8272,4.3857,-3.9817\H,0,-6.7989,3.0681,-4.8485\H,0,-6.9925,2.
 1974,-3.3173\H,0,-6.7538,1.2988,-4.8156\H,0,-4.5834,2.9883,-6.0329\H,0
 ,-4.4332,1.2341,-5.9067\H,0,-3.1626,2.2938,-5.253\C,0,5.1983,2.1754,-3
 .681\C,0,4.075,3.0826,-4.2442\N,0,4.539,0.9644,-3.2751\C,0,5.9684,2.93
 47,-2.5968\C,0,6.1422,1.7862,-4.8255\N,0,3.1583,3.4191,-3.2062\H,0,3.5
 869,2.5695,-5.0884\H,0,4.5311,4.0113,-4.5995\H,0,6.9545,1.1749,-4.4395
 \H,0,6.5593,2.674,-5.2937\H,0,5.6023,1.2085,-5.5707\H,0,6.4705,3.7883,
 -3.0443\H,0,6.7194,2.2931,-2.1397\H,0,5.284,3.299,-1.8354\\Version=ES6
 4L-G16RevC.01\State=1-A\HF=-2984.2854181\RMSD=2.233e-09\Dipole=0.06765
 02,0.0854769,-0.1264165\Quadrupole=0.0459927,0.4260985,-0.4720912,0.04
 6065,-0.0071964,-0.1764289\PG=C01 [X(C60H72N12)]\\@
 The archive entry for this job was punched.


 ... FOR AFTERWARDS A MAN FINDS PLEASURE IN HIS PAINS,
 WHEN HE HAS SUFFERED LONG AND WANDERED FAR.

                                    -- HOMER
 Job cpu time:       2 days  8 hours 50 minutes 17.9 seconds.
 Elapsed time:       0 days  1 hours 47 minutes 27.9 seconds.
 File lengths (MBytes):  RWF=   4088 Int=      0 D2E=      0 Chk=    416 Scr=     16
 Normal termination of Gaussian 16 at Sun Oct 17 23:35:42 2021.
