 Entering Gaussian System, Link 0=g16
 Initial command:
 /apps/gaussian/g16-c01-avx/g16/l1.exe "/rds/general/ephemeral/user/atarzia/ephemeral/xtb_spe_DFT/Gau-2807604.inp" -scrdir="/rds/general/ephemeral/user/atarzia/ephemeral/xtb_spe_DFT/"
 Entering Link 1 = /apps/gaussian/g16-c01-avx/g16/l1.exe PID=   2807605.
  
 Copyright (c) 1988-2019, Gaussian, Inc.  All Rights Reserved.
  
 This is part of the Gaussian(R) 16 program.  It is based on
 the Gaussian(R) 09 system (copyright 2009, Gaussian, Inc.),
 the Gaussian(R) 03 system (copyright 2003, Gaussian, Inc.),
 the Gaussian(R) 98 system (copyright 1998, Gaussian, Inc.),
 the Gaussian(R) 94 system (copyright 1995, Gaussian, Inc.),
 the Gaussian 92(TM) system (copyright 1992, Gaussian, Inc.),
 the Gaussian 90(TM) system (copyright 1990, Gaussian, Inc.),
 the Gaussian 88(TM) system (copyright 1988, Gaussian, Inc.),
 the Gaussian 86(TM) system (copyright 1986, Carnegie Mellon
 University), and the Gaussian 82(TM) system (copyright 1983,
 Carnegie Mellon University). Gaussian is a federally registered
 trademark of Gaussian, Inc.
  
 This software contains proprietary and confidential information,
 including trade secrets, belonging to Gaussian, Inc.
  
 This software is provided under written license and may be
 used, copied, transmitted, or stored only in accord with that
 written license.
  
 The following legend is applicable only to US Government
 contracts under FAR:
  
                    RESTRICTED RIGHTS LEGEND
  
 Use, reproduction and disclosure by the US Government is
 subject to restrictions as set forth in subparagraphs (a)
 and (c) of the Commercial Computer Software - Restricted
 Rights clause in FAR 52.227-19.
  
 Gaussian, Inc.
 340 Quinnipiac St., Bldg. 40, Wallingford CT 06492
  
  
 ---------------------------------------------------------------
 Warning -- This program may not be used in any manner that
 competes with the business of Gaussian, Inc. or will provide
 assistance to any competitor of Gaussian, Inc.  The licensee
 of this program is prohibited from giving any competitor of
 Gaussian, Inc. access to this program.  By using this program,
 the user acknowledges that Gaussian, Inc. is engaged in the
 business of creating and licensing software in the field of
 computational chemistry and represents and warrants to the
 licensee that it is not a competitor of Gaussian, Inc. and that
 it will not use this program in any manner prohibited above.
 ---------------------------------------------------------------
  

 Cite this work as:
 Gaussian 16, Revision C.01,
 M. J. Frisch, G. W. Trucks, H. B. Schlegel, G. E. Scuseria, 
 M. A. Robb, J. R. Cheeseman, G. Scalmani, V. Barone, 
 G. A. Petersson, H. Nakatsuji, X. Li, M. Caricato, A. V. Marenich, 
 J. Bloino, B. G. Janesko, R. Gomperts, B. Mennucci, H. P. Hratchian, 
 J. V. Ortiz, A. F. Izmaylov, J. L. Sonnenberg, D. Williams-Young, 
 F. Ding, F. Lipparini, F. Egidi, J. Goings, B. Peng, A. Petrone, 
 T. Henderson, D. Ranasinghe, V. G. Zakrzewski, J. Gao, N. Rega, 
 G. Zheng, W. Liang, M. Hada, M. Ehara, K. Toyota, R. Fukuda, 
 J. Hasegawa, M. Ishida, T. Nakajima, Y. Honda, O. Kitao, H. Nakai, 
 T. Vreven, K. Throssell, J. A. Montgomery, Jr., J. E. Peralta, 
 F. Ogliaro, M. J. Bearpark, J. J. Heyd, E. N. Brothers, K. N. Kudin, 
 V. N. Staroverov, T. A. Keith, R. Kobayashi, J. Normand, 
 K. Raghavachari, A. P. Rendell, J. C. Burant, S. S. Iyengar, 
 J. Tomasi, M. Cossi, J. M. Millam, M. Klene, C. Adamo, R. Cammi, 
 J. W. Ochterski, R. L. Martin, K. Morokuma, O. Farkas, 
 J. B. Foresman, and D. J. Fox, Gaussian, Inc., Wallingford CT, 2019.
 
 ******************************************
 Gaussian 16:  ES64L-G16RevC.01  3-Jul-2019
                 8-Nov-2021 
 ******************************************
 %chk=_ami1_opt_dcm_mp2.chk
 %mem=60000mb
 %nprocshared=32
 Will use up to   32 processors via shared memory.
 ----------------------------------------------------------------------
 #P MP2/aug-cc-pVDZ SP SCF=(YQC,MaxCycle=900) int=(Grid=Superfinegrid) 
 SCRF=(PCM,Solvent=Dichloromethane)
 ----------------------------------------------------------------------
 1/38=1,172=1/1;
 2/12=2,17=6,18=5,40=1/2;
 3/5=16,7=10,11=9,25=1,30=1,70=2201,72=9,75=-7/1,2,3;
 4//1;
 5/5=2,7=900,8=4,13=1,38=1,53=9/8,2,8;
 8/10=1/1;
 9/16=-3/6;
 6/7=2,8=2,9=2,10=2/1;
 99/5=1,9=1/99;
 Leave Link    1 at Mon Nov  8 15:35:12 2021, MaxMem=  7864320000 cpu:               5.9 elap:               0.2
 (Enter /apps/gaussian/g16-c01-avx/g16/l101.exe)
 -----------------
 _ami1_opt_dcm_mp2
 -----------------
 Symbolic Z-matrix:
 Charge =  0 Multiplicity = 1
 C                    -0.3403   -0.542    -0.5853 
 C                     0.8707   -0.479     0.3837 
 N                    -0.1793   -1.7379   -1.408 
 H                    -0.3551    0.389    -1.1794 
 C                    -1.6964   -0.6288    0.1504 
 N                     0.9712   -1.6686    1.2164 
 H                     0.7426    0.3854    1.0425 
 C                     2.2266   -0.2973   -0.3326 
 H                    -0.9554   -1.8365   -2.0514 
 H                     0.6652   -1.6647   -1.964 
 H                     0.9429   -2.4817    0.608 
 H                     0.1715   -1.7307    1.8362 
 H                    -1.7671   -1.6203    0.61 
 C                    -2.8556   -0.4815   -0.8388 
 C                    -1.8445    0.4409    1.2326 
 H                     2.4545   -1.2193   -0.8775 
 C                     3.3143   -0.1013    0.7229 
 C                     2.2398    0.8796   -1.3059 
 H                    -1.1666    0.275     2.0653 
 H                    -2.8597    0.4295    1.624 
 H                    -1.6507    1.4282    0.8176 
 H                    -3.8044   -0.5163   -0.3078 
 H                    -2.8633   -1.2804   -1.5762 
 H                    -2.7907    0.4726   -1.3594 
 H                     1.6127    0.6996   -2.1759 
 H                     3.2545    1.0518   -1.6589 
 H                     1.8934    1.7847   -0.8109 
 H                     3.2572   -0.8985    1.4574 
 H                     3.1787    0.8509    1.2314 
 H                     4.2993   -0.1098    0.262 
 
 ITRead=  0  0  0  0  0  0  0  0  0  0  0  0  0  0  0  0  0  0  0  0
 ITRead=  0  0  0  0  0  0  0  0  0  0
 MicOpt= -1 -1 -1 -1 -1 -1 -1 -1 -1 -1 -1 -1 -1 -1 -1 -1 -1 -1 -1 -1
 MicOpt= -1 -1 -1 -1 -1 -1 -1 -1 -1 -1
 NAtoms=     30 NQM=       30 NQMF=       0 NMMI=      0 NMMIF=      0
                NMic=       0 NMicF=      0.
                    Isotopes and Nuclear Properties:
 (Nuclear quadrupole moments (NQMom) in fm**2, nuclear magnetic moments (NMagM)
  in nuclear magnetons)

  Atom         1           2           3           4           5           6           7           8           9          10
 IAtWgt=          12          12          14           1          12          14           1          12           1           1
 AtmWgt=  12.0000000  12.0000000  14.0030740   1.0078250  12.0000000  14.0030740   1.0078250  12.0000000   1.0078250   1.0078250
 NucSpn=           0           0           2           1           0           2           1           0           1           1
 AtZEff=  -0.0000000  -0.0000000  -0.0000000  -0.0000000  -0.0000000  -0.0000000  -0.0000000  -0.0000000  -0.0000000  -0.0000000
 NQMom=    0.0000000   0.0000000   2.0440000   0.0000000   0.0000000   2.0440000   0.0000000   0.0000000   0.0000000   0.0000000
 NMagM=    0.0000000   0.0000000   0.4037610   2.7928460   0.0000000   0.4037610   2.7928460   0.0000000   2.7928460   2.7928460
 AtZNuc=   6.0000000   6.0000000   7.0000000   1.0000000   6.0000000   7.0000000   1.0000000   6.0000000   1.0000000   1.0000000

  Atom        11          12          13          14          15          16          17          18          19          20
 IAtWgt=           1           1           1          12          12           1          12          12           1           1
 AtmWgt=   1.0078250   1.0078250   1.0078250  12.0000000  12.0000000   1.0078250  12.0000000  12.0000000   1.0078250   1.0078250
 NucSpn=           1           1           1           0           0           1           0           0           1           1
 AtZEff=  -0.0000000  -0.0000000  -0.0000000  -0.0000000  -0.0000000  -0.0000000  -0.0000000  -0.0000000  -0.0000000  -0.0000000
 NQMom=    0.0000000   0.0000000   0.0000000   0.0000000   0.0000000   0.0000000   0.0000000   0.0000000   0.0000000   0.0000000
 NMagM=    2.7928460   2.7928460   2.7928460   0.0000000   0.0000000   2.7928460   0.0000000   0.0000000   2.7928460   2.7928460
 AtZNuc=   1.0000000   1.0000000   1.0000000   6.0000000   6.0000000   1.0000000   6.0000000   6.0000000   1.0000000   1.0000000

  Atom        21          22          23          24          25          26          27          28          29          30
 IAtWgt=           1           1           1           1           1           1           1           1           1           1
 AtmWgt=   1.0078250   1.0078250   1.0078250   1.0078250   1.0078250   1.0078250   1.0078250   1.0078250   1.0078250   1.0078250
 NucSpn=           1           1           1           1           1           1           1           1           1           1
 AtZEff=  -0.0000000  -0.0000000  -0.0000000  -0.0000000  -0.0000000  -0.0000000  -0.0000000  -0.0000000  -0.0000000  -0.0000000
 NQMom=    0.0000000   0.0000000   0.0000000   0.0000000   0.0000000   0.0000000   0.0000000   0.0000000   0.0000000   0.0000000
 NMagM=    2.7928460   2.7928460   2.7928460   2.7928460   2.7928460   2.7928460   2.7928460   2.7928460   2.7928460   2.7928460
 AtZNuc=   1.0000000   1.0000000   1.0000000   1.0000000   1.0000000   1.0000000   1.0000000   1.0000000   1.0000000   1.0000000
 Leave Link  101 at Mon Nov  8 15:35:13 2021, MaxMem=  7864320000 cpu:               1.9 elap:               0.1
 (Enter /apps/gaussian/g16-c01-avx/g16/l202.exe)
                          Input orientation:                          
 ---------------------------------------------------------------------
 Center     Atomic      Atomic             Coordinates (Angstroms)
 Number     Number       Type             X           Y           Z
 ---------------------------------------------------------------------
      1          6           0       -0.340300   -0.542000   -0.585300
      2          6           0        0.870700   -0.479000    0.383700
      3          7           0       -0.179300   -1.737900   -1.408000
      4          1           0       -0.355100    0.389000   -1.179400
      5          6           0       -1.696400   -0.628800    0.150400
      6          7           0        0.971200   -1.668600    1.216400
      7          1           0        0.742600    0.385400    1.042500
      8          6           0        2.226600   -0.297300   -0.332600
      9          1           0       -0.955400   -1.836500   -2.051400
     10          1           0        0.665200   -1.664700   -1.964000
     11          1           0        0.942900   -2.481700    0.608000
     12          1           0        0.171500   -1.730700    1.836200
     13          1           0       -1.767100   -1.620300    0.610000
     14          6           0       -2.855600   -0.481500   -0.838800
     15          6           0       -1.844500    0.440900    1.232600
     16          1           0        2.454500   -1.219300   -0.877500
     17          6           0        3.314300   -0.101300    0.722900
     18          6           0        2.239800    0.879600   -1.305900
     19          1           0       -1.166600    0.275000    2.065300
     20          1           0       -2.859700    0.429500    1.624000
     21          1           0       -1.650700    1.428200    0.817600
     22          1           0       -3.804400   -0.516300   -0.307800
     23          1           0       -2.863300   -1.280400   -1.576200
     24          1           0       -2.790700    0.472600   -1.359400
     25          1           0        1.612700    0.699600   -2.175900
     26          1           0        3.254500    1.051800   -1.658900
     27          1           0        1.893400    1.784700   -0.810900
     28          1           0        3.257200   -0.898500    1.457400
     29          1           0        3.178700    0.850900    1.231400
     30          1           0        4.299300   -0.109800    0.262000
 ---------------------------------------------------------------------
                    Distance matrix (angstroms):
                    1          2          3          4          5
     1  C    0.000000
     2  C    1.552241   0.000000
     3  N    1.460456   2.428481   0.000000
     4  H    1.104507   2.167785   2.146361   0.000000
     5  C    1.545249   2.582029   2.441374   2.145547   0.000000
     6  N    2.497075   1.455554   2.866344   3.425295   3.055099
     7  H    2.163903   1.094356   3.370942   2.478265   2.788040
     8  C    2.590890   1.544204   3.003360   2.802366   3.966498
     9  H    2.050251   3.332741   1.012925   2.464466   2.618309
    10  H    2.042621   2.638145   1.013743   2.423694   3.334806
    11  H    2.614001   2.016514   2.424217   3.622226   3.257075
    12  H    2.745653   2.040929   3.263119   3.723477   2.746845
    13  H    2.151100   2.883013   2.570460   3.038582   1.095127
    14  C    2.528766   3.921712   3.010832   2.669509   1.530999
    15  C    2.556065   2.989843   3.806945   2.835269   1.528839
    16  H    2.890506   2.155711   2.736289   3.251403   4.316855
    17  C    3.906623   2.495775   4.407316   4.162167   5.070811
    18  C    3.032677   2.564172   3.565638   2.643898   4.459793
    19  H    2.894122   2.747160   4.134047   3.346581   2.182747
    20  H    3.488867   4.034799   4.590772   3.759483   2.155171
    21  H    2.750812   3.191103   4.140351   2.597407   2.162983
    22  H    3.475292   4.726111   3.980464   3.671093   2.160155
    23  H    2.809385   4.292576   2.727903   3.038982   2.183434
    24  H    2.762807   4.165308   3.421707   2.443673   2.165657
    25  H    2.808165   2.913969   3.121272   2.227492   4.257518
    26  H    4.076200   3.492573   4.431293   3.701140   5.532576
    27  H    3.233240   2.756324   4.130536   2.671989   4.431224
    28  H    4.152315   2.650320   4.552433   4.653932   5.130218
    29  H    4.198087   2.795370   4.994445   4.302679   5.208135
    30  H    4.736096   3.450568   5.049502   4.897946   6.019156
                    6          7          8          9         10
     6  N    0.000000
     7  H    2.073985   0.000000
     8  C    2.419895   2.135237   0.000000
     9  H    3.797169   4.170403   3.930462   0.000000
    10  H    3.195089   3.639772   2.639928   1.632023   0.000000
    11  H    1.015915   2.906746   2.702632   3.330501   2.712893
    12  H    1.013671   2.331093   3.313875   4.049016   3.832703
    13  H    2.805056   3.241679   4.311434   2.790815   3.541685
    14  C    4.503049   4.151849   5.110668   2.630054   3.880988
    15  C    3.518298   2.594669   4.423646   4.094106   4.577160
    16  H    2.605085   3.031842   1.094960   3.658742   2.140200
    17  C    2.861833   2.636790   1.528263   5.379405   4.084285
    18  C    3.803244   2.828573   1.527279   4.259375   3.063645
    19  H    3.011379   2.168721   4.194193   4.631442   4.832513
    20  H    4.386793   3.649199   5.497906   4.719076   5.448333
    21  H    4.077201   2.620286   4.397018   4.401462   4.760958
    22  H    5.143670   4.828207   6.035026   3.591639   4.902973
    23  H    4.759486   4.757625   5.331051   2.043317   3.570488
    24  H    5.037001   4.273282   5.178838   3.029708   4.108143
    25  H    4.186597   3.348715   2.183675   3.611432   2.555890
    26  H    4.569615   3.748505   2.153072   5.120507   3.765227
    27  H    4.109219   2.591809   2.162063   4.771540   3.838812
    28  H    2.424238   2.853726   2.151204   5.562151   4.360218
    29  H    3.349800   2.487359   2.161239   5.923654   4.780848
    30  H    3.796971   3.674849   2.164438   5.995430   4.536460
                   11         12         13         14         15
    11  H    0.000000
    12  H    1.633259   0.000000
    13  H    2.843609   2.296503   0.000000
    14  C    4.530191   4.228411   2.140261   0.000000
    15  C    4.086724   3.023977   2.154569   2.482709   0.000000
    16  H    2.466840   3.582986   4.493925   5.361251   5.068549
    17  C    3.362000   3.711007   5.304784   6.375823   5.212197
    18  C    4.079620   4.578681   5.096609   5.294703   4.828866
    19  H    3.764719   2.421948   2.463871   3.443662   1.086490
    20  H    4.895621   3.728226   2.534492   2.625894   1.088097
    21  H    4.696596   3.786371   3.057777   2.800428   1.088368
    22  H    5.219037   4.677530   2.492341   1.087839   2.670257
    23  H    4.549836   4.588818   2.469141   1.087225   3.448215
    24  H    5.151536   4.882727   3.050660   1.088827   2.759486
    25  H    4.280117   4.907175   4.956432   4.811293   4.861793
    26  H    4.792489   5.427976   6.124091   6.352708   5.893536
    27  H    4.595530   4.725475   5.197330   5.262076   4.466944
    28  H    2.929844   3.218321   5.146132   6.543145   5.279382
    29  H    4.061238   4.009201   5.563623   6.517192   5.039905
    30  H    4.124445   4.705758   6.261304   7.248622   6.244326
                   16         17         18         19         20
    16  H    0.000000
    17  C    2.133181   0.000000
    18  C    2.152906   2.496547   0.000000
    19  H    4.899527   4.692771   4.830537   0.000000
    20  H    6.100555   6.261949   5.898458   1.756475   0.000000
    21  H    5.170618   5.196110   4.466117   1.766629   1.763339
    22  H    6.323970   7.204891   6.283080   3.635347   2.349223
    23  H    5.363852   6.696184   5.547999   4.307967   3.628368
    24  H    5.532348   6.475829   5.047221   3.795434   2.984509
    25  H    2.465086   3.455420   1.087453   5.088474   5.874909
    26  H    2.531498   2.646920   1.088062   5.832599   6.967649
    27  H    3.056679   2.815758   1.088221   4.462658   5.509743
    28  H    2.489779   1.085485   3.439850   4.616996   6.261614
    29  H    3.042639   1.087954   2.705596   4.461915   6.065805
    30  H    2.435721   1.087532   2.771058   5.768537   7.307337
                   21         22         23         24         25
    21  H    0.000000
    22  H    3.112239   0.000000
    23  H    3.812767   1.754525   0.000000
    24  H    2.636684   1.763909   1.767847   0.000000
    25  H    4.487948   5.857746   4.930985   4.484209   0.000000
    26  H    5.507787   7.356118   6.547784   6.080264   1.756941
    27  H    3.916599   6.165439   5.710229   4.895227   1.766199
    28  H    5.469036   7.288910   6.841717   6.811121   4.296414
    29  H    4.881353   7.280251   6.995057   6.518366   3.752991
    30  H    6.170627   8.133872   7.486797   7.296316   3.717029
                   26         27         28         29         30
    26  H    0.000000
    27  H    1.763190   0.000000
    28  H    3.676276   3.768912   0.000000
    29  H    2.898265   2.587464   1.765684   0.000000
    30  H    2.476041   3.244780   1.771158   1.765906   0.000000
 Stoichiometry    C8H20N2
 Framework group  C1[X(C8H20N2)]
 Deg. of freedom    84
 Full point group                 C1      NOp   1
 Largest Abelian subgroup         C1      NOp   1
 Largest concise Abelian subgroup C1      NOp   1
                         Standard orientation:                         
 ---------------------------------------------------------------------
 Center     Atomic      Atomic             Coordinates (Angstroms)
 Number     Number       Type             X           Y           Z
 ---------------------------------------------------------------------
      1          6           0        0.618982    0.480147    0.053387
      2          6           0       -0.619682   -0.455141    0.073408
      3          7           0        0.572939    1.291547    1.266829
      4          1           0        0.578881    1.085463   -0.869608
      5          6           0        1.956828   -0.292709    0.027762
      6          7           0       -0.651800   -1.299952    1.258271
      7          1           0       -0.576490   -1.106060   -0.805258
      8          6           0       -1.965137    0.299529    0.004197
      9          1           0        1.371849    1.912589    1.312286
     10          1           0       -0.258948    1.870887    1.264741
     11          1           0       -0.544438   -0.702951    2.073222
     12          1           0        0.132817   -1.941720    1.252058
     13          1           0        2.090508   -0.766650    1.005930
     14          6           0        3.128314    0.666841   -0.197723
     15          6           0        1.992488   -1.364760   -1.061634
     16          1           0       -2.106541    0.838541    0.946751
     17          6           0       -3.093497   -0.723831   -0.118788
     18          6           0       -2.041470    1.287766   -1.157759
     19          1           0        1.306466   -2.181026   -0.852962
     20          1           0        2.994336   -1.783362   -1.132537
     21          1           0        1.735203   -0.932151   -2.026621
     22          1           0        4.061905    0.110183   -0.241676
     23          1           0        3.217632    1.393519    0.606031
     24          1           0        3.004971    1.201122   -1.138400
     25          1           0       -1.378546    2.138266   -1.017271
     26          1           0       -3.056202    1.670023   -1.247619
     27          1           0       -1.779281    0.795238   -2.092049
     28          1           0       -2.995877   -1.469707    0.663783
     29          1           0       -3.045390   -1.223598   -1.083963
     30          1           0       -4.061794   -0.236823   -0.029628
 ---------------------------------------------------------------------
 Rotational constants (GHZ):           2.0083037           0.7688080           0.7210682
 Leave Link  202 at Mon Nov  8 15:35:13 2021, MaxMem=  7864320000 cpu:               0.3 elap:               0.0
 (Enter /apps/gaussian/g16-c01-avx/g16/l301.exe)
 Standard basis: Aug-CC-pVDZ (5D, 7F)
 Ernie: Thresh=  0.10000D-02 Tol=  0.10000D-05 Strict=F.
 Ernie:  20 primitive shells out of 390 were deleted.
 There are   430 symmetry adapted cartesian basis functions of A   symmetry.
 There are   410 symmetry adapted basis functions of A   symmetry.
   410 basis functions,   650 primitive gaussians,   430 cartesian basis functions
    41 alpha electrons       41 beta electrons
       nuclear repulsion energy       611.5902326235 Hartrees.
 IExCor=    0 DFT=F Ex=HF Corr=None ExCW=0 ScaHFX=  1.000000
 ScaDFX=  1.000000  1.000000  1.000000  1.000000 ScalE2=  1.000000  1.000000
 IRadAn=      7 IRanWt=     -1 IRanGd=            0 ICorTp=0 IEmpDi=  4
 NAtoms=   30 NActive=   30 NUniq=   30 SFac= 1.00D+00 NAtFMM=   60 NAOKFM=F Big=F
 Integral buffers will be    131072 words long.
 Raffenetti 1 integral format.
 Two-electron integral symmetry is turned on.
 ------------------------------------------------------------------------------
 Polarizable Continuum Model (PCM)
 =================================
 Model                : PCM.
 Atomic radii         : UFF (Universal Force Field).
 Polarization charges : Total charges.
 Charge compensation  : None.
 Solution method      : On-the-fly selection.
 Cavity type          : Scaled VdW (van der Waals Surface) (Alpha=1.100).
 Cavity algorithm     : GePol (No added spheres)
                        Default sphere list used, NSphG=   30.
                        Lebedev-Laikov grids with approx.  5.0 points / Ang**2.
                        Smoothing algorithm: York/Karplus (Gamma=1.0000).
                        Polarization charges: spherical gaussians, with
                                              point-specific exponents (IZeta= 3).
                        Self-potential: point-specific (ISelfS= 7).
                        Self-field    : sphere-specific E.n sum rule (ISelfD= 2).
 Solvent              : Dichloromethane, Eps=   8.930000 Eps(inf)=   2.028346
 ------------------------------------------------------------------------------
 GePol: Number of generator spheres                  =      30
 GePol: Total number of spheres                      =      30
 GePol: Number of exposed spheres                    =      30 (100.00%)
 GePol: Number of points                             =    1818
 GePol: Average weight of points                     =       0.13
 GePol: Minimum weight of points                     =   0.14D-11
 GePol: Maximum weight of points                     =    0.20577
 GePol: Number of points with low weight             =     131
 GePol: Fraction of low-weight points (<1% of avg)   =       7.21%
 GePol: Cavity surface area                          =    242.140 Ang**2
 GePol: Cavity volume                                =    257.664 Ang**3
 Leave Link  301 at Mon Nov  8 15:35:14 2021, MaxMem=  7864320000 cpu:               3.5 elap:               0.1
 (Enter /apps/gaussian/g16-c01-avx/g16/l302.exe)
 NPDir=0 NMtPBC=     1 NCelOv=     1 NCel=       1 NClECP=     1 NCelD=      1
         NCelK=      1 NCelE2=     1 NClLst=     1 CellRange=     0.0.
 One-electron integrals computed using PRISM.
 One-electron integral symmetry used in STVInt
 NBasis=   410 RedAO= T EigKep=  2.51D-06  NBF=   410
 NBsUse=   410 1.00D-06 EigRej= -1.00D+00 NBFU=   410
 Leave Link  302 at Mon Nov  8 15:35:15 2021, MaxMem=  7864320000 cpu:              11.2 elap:               0.4
 (Enter /apps/gaussian/g16-c01-avx/g16/l303.exe)
 DipDrv:  MaxL=1.
 Leave Link  303 at Mon Nov  8 15:35:15 2021, MaxMem=  7864320000 cpu:               1.7 elap:               0.1
 (Enter /apps/gaussian/g16-c01-avx/g16/l401.exe)
 ExpMin= 2.97D-02 ExpMax= 9.05D+03 ExpMxC= 3.09D+02 IAcc=3 IRadAn=         7 AccDes= 0.00D+00
 Harris functional with IExCor=  205 and IRadAn=       7 diagonalized for initial guess.
 HarFok:  IExCor=  205 AccDes= 0.00D+00 IRadAn=         7 IDoV= 1 UseB2=F ITyADJ=14
 ICtDFT=  3500011 ScaDFX=  1.000000  1.000000  1.000000  1.000000
 FoFCou: FMM=F IPFlag=           0 FMFlag=      100000 FMFlg1=           0
         NFxFlg=           0 DoJE=T BraDBF=F KetDBF=T FulRan=T
         wScrn=  0.000000 ICntrl=       500 IOpCl=  0 I1Cent=   200000004 NGrid=           0
         NMat0=    1 NMatS0=      1 NMatT0=    0 NMatD0=    1 NMtDS0=    0 NMtDT0=    0
 Petite list used in FoFCou.
 Harris En= -424.512811235112    
 JPrj=0 DoOrth=F DoCkMO=F.
 Leave Link  401 at Mon Nov  8 15:35:18 2021, MaxMem=  7864320000 cpu:              80.9 elap:               2.6
 (Enter /apps/gaussian/g16-c01-avx/g16/l508.exe)
 Integral symmetry usage will be decided dynamically.
 Tight linear equation convergence will be used.
 RHF wavefunction.
 Linear searches until partial convergence.
 Full line searches.
 Fock matrices will be formed incrementally for  20 cycles.
 Inv3:  Mode=1 IEnd=     9915372.
 Iteration    1 A*A^-1 deviation from unit magnitude is 3.55D-15 for   1791.
 Iteration    1 A*A^-1 deviation from orthogonality  is 2.92D-15 for   1781    471.
 Iteration    1 A^-1*A deviation from unit magnitude is 3.55D-15 for   1791.
 Iteration    1 A^-1*A deviation from orthogonality  is 2.09D-15 for   1462   1433.
 FoFJK:  IHMeth= 1 ICntrl=       0 DoSepK=F KAlg= 0 I1Cent=           0 FoldK=F
 IRaf= 980000000 NMat=       1 IRICut=       1 DoRegI=T DoRafI=F ISym2E= 1 IDoP0=0 IntGTp=1.
 Iteration   1 EE= -422.931795404302                                    Grad=1.187D+00 Max rot=    3.0370 deg.
 Gradient too large for Newton-Raphson -- use scaled steepest descent instead.
 Alpha Gap=     0.421 HL deriv= 1.40D-02
     ILin= 1 X=0.000D+00 Y=-4.229317954043D+02 DE= 0.00D+00 F= -2.14D+00
 RMSU=  4.72D-03    CP:  7.62D-01
     ILin= 2 X=3.000D-01 Y=-4.233941819022D+02 DE=-4.62D-01 F= -9.40D-01 OKLS=F
 RMSU=  8.83D-04    CP:  6.36D-01  1.52D+00
     ILin= 3 X=5.000D-01 Y=-4.235015187984D+02 DE=-5.70D-01 F= -1.33D-01
 RMSU=  8.73D-04    CP:  4.95D-01  2.10D+00  3.00D+00
     ILin= 4 X=8.000D-01 Y=-4.233606928938D+02 DE=-4.29D-01 F=  1.07D+00
     An  expanding polynomial of degree  4 produced  0.5334
     Minimum is close to point  3 DX=  3.34D-02 DF= -2.25D-03 DXR=  6.26D-02 DFR=  3.94D-03 which will be used.
 Iteration   2 EE= -423.501518798416     Delta-E=       -0.569723394115 Grad=3.798D-01 Max rot=    1.1060 deg.
 Gradient too large for Newton-Raphson -- use scaled steepest descent instead.
 Alpha Gap=     0.521 HL deriv= 4.16D-03
     ILin= 1 X=0.000D+00 Y=-4.235015187984D+02 DE= 0.00D+00 F= -6.22D-02
 RMSU=  1.80D-03    CP:  5.38D-01  1.72D+00  1.82D+00  1.91D-02
     ILin= 2 X=4.000D-01 Y=-4.235217239931D+02 DE=-2.02D-02 F= -3.88D-02 OKLS=F
 RMSU=  3.13D-04    CP:  4.59D-01  1.87D+00  3.00D+00  1.21D-01  1.88D+00
     ILin= 3 X=8.000D-01 Y=-4.235325718447D+02 DE=-3.11D-02 F= -1.54D-02
 RMSU=  1.41D-03    CP:  3.57D-01  1.98D+00  3.00D+00  3.00D+00  3.00D+00
                    CP:  3.00D+00
     ILin= 4 X=1.600D+00 Y=-4.235261814013D+02 DE=-2.47D-02 F=  3.14D-02
     An  expanding polynomial of degree  4 produced  1.0635
 RMSU=  1.80D-05    CP:  4.17D-01  1.93D+00  3.00D+00  1.22D+00  2.39D+00
                    CP:  2.21D+00  5.78D-04
 Iteration   3 EE= -423.534603412013     Delta-E=       -0.033084613596 Grad=4.475D-02 Max rot=    0.0773 deg.
 Gradient too large for Newton-Raphson -- use scaled steepest descent instead.
 Alpha Gap=     0.520 HL deriv= 9.36D-04
     ILin= 1 X=0.000D+00 Y=-4.235346034120D+02 DE= 0.00D+00 F= -2.69D-03
 RMSU=  6.20D-04    CP:  4.13D-01  1.94D+00  3.00D+00  1.67D+00  2.53D+00
                    CP:  3.00D+00  3.26D-02 -7.63D-01
     ILin= 2 X=8.000D-01 Y=-4.235356179645D+02 DE=-1.01D-03 F=  1.51D-04 OKLS=T
     Accept linear search using points  1 and  2.
     An  expanding polynomial of degree  2 produced  0.7229
 RMSU=  1.83D-05    CP:  4.13D-01  1.94D+00  3.00D+00  1.63D+00  2.52D+00
                    CP:  3.00D+00  1.79D-02 -5.56D-01  9.00D-01
 Iteration   4 EE= -423.535619044144     Delta-E=       -0.001015632132 Grad=1.504D-02 Max rot=    0.0441 deg.
 Gradient too large for Newton-Raphson -- use scaled steepest descent instead.
 Alpha Gap=     0.523 HL deriv= 6.24D-04
     ILin= 1 X=0.000D+00 Y=-4.235356190441D+02 DE= 0.00D+00 F= -3.67D-04
 RMSU=  1.61D-04    CP:  4.11D-01  1.95D+00  3.00D+00  1.86D+00  2.58D+00
                    CP:  3.00D+00  8.94D-02 -3.69D-01  1.22D+00 -3.00D+00
     ILin= 2 X=9.000D-01 Y=-4.235357651242D+02 DE=-1.46D-04 F=  4.26D-05 OKLS=T
     Accept linear search using points  1 and  2.
     An  expanding polynomial of degree  2 produced  0.7830
 RMSU=  9.62D-06    CP:  4.11D-01  1.95D+00  3.00D+00  1.83D+00  2.57D+00
                    CP:  3.00D+00  8.00D-02 -3.96D-01  1.18D+00 -3.00D+00
                    CP:  8.62D-01
 Iteration   5 EE= -423.535766989220     Delta-E=       -0.000147945076 Grad=7.127D-03 Max rot=    0.0184 deg.
 SCF Done:  E(RHF) =  -423.535766989     a.u. after    5 cycles
            Convg  =    0.7127D-02                    12 Fock formations.
              S**2 =  0.0000                  -V/T =  2.0007
 Leave Link  508 at Mon Nov  8 15:36:12 2021, MaxMem=  7864320000 cpu:            1647.4 elap:              52.6
 (Enter /apps/gaussian/g16-c01-avx/g16/l502.exe)
 Integral symmetry usage will be decided dynamically.
 Closed shell SCF:
 Using DIIS extrapolation, IDIIS=  1040.
 NGot=  7864320000 LenX=  7863931474 LenY=  7863746133
 Requested convergence on RMS density matrix=1.00D-08 within 128 cycles.
 Requested convergence on MAX density matrix=1.00D-06.
 Requested convergence on             energy=1.00D-06.
 No special actions if energy rises.
 Fock matrices will be formed incrementally for  20 cycles.

 Cycle   1  Pass 1  IDiag  1:
 FoFJK:  IHMeth= 1 ICntrl=       0 DoSepK=F KAlg= 0 I1Cent=           0 FoldK=F
 IRaf= 980000000 NMat=       1 IRICut=       1 DoRegI=T DoRafI=F ISym2E= 0 IDoP0=0 IntGTp=1.
 FoFCou: FMM=F IPFlag=           0 FMFlag=      100000 FMFlg1=           0
         NFxFlg=           0 DoJE=F BraDBF=F KetDBF=F FulRan=T
         wScrn=  0.000000 ICntrl=         0 IOpCl=  0 I1Cent=           0 NGrid=           0
         NMat0=    1 NMatS0=      1 NMatT0=    0 NMatD0=    1 NMtDS0=    0 NMtDT0=    0
 Symmetry not used in FoFCou.
 E= -423.535766989219    
 DIIS: error= 1.47D-04 at cycle   1 NSaved=   1.
 NSaved= 1 IEnMin= 1 EnMin= -423.535766989219     IErMin= 1 ErrMin= 1.47D-04
 ErrMax= 1.47D-04  0.00D+00 EMaxC= 1.00D-01 BMatC= 2.54D-05 BMatP= 2.54D-05
 IDIUse=3 WtCom= 9.99D-01 WtEn= 1.47D-03
 Coeff-Com:  0.100D+01
 Coeff-En:   0.100D+01
 Coeff:      0.100D+01
 Gap=     0.521 Goal=   None    Shift=    0.000
 RMSDP=2.68D-04 MaxDP=3.90D-02              OVMax= 1.15D-03

 Cycle   2  Pass 1  IDiag  1:
 RMSU=  2.65D-04    CP:  1.00D+00
 E= -423.535801879120     Delta-E=       -0.000034889901 Rises=F Damp=F
 DIIS: error= 5.53D-05 at cycle   2 NSaved=   2.
 NSaved= 2 IEnMin= 2 EnMin= -423.535801879120     IErMin= 2 ErrMin= 5.53D-05
 ErrMax= 5.53D-05  0.00D+00 EMaxC= 1.00D-01 BMatC= 5.16D-06 BMatP= 2.54D-05
 IDIUse=1 WtCom= 1.00D+00 WtEn= 0.00D+00
 Coeff-Com:  0.238D+00 0.762D+00
 Coeff:      0.238D+00 0.762D+00
 Gap=     0.410 Goal=   None    Shift=    0.000
 RMSDP=3.58D-05 MaxDP=5.02D-03 DE=-3.49D-05 OVMax= 4.67D-04

 Cycle   3  Pass 1  IDiag  1:
 RMSU=  2.95D-05    CP:  1.00D+00  1.04D+00
 E= -423.535807605852     Delta-E=       -0.000005726732 Rises=F Damp=F
 DIIS: error= 2.67D-05 at cycle   3 NSaved=   3.
 NSaved= 3 IEnMin= 3 EnMin= -423.535807605852     IErMin= 3 ErrMin= 2.67D-05
 ErrMax= 2.67D-05  0.00D+00 EMaxC= 1.00D-01 BMatC= 4.55D-07 BMatP= 5.16D-06
 IDIUse=1 WtCom= 1.00D+00 WtEn= 0.00D+00
 Coeff-Com: -0.145D+00-0.189D-01 0.116D+01
 Coeff:     -0.145D+00-0.189D-01 0.116D+01
 Gap=     0.410 Goal=   None    Shift=    0.000
 RMSDP=2.49D-05 MaxDP=1.75D-03 DE=-5.73D-06 OVMax= 2.16D-04

 Cycle   4  Pass 1  IDiag  1:
 RMSU=  1.04D-05    CP:  1.00D+00  1.11D+00  1.35D+00
 E= -423.535808552167     Delta-E=       -0.000000946315 Rises=F Damp=F
 DIIS: error= 2.32D-06 at cycle   4 NSaved=   4.
 NSaved= 4 IEnMin= 4 EnMin= -423.535808552167     IErMin= 4 ErrMin= 2.32D-06
 ErrMax= 2.32D-06  0.00D+00 EMaxC= 1.00D-01 BMatC= 9.40D-09 BMatP= 4.55D-07
 IDIUse=1 WtCom= 1.00D+00 WtEn= 0.00D+00
 Coeff-Com: -0.990D-02-0.185D-01 0.249D-01 0.100D+01
 Coeff:     -0.990D-02-0.185D-01 0.249D-01 0.100D+01
 Gap=     0.410 Goal=   None    Shift=    0.000
 RMSDP=4.16D-06 MaxDP=8.09D-04 DE=-9.46D-07 OVMax= 4.04D-05

 Cycle   5  Pass 1  IDiag  1:
 RMSU=  1.65D-06    CP:  1.00D+00  1.10D+00  1.39D+00  1.16D+00
 E= -423.535808571269     Delta-E=       -0.000000019102 Rises=F Damp=F
 DIIS: error= 1.04D-06 at cycle   5 NSaved=   5.
 NSaved= 5 IEnMin= 5 EnMin= -423.535808571269     IErMin= 5 ErrMin= 1.04D-06
 ErrMax= 1.04D-06  0.00D+00 EMaxC= 1.00D-01 BMatC= 1.17D-09 BMatP= 9.40D-09
 IDIUse=1 WtCom= 1.00D+00 WtEn= 0.00D+00
 Coeff-Com:  0.143D-01 0.399D-03-0.121D+00 0.141D+00 0.966D+00
 Coeff:      0.143D-01 0.399D-03-0.121D+00 0.141D+00 0.966D+00
 Gap=     0.410 Goal=   None    Shift=    0.000
 RMSDP=1.54D-06 MaxDP=2.99D-04 DE=-1.91D-08 OVMax= 1.28D-05

 Cycle   6  Pass 1  IDiag  1:
 RMSU=  5.03D-07    CP:  1.00D+00  1.09D+00  1.39D+00  1.19D+00  1.15D+00
 E= -423.535808573398     Delta-E=       -0.000000002129 Rises=F Damp=F
 DIIS: error= 1.49D-07 at cycle   6 NSaved=   6.
 NSaved= 6 IEnMin= 6 EnMin= -423.535808573398     IErMin= 6 ErrMin= 1.49D-07
 ErrMax= 1.49D-07  0.00D+00 EMaxC= 1.00D-01 BMatC= 4.27D-11 BMatP= 1.17D-09
 IDIUse=1 WtCom= 1.00D+00 WtEn= 0.00D+00
 Coeff-Com: -0.151D-02 0.995D-03 0.153D-01-0.527D-01-0.149D+00 0.119D+01
 Coeff:     -0.151D-02 0.995D-03 0.153D-01-0.527D-01-0.149D+00 0.119D+01
 Gap=     0.410 Goal=   None    Shift=    0.000
 RMSDP=2.22D-07 MaxDP=1.46D-05 DE=-2.13D-09 OVMax= 4.55D-06

 Cycle   7  Pass 1  IDiag  1:
 RMSU=  1.02D-07    CP:  1.00D+00  1.09D+00  1.39D+00  1.18D+00  1.20D+00
                    CP:  1.23D+00
 E= -423.535808573517     Delta-E=       -0.000000000119 Rises=F Damp=F
 DIIS: error= 8.15D-08 at cycle   7 NSaved=   7.
 NSaved= 7 IEnMin= 7 EnMin= -423.535808573517     IErMin= 7 ErrMin= 8.15D-08
 ErrMax= 8.15D-08  0.00D+00 EMaxC= 1.00D-01 BMatC= 6.06D-12 BMatP= 4.27D-11
 IDIUse=1 WtCom= 1.00D+00 WtEn= 0.00D+00
 Coeff-Com: -0.141D-02 0.115D-03 0.122D-01-0.196D-01-0.107D+00 0.195D+00
 Coeff-Com:  0.921D+00
 Coeff:     -0.141D-02 0.115D-03 0.122D-01-0.196D-01-0.107D+00 0.195D+00
 Coeff:      0.921D+00
 Gap=     0.410 Goal=   None    Shift=    0.000
 RMSDP=3.88D-08 MaxDP=2.14D-06 DE=-1.19D-10 OVMax= 1.37D-06

 Cycle   8  Pass 1  IDiag  1:
 RMSU=  2.52D-08    CP:  1.00D+00  1.09D+00  1.39D+00  1.18D+00  1.20D+00
                    CP:  1.27D+00  1.15D+00
 E= -423.535808573527     Delta-E=       -0.000000000011 Rises=F Damp=F
 DIIS: error= 1.85D-08 at cycle   8 NSaved=   8.
 NSaved= 8 IEnMin= 8 EnMin= -423.535808573527     IErMin= 8 ErrMin= 1.85D-08
 ErrMax= 1.85D-08  0.00D+00 EMaxC= 1.00D-01 BMatC= 4.96D-13 BMatP= 6.06D-12
 IDIUse=1 WtCom= 1.00D+00 WtEn= 0.00D+00
 Coeff-Com:  0.234D-03-0.106D-03-0.226D-02 0.689D-02 0.211D-01-0.144D+00
 Coeff-Com: -0.331D-01 0.115D+01
 Coeff:      0.234D-03-0.106D-03-0.226D-02 0.689D-02 0.211D-01-0.144D+00
 Coeff:     -0.331D-01 0.115D+01
 Gap=     0.410 Goal=   None    Shift=    0.000
 RMSDP=2.05D-08 MaxDP=2.66D-06 DE=-1.08D-11 OVMax= 6.28D-07

 Cycle   9  Pass 1  IDiag  1:
 RMSU=  1.02D-08    CP:  1.00D+00  1.09D+00  1.39D+00  1.18D+00  1.20D+00
                    CP:  1.26D+00  1.24D+00  1.23D+00
 E= -423.535808573533     Delta-E=       -0.000000000006 Rises=F Damp=F
 DIIS: error= 4.11D-09 at cycle   9 NSaved=   9.
 NSaved= 9 IEnMin= 9 EnMin= -423.535808573533     IErMin= 9 ErrMin= 4.11D-09
 ErrMax= 4.11D-09  0.00D+00 EMaxC= 1.00D-01 BMatC= 2.68D-14 BMatP= 4.96D-13
 IDIUse=1 WtCom= 1.00D+00 WtEn= 0.00D+00
 Coeff-Com:  0.821D-04-0.855D-05-0.726D-03 0.140D-02 0.667D-02-0.191D-01
 Coeff-Com: -0.521D-01 0.767D-01 0.987D+00
 Coeff:      0.821D-04-0.855D-05-0.726D-03 0.140D-02 0.667D-02-0.191D-01
 Coeff:     -0.521D-01 0.767D-01 0.987D+00
 Gap=     0.410 Goal=   None    Shift=    0.000
 RMSDP=6.19D-09 MaxDP=1.02D-06 DE=-5.80D-12 OVMax= 1.20D-07

 Cycle  10  Pass 1  IDiag  1:
 RMSU=  2.24D-09    CP:  1.00D+00  1.09D+00  1.39D+00  1.18D+00  1.20D+00
                    CP:  1.26D+00  1.23D+00  1.28D+00  1.25D+00
 E= -423.535808573527     Delta-E=        0.000000000006 Rises=F Damp=F
 DIIS: error= 1.44D-09 at cycle  10 NSaved=  10.
 NSaved=10 IEnMin= 9 EnMin= -423.535808573533     IErMin=10 ErrMin= 1.44D-09
 ErrMax= 1.44D-09  0.00D+00 EMaxC= 1.00D-01 BMatC= 2.83D-15 BMatP= 2.68D-14
 IDIUse=1 WtCom= 1.00D+00 WtEn= 0.00D+00
 Coeff-Com: -0.837D-05 0.812D-05 0.875D-04-0.423D-03-0.853D-03 0.106D-01
 Coeff-Com: -0.469D-02-0.940D-01 0.928D-01 0.997D+00
 Coeff:     -0.837D-05 0.812D-05 0.875D-04-0.423D-03-0.853D-03 0.106D-01
 Coeff:     -0.469D-02-0.940D-01 0.928D-01 0.997D+00
 Gap=     0.410 Goal=   None    Shift=    0.000
 RMSDP=2.53D-09 MaxDP=4.89D-07 DE= 6.37D-12 OVMax= 4.26D-08

 Error on total polarization charges =  0.01431
 SCF Done:  E(RHF) =  -423.535808574     A.U. after   10 cycles
            NFock= 10  Conv=0.25D-08     -V/T= 2.0007
 KE= 4.232419618106D+02 PE=-2.210125390084D+03 EE= 7.517573870766D+02
 Leave Link  502 at Mon Nov  8 15:36:57 2021, MaxMem=  7864320000 cpu:            1422.8 elap:              45.1
 (Enter /apps/gaussian/g16-c01-avx/g16/l508.exe)
 QCSCF skips out because SCF is already converged.
 Leave Link  508 at Mon Nov  8 15:36:57 2021, MaxMem=  7864320000 cpu:               0.1 elap:               0.0
 (Enter /apps/gaussian/g16-c01-avx/g16/l801.exe)
 ExpMin= 2.97D-02 ExpMax= 9.05D+03 ExpMxC= 3.09D+02 IAcc=3 IRadAn=         7 AccDes= 0.00D+00
 HarFok:  IExCor=  205 AccDes= 0.00D+00 IRadAn=         7 IDoV=-2 UseB2=F ITyADJ=14
 ICtDFT= 12500011 ScaDFX=  1.000000  1.000000  1.000000  1.000000
 Largest valence mixing into a core orbital is  1.10D-04
 Largest core mixing into a valence orbital is  3.75D-05
 Range of M.O.s used for correlation:    11   410
 NBasis=   410 NAE=    41 NBE=    41 NFC=    10 NFV=     0
 NROrb=    400 NOA=    31 NOB=    31 NVA=   369 NVB=   369

 **** Warning!!: The largest alpha MO coefficient is  0.10663478D+03

 Leave Link  801 at Mon Nov  8 15:36:57 2021, MaxMem=  7864320000 cpu:               8.4 elap:               0.3
 (Enter /apps/gaussian/g16-c01-avx/g16/l906.exe)
 FulOut=F Deriv=F AODrv=F NAtomX=    30
   MMem=          49  MDisk=          31 MDiskD=          31
  W3Min=     4918770 MinDsk=     5842856 NBas6D=         430
 NBas2D=       93175    NTT=       92665    LW2=     2000000
    MDV=  7863012979 MDiskM=      253908 NBas2p=       91055
 Fully direct method using O(OVN) memory.
 IMap=   1   2   3   4   5   6   7   8   9  10  11  12  13  14  15  16  17  18  19  20
 IMap=  21  22  23  24  25  26  27  28  29  30  31
 JobTyp=1 Pass  1:  I=   1 to  31 NPSUse= 32 ParTrn=T ParDer=T DoDerP=F.
 Spin components of T(2) and E(2):
     alpha-alpha T2 =       0.6708486251D-01 E2=     -0.1910326096D+00
     alpha-beta  T2 =       0.3943307981D+00 E2=     -0.1202673162D+01
     beta-beta   T2 =       0.6708486251D-01 E2=     -0.1910326096D+00
 The integrals were generated   1 times.
 ANorm=    0.1236325412D+01
 E2 =    -0.1584738381D+01 EUMP2 =    -0.42512054695441D+03
 Leave Link  906 at Mon Nov  8 15:38:04 2021, MaxMem=  7864320000 cpu:            2104.1 elap:              66.5
 (Enter /apps/gaussian/g16-c01-avx/g16/l601.exe)
 Copying SCF densities to generalized density rwf, IOpCl= 0 IROHF=0.

 **********************************************************************

            Population analysis using the SCF Density.

 **********************************************************************

 Orbital symmetries:
       Occupied  (A) (A) (A) (A) (A) (A) (A) (A) (A) (A) (A) (A)
                 (A) (A) (A) (A) (A) (A) (A) (A) (A) (A) (A) (A)
                 (A) (A) (A) (A) (A) (A) (A) (A) (A) (A) (A) (A)
                 (A) (A) (A) (A) (A)
       Virtual   (A) (A) (A) (A) (A) (A) (A) (A) (A) (A) (A) (A)
                 (A) (A) (A) (A) (A) (A) (A) (A) (A) (A) (A) (A)
                 (A) (A) (A) (A) (A) (A) (A) (A) (A) (A) (A) (A)
                 (A) (A) (A) (A) (A) (A) (A) (A) (A) (A) (A) (A)
                 (A) (A) (A) (A) (A) (A) (A) (A) (A) (A) (A) (A)
                 (A) (A) (A) (A) (A) (A) (A) (A) (A) (A) (A) (A)
                 (A) (A) (A) (A) (A) (A) (A) (A) (A) (A) (A) (A)
                 (A) (A) (A) (A) (A) (A) (A) (A) (A) (A) (A) (A)
                 (A) (A) (A) (A) (A) (A) (A) (A) (A) (A) (A) (A)
                 (A) (A) (A) (A) (A) (A) (A) (A) (A) (A) (A) (A)
                 (A) (A) (A) (A) (A) (A) (A) (A) (A) (A) (A) (A)
                 (A) (A) (A) (A) (A) (A) (A) (A) (A) (A) (A) (A)
                 (A) (A) (A) (A) (A) (A) (A) (A) (A) (A) (A) (A)
                 (A) (A) (A) (A) (A) (A) (A) (A) (A) (A) (A) (A)
                 (A) (A) (A) (A) (A) (A) (A) (A) (A) (A) (A) (A)
                 (A) (A) (A) (A) (A) (A) (A) (A) (A) (A) (A) (A)
                 (A) (A) (A) (A) (A) (A) (A) (A) (A) (A) (A) (A)
                 (A) (A) (A) (A) (A) (A) (A) (A) (A) (A) (A) (A)
                 (A) (A) (A) (A) (A) (A) (A) (A) (A) (A) (A) (A)
                 (A) (A) (A) (A) (A) (A) (A) (A) (A) (A) (A) (A)
                 (A) (A) (A) (A) (A) (A) (A) (A) (A) (A) (A) (A)
                 (A) (A) (A) (A) (A) (A) (A) (A) (A) (A) (A) (A)
                 (A) (A) (A) (A) (A) (A) (A) (A) (A) (A) (A) (A)
                 (A) (A) (A) (A) (A) (A) (A) (A) (A) (A) (A) (A)
                 (A) (A) (A) (A) (A) (A) (A) (A) (A) (A) (A) (A)
                 (A) (A) (A) (A) (A) (A) (A) (A) (A) (A) (A) (A)
                 (A) (A) (A) (A) (A) (A) (A) (A) (A) (A) (A) (A)
                 (A) (A) (A) (A) (A) (A) (A) (A) (A) (A) (A) (A)
                 (A) (A) (A) (A) (A) (A) (A) (A) (A) (A) (A) (A)
                 (A) (A) (A) (A) (A) (A) (A) (A) (A) (A) (A) (A)
                 (A) (A) (A) (A) (A) (A) (A) (A) (A)
 The electronic state is 1-A.
 Alpha  occ. eigenvalues --  -15.54503 -15.53412 -11.24893 -11.24596 -11.22550
 Alpha  occ. eigenvalues --  -11.22264 -11.21449 -11.21366 -11.21248 -11.20290
 Alpha  occ. eigenvalues --   -1.21136  -1.15844  -1.06591  -1.06133  -0.93967
 Alpha  occ. eigenvalues --   -0.92557  -0.92023  -0.84995  -0.77297  -0.74541
 Alpha  occ. eigenvalues --   -0.67878  -0.64984  -0.64432  -0.61975  -0.60002
 Alpha  occ. eigenvalues --   -0.59397  -0.57526  -0.55816  -0.54608  -0.53715
 Alpha  occ. eigenvalues --   -0.53032  -0.52078  -0.51110  -0.48266  -0.47106
 Alpha  occ. eigenvalues --   -0.46824  -0.46402  -0.45105  -0.43493  -0.39267
 Alpha  occ. eigenvalues --   -0.37315
 Alpha virt. eigenvalues --    0.03709   0.04104   0.04370   0.04496   0.05717
 Alpha virt. eigenvalues --    0.05867   0.06138   0.06277   0.06792   0.07913
 Alpha virt. eigenvalues --    0.08154   0.08362   0.08579   0.09005   0.09671
 Alpha virt. eigenvalues --    0.10327   0.10691   0.11629   0.12085   0.12822
 Alpha virt. eigenvalues --    0.13934   0.14498   0.14754   0.14903   0.15394
 Alpha virt. eigenvalues --    0.15710   0.16705   0.16897   0.17256   0.17340
 Alpha virt. eigenvalues --    0.18204   0.18538   0.19019   0.19145   0.19892
 Alpha virt. eigenvalues --    0.20164   0.20459   0.20761   0.21399   0.21659
 Alpha virt. eigenvalues --    0.22387   0.22644   0.22786   0.23151   0.23611
 Alpha virt. eigenvalues --    0.24575   0.25044   0.25236   0.26113   0.26393
 Alpha virt. eigenvalues --    0.27273   0.28163   0.28421   0.28524   0.29357
 Alpha virt. eigenvalues --    0.29666   0.30276   0.31420   0.32442   0.32975
 Alpha virt. eigenvalues --    0.34662   0.34791   0.34930   0.35598   0.36830
 Alpha virt. eigenvalues --    0.37348   0.37704   0.38476   0.39505   0.39656
 Alpha virt. eigenvalues --    0.39961   0.40231   0.41329   0.41652   0.41992
 Alpha virt. eigenvalues --    0.42095   0.43236   0.43875   0.44502   0.45237
 Alpha virt. eigenvalues --    0.45597   0.45948   0.46514   0.47416   0.47909
 Alpha virt. eigenvalues --    0.48256   0.48395   0.48856   0.49621   0.49969
 Alpha virt. eigenvalues --    0.50413   0.50697   0.51028   0.51558   0.51992
 Alpha virt. eigenvalues --    0.52662   0.52809   0.53088   0.54033   0.54439
 Alpha virt. eigenvalues --    0.55257   0.55607   0.56433   0.56646   0.57442
 Alpha virt. eigenvalues --    0.57980   0.58482   0.58953   0.59416   0.60467
 Alpha virt. eigenvalues --    0.60670   0.61541   0.61667   0.62010   0.62149
 Alpha virt. eigenvalues --    0.62948   0.63872   0.64119   0.64640   0.65212
 Alpha virt. eigenvalues --    0.65711   0.65845   0.66809   0.66978   0.67364
 Alpha virt. eigenvalues --    0.68730   0.69516   0.69712   0.70255   0.71202
 Alpha virt. eigenvalues --    0.72037   0.72143   0.73319   0.73538   0.73802
 Alpha virt. eigenvalues --    0.74657   0.75719   0.76499   0.76667   0.77245
 Alpha virt. eigenvalues --    0.77623   0.78171   0.78443   0.79041   0.79698
 Alpha virt. eigenvalues --    0.80661   0.80910   0.81453   0.81877   0.82656
 Alpha virt. eigenvalues --    0.82964   0.83857   0.84601   0.85170   0.85599
 Alpha virt. eigenvalues --    0.85858   0.86878   0.87067   0.87447   0.88621
 Alpha virt. eigenvalues --    0.89614   0.90066   0.91275   0.91373   0.92231
 Alpha virt. eigenvalues --    0.93424   0.93679   0.93792   0.94490   0.94939
 Alpha virt. eigenvalues --    0.96225   0.96442   0.97478   0.98485   0.99114
 Alpha virt. eigenvalues --    1.00736   1.00943   1.01883   1.03131   1.03797
 Alpha virt. eigenvalues --    1.04550   1.05200   1.05774   1.06281   1.06833
 Alpha virt. eigenvalues --    1.08378   1.09119   1.09828   1.11349   1.13019
 Alpha virt. eigenvalues --    1.14778   1.15312   1.16526   1.16970   1.18739
 Alpha virt. eigenvalues --    1.19839   1.20644   1.21126   1.22553   1.23419
 Alpha virt. eigenvalues --    1.24459   1.25998   1.27317   1.28991   1.30807
 Alpha virt. eigenvalues --    1.31021   1.31923   1.34417   1.36892   1.37551
 Alpha virt. eigenvalues --    1.37997   1.39707   1.42388   1.42740   1.43821
 Alpha virt. eigenvalues --    1.44486   1.45488   1.46639   1.48594   1.51080
 Alpha virt. eigenvalues --    1.53108   1.54706   1.55455   1.57864   1.61371
 Alpha virt. eigenvalues --    1.62084   1.62342   1.64419   1.65019   1.66885
 Alpha virt. eigenvalues --    1.67429   1.70299   1.73053   1.74580   1.76237
 Alpha virt. eigenvalues --    1.76901   1.77897   1.79228   1.81070   1.83305
 Alpha virt. eigenvalues --    1.84306   1.84534   1.85797   1.86782   1.88716
 Alpha virt. eigenvalues --    1.89557   1.90599   1.91951   1.93322   1.93725
 Alpha virt. eigenvalues --    1.95585   1.97418   1.97759   1.99176   1.99639
 Alpha virt. eigenvalues --    2.00558   2.02859   2.03743   2.05753   2.06710
 Alpha virt. eigenvalues --    2.07390   2.08200   2.09691   2.10574   2.11635
 Alpha virt. eigenvalues --    2.13143   2.13958   2.15072   2.15873   2.16732
 Alpha virt. eigenvalues --    2.17753   2.18970   2.20464   2.21243   2.23678
 Alpha virt. eigenvalues --    2.23823   2.24578   2.26745   2.27377   2.29231
 Alpha virt. eigenvalues --    2.29907   2.30267   2.32616   2.33841   2.33939
 Alpha virt. eigenvalues --    2.34535   2.36029   2.36540   2.37648   2.38901
 Alpha virt. eigenvalues --    2.40818   2.41113   2.42039   2.42824   2.44707
 Alpha virt. eigenvalues --    2.46077   2.46911   2.47489   2.48657   2.50939
 Alpha virt. eigenvalues --    2.51849   2.53370   2.54336   2.54557   2.57022
 Alpha virt. eigenvalues --    2.57751   2.58184   2.59672   2.60259   2.61744
 Alpha virt. eigenvalues --    2.62718   2.63310   2.64429   2.64798   2.65848
 Alpha virt. eigenvalues --    2.66372   2.67376   2.70343   2.72393   2.73238
 Alpha virt. eigenvalues --    2.73668   2.76202   2.77431   2.78929   2.79472
 Alpha virt. eigenvalues --    2.81735   2.83133   2.85219   2.87261   2.87600
 Alpha virt. eigenvalues --    2.89152   2.89853   2.90563   2.92896   2.93426
 Alpha virt. eigenvalues --    2.94927   2.97097   2.97513   2.99249   3.01490
 Alpha virt. eigenvalues --    3.02385   3.04729   3.06862   3.08763   3.10352
 Alpha virt. eigenvalues --    3.13062   3.15222   3.16402   3.18057   3.20522
 Alpha virt. eigenvalues --    3.23239   3.25624   3.25952   3.28581   3.34197
 Alpha virt. eigenvalues --    3.37233   3.41919   3.44402   3.45199   3.48998
 Alpha virt. eigenvalues --    3.53994   3.55938   3.65962   3.77703   3.91083
 Alpha virt. eigenvalues --    4.02718   4.05772   4.29245   4.58206
          Condensed to atoms (all electrons):
               1          2          3          4          5          6
     1  C   12.801900  -3.475401  -1.759874  -0.437470  -2.311290   0.223976
     2  C   -3.475401  12.709938   0.166626   0.034715   0.756444  -1.184045
     3  N   -1.759874   0.166626   7.667016   0.051761   0.309213   0.065888
     4  H   -0.437470   0.034715   0.051761   1.655720  -0.032764  -0.036397
     5  C   -2.311290   0.756444   0.309213  -0.032764   9.175440  -0.114387
     6  N    0.223976  -1.184045   0.065888  -0.036397  -0.114387   7.733618
     7  H    0.005883  -0.986121   0.033356  -0.012407   0.125603   0.108156
     8  C    0.315656  -2.144393   0.125143  -0.002582  -0.173031   0.024359
     9  H    0.119798  -0.000205   0.222029   0.005683  -0.039772  -0.004182
    10  H    0.234309  -0.106824   0.282024  -0.053167  -0.056709   0.005305
    11  H   -0.176324  -0.009818   0.052501   0.001471   0.025918   0.307973
    12  H    0.007360   0.342207  -0.034709  -0.009790  -0.029230   0.161736
    13  H    0.014619  -0.106208   0.032254   0.089188  -0.586862   0.012565
    14  C   -0.092011  -0.237230   0.101261   0.024424   0.107719   0.017343
    15  C    0.151155  -0.182985   0.008352  -0.011255  -0.183064   0.039075
    16  H    0.057575   0.122093  -0.058310   0.007744   0.015025   0.032961
    17  C   -0.225507   0.079326   0.018320  -0.005704  -0.001147   0.005691
    18  C   -0.211515  -0.089024   0.037464  -0.018156   0.063975   0.048145
    19  H    0.004012  -0.004132  -0.000251  -0.017052   0.275889   0.003978
    20  H    0.222855  -0.035287  -0.002859  -0.000642  -0.353977   0.004587
    21  H   -0.291081   0.115813   0.011495   0.019260   0.212114  -0.002528
    22  H    0.082264  -0.040888   0.000436   0.003555  -0.013750   0.000531
    23  H    0.060133   0.055701  -0.032159  -0.019450   0.175994   0.002709
    24  H   -0.171451   0.036487   0.020727   0.009157  -0.028666  -0.000354
    25  H    0.022320   0.026753   0.016052  -0.021307  -0.033480  -0.008297
    26  H   -0.034967   0.206364  -0.001263   0.008429   0.017349  -0.006852
    27  H    0.074242  -0.271279  -0.004539   0.003443   0.004709   0.018489
    28  H    0.038467  -0.011290  -0.002100   0.002089   0.006183  -0.079349
    29  H    0.048111   0.008924  -0.004165   0.009700   0.000437  -0.001559
    30  H   -0.048253   0.037951   0.005720  -0.007656  -0.006074   0.024417
               7          8          9         10         11         12
     1  C    0.005883   0.315656   0.119798   0.234309  -0.176324   0.007360
     2  C   -0.986121  -2.144393  -0.000205  -0.106824  -0.009818   0.342207
     3  N    0.033356   0.125143   0.222029   0.282024   0.052501  -0.034709
     4  H   -0.012407  -0.002582   0.005683  -0.053167   0.001471  -0.009790
     5  C    0.125603  -0.173031  -0.039772  -0.056709   0.025918  -0.029230
     6  N    0.108156   0.024359  -0.004182   0.005305   0.307973   0.161736
     7  H    2.134984   0.033837  -0.003154  -0.002464   0.061357  -0.092839
     8  C    0.033837   9.503979  -0.048043   0.034813   0.054053  -0.096448
     9  H   -0.003154  -0.048043   0.927272  -0.140707   0.001451  -0.000510
    10  H   -0.002464   0.034813  -0.140707   0.820250  -0.014162   0.002835
    11  H    0.061357   0.054053   0.001451  -0.014162   0.705786  -0.081197
    12  H   -0.092839  -0.096448  -0.000510   0.002835  -0.081197   0.806647
    13  H    0.006980   0.037956  -0.008990   0.001482  -0.006975   0.004752
    14  C   -0.001747   0.007813  -0.026050   0.010595   0.002524  -0.002014
    15  C   -0.075885  -0.000136   0.018450  -0.006333  -0.003162   0.012503
    16  H    0.057487  -0.740353   0.006341   0.004731  -0.011980   0.001376
    17  C    0.027410   0.203196   0.001296   0.003019   0.003847   0.002196
    18  C    0.011063  -0.110801   0.009664  -0.016230  -0.004567   0.002130
    19  H   -0.016746  -0.007828   0.003557  -0.002753  -0.000755   0.001035
    20  H    0.004035   0.006227  -0.002753   0.001886   0.000716   0.001578
    21  H   -0.001573   0.001754   0.001353  -0.001112  -0.002387   0.001281
    22  H   -0.003126  -0.004870  -0.000890   0.003068  -0.000018  -0.000336
    23  H   -0.001523   0.000745   0.012766  -0.006596  -0.001372   0.003010
    24  H    0.007894   0.005931  -0.009111   0.000720   0.000801  -0.001415
    25  H   -0.011859   0.261271  -0.008457   0.010970   0.000901  -0.000805
    26  H   -0.007306  -0.303923   0.001820  -0.002015  -0.000877   0.000098
    27  H    0.017276   0.183443   0.000117  -0.005931  -0.001357   0.001652
    28  H   -0.046797   0.138855   0.000363   0.001343  -0.000830   0.000085
    29  H    0.001229  -0.119295   0.000818  -0.001853  -0.001491  -0.000343
    30  H    0.013024   0.073514  -0.000801   0.001232  -0.001450   0.002085
              13         14         15         16         17         18
     1  C    0.014619  -0.092011   0.151155   0.057575  -0.225507  -0.211515
     2  C   -0.106208  -0.237230  -0.182985   0.122093   0.079326  -0.089024
     3  N    0.032254   0.101261   0.008352  -0.058310   0.018320   0.037464
     4  H    0.089188   0.024424  -0.011255   0.007744  -0.005704  -0.018156
     5  C   -0.586862   0.107719  -0.183064   0.015025  -0.001147   0.063975
     6  N    0.012565   0.017343   0.039075   0.032961   0.005691   0.048145
     7  H    0.006980  -0.001747  -0.075885   0.057487   0.027410   0.011063
     8  C    0.037956   0.007813  -0.000136  -0.740353   0.203196  -0.110801
     9  H   -0.008990  -0.026050   0.018450   0.006341   0.001296   0.009664
    10  H    0.001482   0.010595  -0.006333   0.004731   0.003019  -0.016230
    11  H   -0.006975   0.002524  -0.003162  -0.011980   0.003847  -0.004567
    12  H    0.004752  -0.002014   0.012503   0.001376   0.002196   0.002130
    13  H    1.886736  -0.029615   0.012407   0.003698   0.008256  -0.007455
    14  C   -0.029615   4.502256  -0.051251  -0.000764  -0.004996  -0.015982
    15  C    0.012407  -0.051251   4.428337  -0.006757  -0.011291  -0.006557
    16  H    0.003698  -0.000764  -0.006757   2.019092  -0.082653  -0.021935
    17  C    0.008256  -0.004996  -0.011291  -0.082653   4.409883  -0.067044
    18  C   -0.007455  -0.015982  -0.006557  -0.021935  -0.067044   4.550223
    19  H   -0.106960  -0.034491   0.198212  -0.003551  -0.010344  -0.006514
    20  H   -0.013127   0.033754   0.345577  -0.000234   0.001974   0.002112
    21  H    0.081644  -0.074450   0.175684   0.000738   0.001887   0.008617
    22  H   -0.054383   0.264870   0.042651  -0.001094  -0.001190   0.000581
    23  H   -0.063694   0.112354  -0.040934   0.001146   0.000686  -0.000765
    24  H    0.072814   0.418564  -0.067377  -0.000276   0.001802  -0.000870
    25  H   -0.002753  -0.002193   0.000170  -0.123425  -0.053440   0.200240
    26  H    0.000958   0.000642   0.000582  -0.012588   0.044025   0.304298
    27  H   -0.000663  -0.001379   0.002107   0.091077  -0.052515   0.193996
    28  H    0.001468   0.000110  -0.001276  -0.024497   0.254073  -0.036072
    29  H    0.000611   0.001424   0.002520   0.077329   0.284744  -0.066186
    30  H   -0.000612  -0.000459   0.000664  -0.096149   0.219611   0.058210
              19         20         21         22         23         24
     1  C    0.004012   0.222855  -0.291081   0.082264   0.060133  -0.171451
     2  C   -0.004132  -0.035287   0.115813  -0.040888   0.055701   0.036487
     3  N   -0.000251  -0.002859   0.011495   0.000436  -0.032159   0.020727
     4  H   -0.017052  -0.000642   0.019260   0.003555  -0.019450   0.009157
     5  C    0.275889  -0.353977   0.212114  -0.013750   0.175994  -0.028666
     6  N    0.003978   0.004587  -0.002528   0.000531   0.002709  -0.000354
     7  H   -0.016746   0.004035  -0.001573  -0.003126  -0.001523   0.007894
     8  C   -0.007828   0.006227   0.001754  -0.004870   0.000745   0.005931
     9  H    0.003557  -0.002753   0.001353  -0.000890   0.012766  -0.009111
    10  H   -0.002753   0.001886  -0.001112   0.003068  -0.006596   0.000720
    11  H   -0.000755   0.000716  -0.002387  -0.000018  -0.001372   0.000801
    12  H    0.001035   0.001578   0.001281  -0.000336   0.003010  -0.001415
    13  H   -0.106960  -0.013127   0.081644  -0.054383  -0.063694   0.072814
    14  C   -0.034491   0.033754  -0.074450   0.264870   0.112354   0.418564
    15  C    0.198212   0.345577   0.175684   0.042651  -0.040934  -0.067377
    16  H   -0.003551  -0.000234   0.000738  -0.001094   0.001146  -0.000276
    17  C   -0.010344   0.001974   0.001887  -0.001190   0.000686   0.001802
    18  C   -0.006514   0.002112   0.008617   0.000581  -0.000765  -0.000870
    19  H    1.431595  -0.427910  -0.218696   0.026974  -0.017580   0.001060
    20  H   -0.427910   1.654351  -0.241717  -0.018441   0.033366  -0.026133
    21  H   -0.218696  -0.241717   1.229608  -0.026685   0.000475  -0.005932
    22  H    0.026974  -0.018441  -0.026685   1.299516  -0.338739  -0.189687
    23  H   -0.017580   0.033366   0.000475  -0.338739   1.395621  -0.188915
    24  H    0.001060  -0.026133  -0.005932  -0.189687  -0.188915   1.145866
    25  H    0.003257  -0.000865   0.000208   0.001278   0.000450  -0.003506
    26  H   -0.000685   0.000383   0.000148  -0.000034  -0.000101   0.001017
    27  H   -0.001536   0.000128   0.003121  -0.000225   0.000213  -0.001563
    28  H    0.001151   0.000216   0.000568  -0.000018  -0.000070   0.000194
    29  H   -0.003574   0.001008  -0.001966   0.000061   0.000066  -0.000102
    30  H    0.000591   0.000007   0.000079  -0.000037   0.000043   0.000100
              25         26         27         28         29         30
     1  C    0.022320  -0.034967   0.074242   0.038467   0.048111  -0.048253
     2  C    0.026753   0.206364  -0.271279  -0.011290   0.008924   0.037951
     3  N    0.016052  -0.001263  -0.004539  -0.002100  -0.004165   0.005720
     4  H   -0.021307   0.008429   0.003443   0.002089   0.009700  -0.007656
     5  C   -0.033480   0.017349   0.004709   0.006183   0.000437  -0.006074
     6  N   -0.008297  -0.006852   0.018489  -0.079349  -0.001559   0.024417
     7  H   -0.011859  -0.007306   0.017276  -0.046797   0.001229   0.013024
     8  C    0.261271  -0.303923   0.183443   0.138855  -0.119295   0.073514
     9  H   -0.008457   0.001820   0.000117   0.000363   0.000818  -0.000801
    10  H    0.010970  -0.002015  -0.005931   0.001343  -0.001853   0.001232
    11  H    0.000901  -0.000877  -0.001357  -0.000830  -0.001491  -0.001450
    12  H   -0.000805   0.000098   0.001652   0.000085  -0.000343   0.002085
    13  H   -0.002753   0.000958  -0.000663   0.001468   0.000611  -0.000612
    14  C   -0.002193   0.000642  -0.001379   0.000110   0.001424  -0.000459
    15  C    0.000170   0.000582   0.002107  -0.001276   0.002520   0.000664
    16  H   -0.123425  -0.012588   0.091077  -0.024497   0.077329  -0.096149
    17  C   -0.053440   0.044025  -0.052515   0.254073   0.284744   0.219611
    18  C    0.200240   0.304298   0.193996  -0.036072  -0.066186   0.058210
    19  H    0.003257  -0.000685  -0.001536   0.001151  -0.003574   0.000591
    20  H   -0.000865   0.000383   0.000128   0.000216   0.001008   0.000007
    21  H    0.000208   0.000148   0.003121   0.000568  -0.001966   0.000079
    22  H    0.001278  -0.000034  -0.000225  -0.000018   0.000061  -0.000037
    23  H    0.000450  -0.000101   0.000213  -0.000070   0.000066   0.000043
    24  H   -0.003506   0.001017  -0.001563   0.000194  -0.000102   0.000100
    25  H    1.402268  -0.402252  -0.214793  -0.014234  -0.002579   0.023065
    26  H   -0.402252   1.601085  -0.247305   0.023095  -0.016067  -0.014224
    27  H   -0.214793  -0.247305   1.237577   0.002271  -0.010112  -0.020147
    28  H   -0.014234   0.023095   0.002271   1.236824  -0.176673  -0.316550
    29  H   -0.002579  -0.016067  -0.010112  -0.176673   1.246738  -0.247159
    30  H    0.023065  -0.014224  -0.020147  -0.316550  -0.247159   1.366656
 Mulliken charges:
               1
     1  C    0.750510
     2  C    0.185788
     3  N   -0.327407
     4  H   -0.240540
     5  C   -1.307810
     6  N   -0.403551
     7  H   -0.386028
     8  C   -1.260843
     9  H   -0.039152
    10  H   -0.001727
    11  H    0.099423
    12  H   -0.004929
    13  H   -0.280091
    14  C    0.968980
    15  C    1.209816
    16  H   -0.313850
    17  C    0.944586
    18  C    1.188958
    19  H   -0.069952
    20  H   -0.190817
    21  H    0.002277
    22  H   -0.031375
    23  H   -0.143583
    24  H   -0.027777
    25  H   -0.064960
    26  H   -0.159836
    27  H   -0.000517
    28  H    0.002401
    29  H   -0.030597
    30  H   -0.067396
 Sum of Mulliken charges =   0.00000
 Mulliken charges with hydrogens summed into heavy atoms:
               1
     1  C    0.509970
     2  C   -0.200239
     3  N   -0.368287
     5  C   -1.587901
     6  N   -0.309058
     8  C   -1.574693
    14  C    0.766245
    15  C    0.951324
    17  C    0.848993
    18  C    0.963646
 Electronic spatial extent (au):  <R**2>=           1905.7227
 Charge=              0.0000 electrons
 Dipole moment (field-independent basis, Debye):
    X=              1.6360    Y=              1.7423    Z=             -1.0857  Tot=              2.6250
 Quadrupole moment (field-independent basis, Debye-Ang):
   XX=            -68.8751   YY=            -66.2037   ZZ=            -69.7804
   XY=             -3.7338   XZ=              1.1017   YZ=              2.1665
 Traceless Quadrupole moment (field-independent basis, Debye-Ang):
   XX=             -0.5887   YY=              2.0827   ZZ=             -1.4940
   XY=             -3.7338   XZ=              1.1017   YZ=              2.1665
 Octapole moment (field-independent basis, Debye-Ang**2):
  XXX=             11.2493  YYY=             11.1886  ZZZ=              1.1322  XYY=              9.6836
  XXY=              8.0063  XXZ=              2.7482  XZZ=              0.7328  YZZ=              0.9490
  YYZ=              4.8674  XYZ=             -5.4043
 Hexadecapole moment (field-independent basis, Debye-Ang**3):
 XXXX=          -1757.7885 YYYY=           -509.3259 ZZZZ=           -397.9634 XXXY=            -32.3203
 XXXZ=              5.7513 YYYX=             -5.4804 YYYZ=             17.4855 ZZZX=             -3.3680
 ZZZY=             -2.1252 XXYY=           -382.5535 XXZZ=           -363.3093 YYZZ=           -153.5855
 XXYZ=             11.5724 YYXZ=             12.6396 ZZXY=             -1.1572
 N-N= 6.115902326235D+02 E-N=-2.210125390974D+03  KE= 4.232419618106D+02
 Leave Link  601 at Mon Nov  8 15:38:04 2021, MaxMem=  7864320000 cpu:               3.1 elap:               0.2
 (Enter /apps/gaussian/g16-c01-avx/g16/l9999.exe)
 Unable to Open any file for archive entry.
 1\1\GINC-CX3-6-22\SP\RMP2-FC\Aug-CC-pVDZ\C8H20N2\ATARZIA\08-Nov-2021\0
 \\#P MP2/aug-cc-pVDZ SP SCF=(YQC,MaxCycle=900) int=(Grid=Superfinegrid
 ) SCRF=(PCM,Solvent=Dichloromethane)\\_ami1_opt_dcm_mp2\\0,1\C,0,-0.34
 03,-0.542,-0.5853\C,0,0.8707,-0.479,0.3837\N,0,-0.1793,-1.7379,-1.408\
 H,0,-0.3551,0.389,-1.1794\C,0,-1.6964,-0.6288,0.1504\N,0,0.9712,-1.668
 6,1.2164\H,0,0.7426,0.3854,1.0425\C,0,2.2266,-0.2973,-0.3326\H,0,-0.95
 54,-1.8365,-2.0514\H,0,0.6652,-1.6647,-1.964\H,0,0.9429,-2.4817,0.608\
 H,0,0.1715,-1.7307,1.8362\H,0,-1.7671,-1.6203,0.61\C,0,-2.8556,-0.4815
 ,-0.8388\C,0,-1.8445,0.4409,1.2326\H,0,2.4545,-1.2193,-0.8775\C,0,3.31
 43,-0.1013,0.7229\C,0,2.2398,0.8796,-1.3059\H,0,-1.1666,0.275,2.0653\H
 ,0,-2.8597,0.4295,1.624\H,0,-1.6507,1.4282,0.8176\H,0,-3.8044,-0.5163,
 -0.3078\H,0,-2.8633,-1.2804,-1.5762\H,0,-2.7907,0.4726,-1.3594\H,0,1.6
 127,0.6996,-2.1759\H,0,3.2545,1.0518,-1.6589\H,0,1.8934,1.7847,-0.8109
 \H,0,3.2572,-0.8985,1.4574\H,0,3.1787,0.8509,1.2314\H,0,4.2993,-0.1098
 ,0.262\\Version=ES64L-G16RevC.01\State=1-A\HF=-423.5358086\MP2=-425.12
 0547\RMSD=2.533e-09\PG=C01 [X(C8H20N2)]\\@
 The archive entry for this job was punched.


 ABALONE: AN EXPRESSION OF DISBELIEF.
 Job cpu time:       0 days  1 hours 28 minutes 12.7 seconds.
 Elapsed time:       0 days  0 hours  2 minutes 48.2 seconds.
 File lengths (MBytes):  RWF=    272 Int=      0 D2E=      0 Chk=     24 Scr=     16
 Normal termination of Gaussian 16 at Mon Nov  8 15:38:04 2021.
