 Entering Gaussian System, Link 0=g16
 Initial command:
 /apps/gaussian/g16-c01-avx/g16/l1.exe "/rds/general/ephemeral/user/atarzia/ephemeral/Gau-3399258.inp" -scrdir="/rds/general/ephemeral/user/atarzia/ephemeral/"
 Entering Link 1 = /apps/gaussian/g16-c01-avx/g16/l1.exe PID=   3399259.
  
 Copyright (c) 1988-2019, Gaussian, Inc.  All Rights Reserved.
  
 This is part of the Gaussian(R) 16 program.  It is based on
 the Gaussian(R) 09 system (copyright 2009, Gaussian, Inc.),
 the Gaussian(R) 03 system (copyright 2003, Gaussian, Inc.),
 the Gaussian(R) 98 system (copyright 1998, Gaussian, Inc.),
 the Gaussian(R) 94 system (copyright 1995, Gaussian, Inc.),
 the Gaussian 92(TM) system (copyright 1992, Gaussian, Inc.),
 the Gaussian 90(TM) system (copyright 1990, Gaussian, Inc.),
 the Gaussian 88(TM) system (copyright 1988, Gaussian, Inc.),
 the Gaussian 86(TM) system (copyright 1986, Carnegie Mellon
 University), and the Gaussian 82(TM) system (copyright 1983,
 Carnegie Mellon University). Gaussian is a federally registered
 trademark of Gaussian, Inc.
  
 This software contains proprietary and confidential information,
 including trade secrets, belonging to Gaussian, Inc.
  
 This software is provided under written license and may be
 used, copied, transmitted, or stored only in accord with that
 written license.
  
 The following legend is applicable only to US Government
 contracts under FAR:
  
                    RESTRICTED RIGHTS LEGEND
  
 Use, reproduction and disclosure by the US Government is
 subject to restrictions as set forth in subparagraphs (a)
 and (c) of the Commercial Computer Software - Restricted
 Rights clause in FAR 52.227-19.
  
 Gaussian, Inc.
 340 Quinnipiac St., Bldg. 40, Wallingford CT 06492
  
  
 ---------------------------------------------------------------
 Warning -- This program may not be used in any manner that
 competes with the business of Gaussian, Inc. or will provide
 assistance to any competitor of Gaussian, Inc.  The licensee
 of this program is prohibited from giving any competitor of
 Gaussian, Inc. access to this program.  By using this program,
 the user acknowledges that Gaussian, Inc. is engaged in the
 business of creating and licensing software in the field of
 computational chemistry and represents and warrants to the
 licensee that it is not a competitor of Gaussian, Inc. and that
 it will not use this program in any manner prohibited above.
 ---------------------------------------------------------------
  

 Cite this work as:
 Gaussian 16, Revision C.01,
 M. J. Frisch, G. W. Trucks, H. B. Schlegel, G. E. Scuseria, 
 M. A. Robb, J. R. Cheeseman, G. Scalmani, V. Barone, 
 G. A. Petersson, H. Nakatsuji, X. Li, M. Caricato, A. V. Marenich, 
 J. Bloino, B. G. Janesko, R. Gomperts, B. Mennucci, H. P. Hratchian, 
 J. V. Ortiz, A. F. Izmaylov, J. L. Sonnenberg, D. Williams-Young, 
 F. Ding, F. Lipparini, F. Egidi, J. Goings, B. Peng, A. Petrone, 
 T. Henderson, D. Ranasinghe, V. G. Zakrzewski, J. Gao, N. Rega, 
 G. Zheng, W. Liang, M. Hada, M. Ehara, K. Toyota, R. Fukuda, 
 J. Hasegawa, M. Ishida, T. Nakajima, Y. Honda, O. Kitao, H. Nakai, 
 T. Vreven, K. Throssell, J. A. Montgomery, Jr., J. E. Peralta, 
 F. Ogliaro, M. J. Bearpark, J. J. Heyd, E. N. Brothers, K. N. Kudin, 
 V. N. Staroverov, T. A. Keith, R. Kobayashi, J. Normand, 
 K. Raghavachari, A. P. Rendell, J. C. Burant, S. S. Iyengar, 
 J. Tomasi, M. Cossi, J. M. Millam, M. Klene, C. Adamo, R. Cammi, 
 J. W. Ochterski, R. L. Martin, K. Morokuma, O. Farkas, 
 J. B. Foresman, and D. J. Fox, Gaussian, Inc., Wallingford CT, 2019.
 
 ******************************************
 Gaussian 16:  ES64L-G16RevC.01  3-Jul-2019
                18-Oct-2021 
 ******************************************
 %chk=_ami1_opt_gas.chk
 %mem=60000mb
 %nprocshared=32
 Will use up to   32 processors via shared memory.
 ----------------------------------------------------------------------
 #P PBE1PBE/Def2TZVP SP SCF=(YQC,MaxCycle=900) int=(Grid=Superfinegrid)
  EmpiricalDispersion=GD3
 ----------------------------------------------------------------------
 1/38=1,172=1/1;
 2/12=2,17=6,18=5,40=1/2;
 3/5=44,7=101,11=2,25=1,30=1,74=-13,75=-7,124=31/1,2,3;
 4//1;
 5/5=2,7=900,8=4,13=1,38=1/8,2,8;
 6/7=2,8=2,9=2,10=2,28=1/1;
 99/5=1,9=1/99;
 Leave Link    1 at Mon Oct 18 09:37:11 2021, MaxMem=  7864320000 cpu:               6.1 elap:               0.2
 (Enter /apps/gaussian/g16-c01-avx/g16/l101.exe)
 -------------
 _ami1_opt_gas
 -------------
 Symbolic Z-matrix:
 Charge =  0 Multiplicity = 1
 C                    -0.3403   -0.542    -0.5853 
 C                     0.8707   -0.479     0.3837 
 N                    -0.1793   -1.7379   -1.408 
 H                    -0.3551    0.389    -1.1794 
 C                    -1.6964   -0.6288    0.1504 
 N                     0.9712   -1.6686    1.2164 
 H                     0.7426    0.3854    1.0425 
 C                     2.2266   -0.2973   -0.3326 
 H                    -0.9554   -1.8365   -2.0514 
 H                     0.6652   -1.6647   -1.964 
 H                     0.9429   -2.4817    0.608 
 H                     0.1715   -1.7307    1.8362 
 H                    -1.7671   -1.6203    0.61 
 C                    -2.8556   -0.4815   -0.8388 
 C                    -1.8445    0.4409    1.2326 
 H                     2.4545   -1.2193   -0.8775 
 C                     3.3143   -0.1013    0.7229 
 C                     2.2398    0.8796   -1.3059 
 H                    -1.1666    0.275     2.0653 
 H                    -2.8597    0.4295    1.624 
 H                    -1.6507    1.4282    0.8176 
 H                    -3.8044   -0.5163   -0.3078 
 H                    -2.8633   -1.2804   -1.5762 
 H                    -2.7907    0.4726   -1.3594 
 H                     1.6127    0.6996   -2.1759 
 H                     3.2545    1.0518   -1.6589 
 H                     1.8934    1.7847   -0.8109 
 H                     3.2572   -0.8985    1.4574 
 H                     3.1787    0.8509    1.2314 
 H                     4.2993   -0.1098    0.262 
 
 ITRead=  0  0  0  0  0  0  0  0  0  0  0  0  0  0  0  0  0  0  0  0
 ITRead=  0  0  0  0  0  0  0  0  0  0
 MicOpt= -1 -1 -1 -1 -1 -1 -1 -1 -1 -1 -1 -1 -1 -1 -1 -1 -1 -1 -1 -1
 MicOpt= -1 -1 -1 -1 -1 -1 -1 -1 -1 -1
 NAtoms=     30 NQM=       30 NQMF=       0 NMMI=      0 NMMIF=      0
                NMic=       0 NMicF=      0.
                    Isotopes and Nuclear Properties:
 (Nuclear quadrupole moments (NQMom) in fm**2, nuclear magnetic moments (NMagM)
  in nuclear magnetons)

  Atom         1           2           3           4           5           6           7           8           9          10
 IAtWgt=          12          12          14           1          12          14           1          12           1           1
 AtmWgt=  12.0000000  12.0000000  14.0030740   1.0078250  12.0000000  14.0030740   1.0078250  12.0000000   1.0078250   1.0078250
 NucSpn=           0           0           2           1           0           2           1           0           1           1
 AtZEff=  -0.0000000  -0.0000000  -0.0000000  -0.0000000  -0.0000000  -0.0000000  -0.0000000  -0.0000000  -0.0000000  -0.0000000
 NQMom=    0.0000000   0.0000000   2.0440000   0.0000000   0.0000000   2.0440000   0.0000000   0.0000000   0.0000000   0.0000000
 NMagM=    0.0000000   0.0000000   0.4037610   2.7928460   0.0000000   0.4037610   2.7928460   0.0000000   2.7928460   2.7928460
 AtZNuc=   6.0000000   6.0000000   7.0000000   1.0000000   6.0000000   7.0000000   1.0000000   6.0000000   1.0000000   1.0000000

  Atom        11          12          13          14          15          16          17          18          19          20
 IAtWgt=           1           1           1          12          12           1          12          12           1           1
 AtmWgt=   1.0078250   1.0078250   1.0078250  12.0000000  12.0000000   1.0078250  12.0000000  12.0000000   1.0078250   1.0078250
 NucSpn=           1           1           1           0           0           1           0           0           1           1
 AtZEff=  -0.0000000  -0.0000000  -0.0000000  -0.0000000  -0.0000000  -0.0000000  -0.0000000  -0.0000000  -0.0000000  -0.0000000
 NQMom=    0.0000000   0.0000000   0.0000000   0.0000000   0.0000000   0.0000000   0.0000000   0.0000000   0.0000000   0.0000000
 NMagM=    2.7928460   2.7928460   2.7928460   0.0000000   0.0000000   2.7928460   0.0000000   0.0000000   2.7928460   2.7928460
 AtZNuc=   1.0000000   1.0000000   1.0000000   6.0000000   6.0000000   1.0000000   6.0000000   6.0000000   1.0000000   1.0000000

  Atom        21          22          23          24          25          26          27          28          29          30
 IAtWgt=           1           1           1           1           1           1           1           1           1           1
 AtmWgt=   1.0078250   1.0078250   1.0078250   1.0078250   1.0078250   1.0078250   1.0078250   1.0078250   1.0078250   1.0078250
 NucSpn=           1           1           1           1           1           1           1           1           1           1
 AtZEff=  -0.0000000  -0.0000000  -0.0000000  -0.0000000  -0.0000000  -0.0000000  -0.0000000  -0.0000000  -0.0000000  -0.0000000
 NQMom=    0.0000000   0.0000000   0.0000000   0.0000000   0.0000000   0.0000000   0.0000000   0.0000000   0.0000000   0.0000000
 NMagM=    2.7928460   2.7928460   2.7928460   2.7928460   2.7928460   2.7928460   2.7928460   2.7928460   2.7928460   2.7928460
 AtZNuc=   1.0000000   1.0000000   1.0000000   1.0000000   1.0000000   1.0000000   1.0000000   1.0000000   1.0000000   1.0000000
 Leave Link  101 at Mon Oct 18 09:37:12 2021, MaxMem=  7864320000 cpu:               2.3 elap:               0.1
 (Enter /apps/gaussian/g16-c01-avx/g16/l202.exe)
                          Input orientation:                          
 ---------------------------------------------------------------------
 Center     Atomic      Atomic             Coordinates (Angstroms)
 Number     Number       Type             X           Y           Z
 ---------------------------------------------------------------------
      1          6           0       -0.340300   -0.542000   -0.585300
      2          6           0        0.870700   -0.479000    0.383700
      3          7           0       -0.179300   -1.737900   -1.408000
      4          1           0       -0.355100    0.389000   -1.179400
      5          6           0       -1.696400   -0.628800    0.150400
      6          7           0        0.971200   -1.668600    1.216400
      7          1           0        0.742600    0.385400    1.042500
      8          6           0        2.226600   -0.297300   -0.332600
      9          1           0       -0.955400   -1.836500   -2.051400
     10          1           0        0.665200   -1.664700   -1.964000
     11          1           0        0.942900   -2.481700    0.608000
     12          1           0        0.171500   -1.730700    1.836200
     13          1           0       -1.767100   -1.620300    0.610000
     14          6           0       -2.855600   -0.481500   -0.838800
     15          6           0       -1.844500    0.440900    1.232600
     16          1           0        2.454500   -1.219300   -0.877500
     17          6           0        3.314300   -0.101300    0.722900
     18          6           0        2.239800    0.879600   -1.305900
     19          1           0       -1.166600    0.275000    2.065300
     20          1           0       -2.859700    0.429500    1.624000
     21          1           0       -1.650700    1.428200    0.817600
     22          1           0       -3.804400   -0.516300   -0.307800
     23          1           0       -2.863300   -1.280400   -1.576200
     24          1           0       -2.790700    0.472600   -1.359400
     25          1           0        1.612700    0.699600   -2.175900
     26          1           0        3.254500    1.051800   -1.658900
     27          1           0        1.893400    1.784700   -0.810900
     28          1           0        3.257200   -0.898500    1.457400
     29          1           0        3.178700    0.850900    1.231400
     30          1           0        4.299300   -0.109800    0.262000
 ---------------------------------------------------------------------
                    Distance matrix (angstroms):
                    1          2          3          4          5
     1  C    0.000000
     2  C    1.552241   0.000000
     3  N    1.460456   2.428481   0.000000
     4  H    1.104507   2.167785   2.146361   0.000000
     5  C    1.545249   2.582029   2.441374   2.145547   0.000000
     6  N    2.497075   1.455554   2.866344   3.425295   3.055099
     7  H    2.163903   1.094356   3.370942   2.478265   2.788040
     8  C    2.590890   1.544204   3.003360   2.802366   3.966498
     9  H    2.050251   3.332741   1.012925   2.464466   2.618309
    10  H    2.042621   2.638145   1.013743   2.423694   3.334806
    11  H    2.614001   2.016514   2.424217   3.622226   3.257075
    12  H    2.745653   2.040929   3.263119   3.723477   2.746845
    13  H    2.151100   2.883013   2.570460   3.038582   1.095127
    14  C    2.528766   3.921712   3.010832   2.669509   1.530999
    15  C    2.556065   2.989843   3.806945   2.835269   1.528839
    16  H    2.890506   2.155711   2.736289   3.251403   4.316855
    17  C    3.906623   2.495775   4.407316   4.162167   5.070811
    18  C    3.032677   2.564172   3.565638   2.643898   4.459793
    19  H    2.894122   2.747160   4.134047   3.346581   2.182747
    20  H    3.488867   4.034799   4.590772   3.759483   2.155171
    21  H    2.750812   3.191103   4.140351   2.597407   2.162983
    22  H    3.475292   4.726111   3.980464   3.671093   2.160155
    23  H    2.809385   4.292576   2.727903   3.038982   2.183434
    24  H    2.762807   4.165308   3.421707   2.443673   2.165657
    25  H    2.808165   2.913969   3.121272   2.227492   4.257518
    26  H    4.076200   3.492573   4.431293   3.701140   5.532576
    27  H    3.233240   2.756324   4.130536   2.671989   4.431224
    28  H    4.152315   2.650320   4.552433   4.653932   5.130218
    29  H    4.198087   2.795370   4.994445   4.302679   5.208135
    30  H    4.736096   3.450568   5.049502   4.897946   6.019156
                    6          7          8          9         10
     6  N    0.000000
     7  H    2.073985   0.000000
     8  C    2.419895   2.135237   0.000000
     9  H    3.797169   4.170403   3.930462   0.000000
    10  H    3.195089   3.639772   2.639928   1.632023   0.000000
    11  H    1.015915   2.906746   2.702632   3.330501   2.712893
    12  H    1.013671   2.331093   3.313875   4.049016   3.832703
    13  H    2.805056   3.241679   4.311434   2.790815   3.541685
    14  C    4.503049   4.151849   5.110668   2.630054   3.880988
    15  C    3.518298   2.594669   4.423646   4.094106   4.577160
    16  H    2.605085   3.031842   1.094960   3.658742   2.140200
    17  C    2.861833   2.636790   1.528263   5.379405   4.084285
    18  C    3.803244   2.828573   1.527279   4.259375   3.063645
    19  H    3.011379   2.168721   4.194193   4.631442   4.832513
    20  H    4.386793   3.649199   5.497906   4.719076   5.448333
    21  H    4.077201   2.620286   4.397018   4.401462   4.760958
    22  H    5.143670   4.828207   6.035026   3.591639   4.902973
    23  H    4.759486   4.757625   5.331051   2.043317   3.570488
    24  H    5.037001   4.273282   5.178838   3.029708   4.108143
    25  H    4.186597   3.348715   2.183675   3.611432   2.555890
    26  H    4.569615   3.748505   2.153072   5.120507   3.765227
    27  H    4.109219   2.591809   2.162063   4.771540   3.838812
    28  H    2.424238   2.853726   2.151204   5.562151   4.360218
    29  H    3.349800   2.487359   2.161239   5.923654   4.780848
    30  H    3.796971   3.674849   2.164438   5.995430   4.536460
                   11         12         13         14         15
    11  H    0.000000
    12  H    1.633259   0.000000
    13  H    2.843609   2.296503   0.000000
    14  C    4.530191   4.228411   2.140261   0.000000
    15  C    4.086724   3.023977   2.154569   2.482709   0.000000
    16  H    2.466840   3.582986   4.493925   5.361251   5.068549
    17  C    3.362000   3.711007   5.304784   6.375823   5.212197
    18  C    4.079620   4.578681   5.096609   5.294703   4.828866
    19  H    3.764719   2.421948   2.463871   3.443662   1.086490
    20  H    4.895621   3.728226   2.534492   2.625894   1.088097
    21  H    4.696596   3.786371   3.057777   2.800428   1.088368
    22  H    5.219037   4.677530   2.492341   1.087839   2.670257
    23  H    4.549836   4.588818   2.469141   1.087225   3.448215
    24  H    5.151536   4.882727   3.050660   1.088827   2.759486
    25  H    4.280117   4.907175   4.956432   4.811293   4.861793
    26  H    4.792489   5.427976   6.124091   6.352708   5.893536
    27  H    4.595530   4.725475   5.197330   5.262076   4.466944
    28  H    2.929844   3.218321   5.146132   6.543145   5.279382
    29  H    4.061238   4.009201   5.563623   6.517192   5.039905
    30  H    4.124445   4.705758   6.261304   7.248622   6.244326
                   16         17         18         19         20
    16  H    0.000000
    17  C    2.133181   0.000000
    18  C    2.152906   2.496547   0.000000
    19  H    4.899527   4.692771   4.830537   0.000000
    20  H    6.100555   6.261949   5.898458   1.756475   0.000000
    21  H    5.170618   5.196110   4.466117   1.766629   1.763339
    22  H    6.323970   7.204891   6.283080   3.635347   2.349223
    23  H    5.363852   6.696184   5.547999   4.307967   3.628368
    24  H    5.532348   6.475829   5.047221   3.795434   2.984509
    25  H    2.465086   3.455420   1.087453   5.088474   5.874909
    26  H    2.531498   2.646920   1.088062   5.832599   6.967649
    27  H    3.056679   2.815758   1.088221   4.462658   5.509743
    28  H    2.489779   1.085485   3.439850   4.616996   6.261614
    29  H    3.042639   1.087954   2.705596   4.461915   6.065805
    30  H    2.435721   1.087532   2.771058   5.768537   7.307337
                   21         22         23         24         25
    21  H    0.000000
    22  H    3.112239   0.000000
    23  H    3.812767   1.754525   0.000000
    24  H    2.636684   1.763909   1.767847   0.000000
    25  H    4.487948   5.857746   4.930985   4.484209   0.000000
    26  H    5.507787   7.356118   6.547784   6.080264   1.756941
    27  H    3.916599   6.165439   5.710229   4.895227   1.766199
    28  H    5.469036   7.288910   6.841717   6.811121   4.296414
    29  H    4.881353   7.280251   6.995057   6.518366   3.752991
    30  H    6.170627   8.133872   7.486797   7.296316   3.717029
                   26         27         28         29         30
    26  H    0.000000
    27  H    1.763190   0.000000
    28  H    3.676276   3.768912   0.000000
    29  H    2.898265   2.587464   1.765684   0.000000
    30  H    2.476041   3.244780   1.771158   1.765906   0.000000
 Stoichiometry    C8H20N2
 Framework group  C1[X(C8H20N2)]
 Deg. of freedom    84
 Full point group                 C1      NOp   1
 Largest Abelian subgroup         C1      NOp   1
 Largest concise Abelian subgroup C1      NOp   1
                         Standard orientation:                         
 ---------------------------------------------------------------------
 Center     Atomic      Atomic             Coordinates (Angstroms)
 Number     Number       Type             X           Y           Z
 ---------------------------------------------------------------------
      1          6           0        0.618982    0.480147    0.053387
      2          6           0       -0.619682   -0.455141    0.073408
      3          7           0        0.572939    1.291547    1.266829
      4          1           0        0.578881    1.085463   -0.869608
      5          6           0        1.956828   -0.292709    0.027762
      6          7           0       -0.651800   -1.299952    1.258271
      7          1           0       -0.576490   -1.106060   -0.805258
      8          6           0       -1.965137    0.299529    0.004197
      9          1           0        1.371849    1.912589    1.312286
     10          1           0       -0.258948    1.870887    1.264741
     11          1           0       -0.544438   -0.702951    2.073222
     12          1           0        0.132817   -1.941720    1.252058
     13          1           0        2.090508   -0.766650    1.005930
     14          6           0        3.128314    0.666841   -0.197723
     15          6           0        1.992488   -1.364760   -1.061634
     16          1           0       -2.106541    0.838541    0.946751
     17          6           0       -3.093497   -0.723831   -0.118788
     18          6           0       -2.041470    1.287766   -1.157759
     19          1           0        1.306466   -2.181026   -0.852962
     20          1           0        2.994336   -1.783362   -1.132537
     21          1           0        1.735203   -0.932151   -2.026621
     22          1           0        4.061905    0.110183   -0.241676
     23          1           0        3.217632    1.393519    0.606031
     24          1           0        3.004971    1.201122   -1.138400
     25          1           0       -1.378546    2.138266   -1.017271
     26          1           0       -3.056202    1.670023   -1.247619
     27          1           0       -1.779281    0.795238   -2.092049
     28          1           0       -2.995877   -1.469707    0.663783
     29          1           0       -3.045390   -1.223598   -1.083963
     30          1           0       -4.061794   -0.236823   -0.029628
 ---------------------------------------------------------------------
 Rotational constants (GHZ):           2.0083037           0.7688080           0.7210682
 Leave Link  202 at Mon Oct 18 09:37:12 2021, MaxMem=  7864320000 cpu:               1.2 elap:               0.0
 (Enter /apps/gaussian/g16-c01-avx/g16/l301.exe)
 Standard basis: def2TZVP (5D, 7F)
 Ernie: Thresh=  0.10000D-02 Tol=  0.10000D-05 Strict=F.
 There are   480 symmetry adapted cartesian basis functions of A   symmetry.
 There are   430 symmetry adapted basis functions of A   symmetry.
   430 basis functions,   670 primitive gaussians,   480 cartesian basis functions
    41 alpha electrons       41 beta electrons
       nuclear repulsion energy       611.5902326235 Hartrees.
 IExCor= 1009 DFT=T Ex+Corr=PBE1PBE ExCW=0 ScaHFX=  0.250000
 ScaDFX=  0.750000  0.750000  1.000000  1.000000 ScalE2=  1.000000  1.000000
 IRadAn=      7 IRanWt=     -1 IRanGd=            0 ICorTp=0 IEmpDi=131
 NAtoms=   30 NActive=   30 NUniq=   30 SFac= 1.00D+00 NAtFMM=   60 NAOKFM=F Big=F
 Integral buffers will be    131072 words long.
 Raffenetti 2 integral format.
 Two-electron integral symmetry is turned on.
 R6Disp:  Grimme-D3 Dispersion energy=       -0.0187003523 Hartrees.
 Nuclear repulsion after empirical dispersion term =      611.5715322712 Hartrees.
 Leave Link  301 at Mon Oct 18 09:37:12 2021, MaxMem=  7864320000 cpu:               0.7 elap:               0.0
 (Enter /apps/gaussian/g16-c01-avx/g16/l302.exe)
 NPDir=0 NMtPBC=     1 NCelOv=     1 NCel=       1 NClECP=     1 NCelD=      1
         NCelK=      1 NCelE2=     1 NClLst=     1 CellRange=     0.0.
 One-electron integrals computed using PRISM.
 One-electron integral symmetry used in STVInt
   1 Symmetry operations used in ECPInt.
 ECPInt:  NShTT=   18145 NPrTT=   51640 LenC2=   17551 LenP2D=   39110.
 LDataN:  DoStor=T MaxTD1= 6 Len=  172
 NBasis=   430 RedAO= T EigKep=  6.01D-05  NBF=   430
 NBsUse=   430 1.00D-06 EigRej= -1.00D+00 NBFU=   430
 Precomputing XC quadrature grid using
 IXCGrd= 4 IRadAn=           7 IRanWt=          -1 IRanGd=           0 AccXCQ= 0.00D+00.
 Generated NRdTot=       0 NPtTot=           0 NUsed=           0 NTot=          32
 NSgBfM=   478   478   478   478   478 MxSgAt=    30 MxSgA2=    30.
 Leave Link  302 at Mon Oct 18 09:37:13 2021, MaxMem=  7864320000 cpu:              11.4 elap:               0.4
 (Enter /apps/gaussian/g16-c01-avx/g16/l303.exe)
 DipDrv:  MaxL=1.
 Leave Link  303 at Mon Oct 18 09:37:13 2021, MaxMem=  7864320000 cpu:               1.1 elap:               0.1
 (Enter /apps/gaussian/g16-c01-avx/g16/l401.exe)
 ExpMin= 9.52D-02 ExpMax= 1.97D+04 ExpMxC= 6.73D+02 IAcc=3 IRadAn=         7 AccDes= 0.00D+00
 Harris functional with IExCor= 1009 and IRadAn=       7 diagonalized for initial guess.
 HarFok:  IExCor= 1009 AccDes= 0.00D+00 IRadAn=         7 IDoV= 1 UseB2=F ITyADJ=14
 ICtDFT=  3500011 ScaDFX=  1.000000  1.000000  1.000000  1.000000
 FoFCou: FMM=F IPFlag=           0 FMFlag=      100000 FMFlg1=           0
         NFxFlg=           0 DoJE=T BraDBF=F KetDBF=T FulRan=T
         wScrn=  0.000000 ICntrl=       500 IOpCl=  0 I1Cent=   200000004 NGrid=           0
         NMat0=    1 NMatS0=      1 NMatT0=    0 NMatD0=    1 NMtDS0=    0 NMtDT0=    0
 Petite list used in FoFCou.
 Harris En= -426.288338167538    
 JPrj=0 DoOrth=F DoCkMO=F.
 Leave Link  401 at Mon Oct 18 09:37:16 2021, MaxMem=  7864320000 cpu:              84.8 elap:               2.7
 (Enter /apps/gaussian/g16-c01-avx/g16/l508.exe)
 Integral symmetry usage will be decided dynamically.
 Tight linear equation convergence will be used.
 RPBE1PBE wavefunction.
 Linear searches until partial convergence.
 Full line searches.
 Fock matrices will be formed incrementally for  20 cycles.
 FoFJK:  IHMeth= 1 ICntrl=       0 DoSepK=F KAlg= 0 I1Cent=           0 FoldK=F
 IRaf= 930000000 NMat=       1 IRICut=       1 DoRegI=T DoRafI=F ISym2E= 1 IDoP0=0 IntGTp=1.
 FoFCou: FMM=F IPFlag=           0 FMFlag=      100000 FMFlg1=           0
         NFxFlg=           0 DoJE=F BraDBF=F KetDBF=F FulRan=T
         wScrn=  0.000000 ICntrl=         0 IOpCl=  0 I1Cent=           0 NGrid=           0
         NMat0=    1 NMatS0=      1 NMatT0=    0 NMatD0=    1 NMtDS0=    0 NMtDT0=    0
 Petite list used in FoFCou.
 Iteration   1 EE= -425.641742667004                                    Grad=9.410D-01 Max rot=    3.3120 deg.
 Gradient too large for Newton-Raphson -- use scaled steepest descent instead.
 Alpha Gap=     0.207 HL deriv= 4.77D-02
     ILin= 1 X=0.000D+00 Y=-4.256417426670D+02 DE= 0.00D+00 F= -1.98D+00
 RMSU=  8.94D-04    CP:  9.81D-01
     ILin= 2 X=3.000D-01 Y=-4.260151388446D+02 DE=-3.73D-01 F= -5.05D-01 OKLS=F
 RMSU=  1.13D-04    CP:  9.68D-01  1.67D+00
     ILin= 3 X=5.000D-01 Y=-4.260166004167D+02 DE=-3.75D-01 F=  4.91D-01
     Accept linear search using points  2 and  3.
     An  expanding polynomial of degree  3 produced  0.3997
 RMSU=  1.14D-07    CP:  9.75D-01  1.34D+00  3.99D-01
 Iteration   2 EE= -426.040779144607     Delta-E=       -0.399036477604 Grad=2.188D-01 Max rot=    1.7245 deg.
 Gradient too large for Newton-Raphson -- use scaled steepest descent instead.
 Alpha Gap=     0.302 HL deriv= 4.99D-03
     ILin= 1 X=0.000D+00 Y=-4.260407791446D+02 DE= 0.00D+00 F= -3.51D-02
 RMSU=  1.37D-04    CP:  9.73D-01  1.36D+00  3.75D-01 -3.00D+00
     ILin= 2 X=3.000D-01 Y=-4.260491368876D+02 DE=-8.36D-03 F= -2.07D-02 OKLS=F
 RMSU=  7.92D-06    CP:  9.70D-01  1.39D+00  3.63D-01 -3.00D+00  2.33D+00
     ILin= 3 X=7.000D-01 Y=-4.260535664229D+02 DE=-1.28D-02 F= -1.49D-03
 RMSU=  2.26D-04    CP:  9.65D-01  1.44D+00  3.94D-01 -3.00D+00  3.00D+00
                    CP:  3.00D+00
     ILin= 4 X=1.400D+00 Y=-4.260428821433D+02 DE=-2.10D-03 F=  3.20D-02
     An  expanding polynomial of degree  4 produced  0.7311
     Minimum is close to point  3 DX=  3.11D-02 DF= -2.32D-05 DXR=  4.25D-02 DFR=  1.81D-03 which will be used.
 Iteration   3 EE= -426.053566422864     Delta-E=       -0.012787278256 Grad=6.592D-02 Max rot=    0.3682 deg.
 Gradient too large for Newton-Raphson -- use scaled steepest descent instead.
 Alpha Gap=     0.291 HL deriv= 2.57D-05
     ILin= 1 X=0.000D+00 Y=-4.260535664229D+02 DE= 0.00D+00 F= -4.64D-03
 RMSU=  1.00D-04    CP:  9.68D-01  1.45D+00  5.40D-01 -3.00D+00  2.77D+00
                    CP: -1.13D-01  1.00D-04
     ILin= 2 X=5.000D-01 Y=-4.260546594674D+02 DE=-1.09D-03 F=  2.65D-04 OKLS=T
     Accept linear search using points  1 and  2.
     An  expanding polynomial of degree  2 produced  0.3442
 RMSU=  4.63D-07    CP:  9.68D-01  1.43D+00  4.82D-01 -3.00D+00  2.63D+00
                    CP:  1.92D-01  6.84D-05  6.89D-01
 Iteration   4 EE= -426.054581849758     Delta-E=       -0.001015426895 Grad=3.537D-02 Max rot=    0.2752 deg.
 Gradient too large for Newton-Raphson -- use scaled steepest descent instead.
 Alpha Gap=     0.296 HL deriv= 9.39D-04
     ILin= 1 X=0.000D+00 Y=-4.260545818498D+02 DE= 0.00D+00 F= -6.82D-04
 RMSU=  2.09D-05    CP:  9.67D-01  1.45D+00  5.22D-01 -3.00D+00  2.99D+00
                    CP: -4.30D-01  2.05D-04  1.13D+00  3.00D+00
     ILin= 2 X=5.000D-01 Y=-4.260548326256D+02 DE=-2.51D-04 F= -3.21D-04 OKLS=F
 RMSU=  4.12D-06    CP:  9.65D-01  1.47D+00  5.67D-01 -3.00D+00  3.00D+00
                    CP: -9.09D-01  2.07D-01  1.57D+00  3.00D+00  2.00D+00
     ILin= 3 X=1.000D+00 Y=-4.260549027654D+02 DE=-3.21D-04 F=  4.05D-05
     Accept linear search using points  2 and  3.
     An  expanding polynomial of degree  3 produced  0.8171
 RMSU=  1.18D-07    CP:  9.66D-01  1.46D+00  5.50D-01 -3.00D+00  3.00D+00
                    CP: -7.50D-01  1.29D-01  1.41D+00  3.00D+00  1.63D+00
                    CP:  6.21D-01
 Iteration   5 EE= -426.054898069925     Delta-E=       -0.000316220167 Grad=7.380D-03 Max rot=    0.0444 deg.
 SCF Done:  E(RPBE1PBE) =  -426.054898070     a.u. after    5 cycles
            Convg  =    0.7380D-02                    12 Fock formations.
              S**2 =  0.0000                  -V/T =  2.0053
 Leave Link  508 at Mon Oct 18 09:38:26 2021, MaxMem=  7864320000 cpu:            2206.0 elap:              69.4
 (Enter /apps/gaussian/g16-c01-avx/g16/l502.exe)
 Integral symmetry usage will be decided dynamically.
 Closed shell SCF:
 Using DIIS extrapolation, IDIIS=  1040.
 NGot=  7864320000 LenX=  7863838554 LenY=  7863607674
 Requested convergence on RMS density matrix=1.00D-08 within 128 cycles.
 Requested convergence on MAX density matrix=1.00D-06.
 Requested convergence on             energy=1.00D-06.
 No special actions if energy rises.
 Fock matrices will be formed incrementally for  20 cycles.

 Cycle   1  Pass 1  IDiag  1:
 FoFJK:  IHMeth= 1 ICntrl=       0 DoSepK=F KAlg= 0 I1Cent=           0 FoldK=F
 IRaf= 930000000 NMat=       1 IRICut=       1 DoRegI=T DoRafI=F ISym2E= 0 IDoP0=0 IntGTp=1.
 FoFCou: FMM=F IPFlag=           0 FMFlag=      100000 FMFlg1=           0
         NFxFlg=           0 DoJE=F BraDBF=F KetDBF=F FulRan=T
         wScrn=  0.000000 ICntrl=         0 IOpCl=  0 I1Cent=           0 NGrid=           0
         NMat0=    1 NMatS0=      1 NMatT0=    0 NMatD0=    1 NMtDS0=    0 NMtDT0=    0
 Symmetry not used in FoFCou.
 E= -426.054898069925    
 DIIS: error= 1.51D-04 at cycle   1 NSaved=   1.
 NSaved= 1 IEnMin= 1 EnMin= -426.054898069925     IErMin= 1 ErrMin= 1.51D-04
 ErrMax= 1.51D-04  0.00D+00 EMaxC= 1.00D-01 BMatC= 2.72D-05 BMatP= 2.72D-05
 IDIUse=3 WtCom= 9.98D-01 WtEn= 1.51D-03
 Coeff-Com:  0.100D+01
 Coeff-En:   0.100D+01
 Coeff:      0.100D+01
 Gap=     0.297 Goal=   None    Shift=    0.000
 RMSDP=4.94D-05 MaxDP=1.95D-03              OVMax= 1.29D-03

 Cycle   2  Pass 1  IDiag  1:
 RMSU=  4.94D-05    CP:  1.00D+00
 E= -426.054908745426     Delta-E=       -0.000010675501 Rises=F Damp=F
 DIIS: error= 9.45D-05 at cycle   2 NSaved=   2.
 NSaved= 2 IEnMin= 2 EnMin= -426.054908745426     IErMin= 2 ErrMin= 9.45D-05
 ErrMax= 9.45D-05  0.00D+00 EMaxC= 1.00D-01 BMatC= 1.27D-05 BMatP= 2.72D-05
 IDIUse=1 WtCom= 1.00D+00 WtEn= 0.00D+00
 Coeff-Com:  0.377D+00 0.623D+00
 Coeff:      0.377D+00 0.623D+00
 Gap=     0.273 Goal=   None    Shift=    0.000
 RMSDP=1.37D-05 MaxDP=5.42D-04 DE=-1.07D-05 OVMax= 8.96D-04

 Cycle   3  Pass 1  IDiag  1:
 RMSU=  1.33D-05    CP:  1.00D+00  1.06D+00
 E= -426.054916465300     Delta-E=       -0.000007719874 Rises=F Damp=F
 DIIS: error= 4.64D-05 at cycle   3 NSaved=   3.
 NSaved= 3 IEnMin= 3 EnMin= -426.054916465300     IErMin= 3 ErrMin= 4.64D-05
 ErrMax= 4.64D-05  0.00D+00 EMaxC= 1.00D-01 BMatC= 2.97D-06 BMatP= 1.27D-05
 IDIUse=1 WtCom= 1.00D+00 WtEn= 0.00D+00
 Coeff-Com: -0.946D-03 0.324D+00 0.677D+00
 Coeff:     -0.946D-03 0.324D+00 0.677D+00
 Gap=     0.274 Goal=   None    Shift=    0.000
 RMSDP=5.03D-06 MaxDP=1.70D-04 DE=-7.72D-06 OVMax= 3.40D-04

 Cycle   4  Pass 1  IDiag  1:
 RMSU=  1.73D-06    CP:  1.00D+00  1.09D+00  6.68D-01
 E= -426.054918853252     Delta-E=       -0.000002387952 Rises=F Damp=F
 DIIS: error= 8.51D-06 at cycle   4 NSaved=   4.
 NSaved= 4 IEnMin= 4 EnMin= -426.054918853252     IErMin= 4 ErrMin= 8.51D-06
 ErrMax= 8.51D-06  0.00D+00 EMaxC= 1.00D-01 BMatC= 4.29D-08 BMatP= 2.97D-06
 IDIUse=1 WtCom= 1.00D+00 WtEn= 0.00D+00
 Coeff-Com: -0.656D-02 0.132D+00 0.304D+00 0.571D+00
 Coeff:     -0.656D-02 0.132D+00 0.304D+00 0.571D+00
 Gap=     0.274 Goal=   None    Shift=    0.000
 RMSDP=6.76D-07 MaxDP=2.16D-05 DE=-2.39D-06 OVMax= 3.82D-05

 Cycle   5  Pass 1  IDiag  1:
 RMSU=  4.70D-07    CP:  1.00D+00  1.09D+00  6.86D-01  7.64D-01
 E= -426.054918892473     Delta-E=       -0.000000039221 Rises=F Damp=F
 DIIS: error= 2.02D-06 at cycle   5 NSaved=   5.
 NSaved= 5 IEnMin= 5 EnMin= -426.054918892473     IErMin= 5 ErrMin= 2.02D-06
 ErrMax= 2.02D-06  0.00D+00 EMaxC= 1.00D-01 BMatC= 2.81D-09 BMatP= 4.29D-08
 IDIUse=1 WtCom= 1.00D+00 WtEn= 0.00D+00
 Coeff-Com: -0.158D-02 0.957D-02 0.343D-01 0.220D+00 0.738D+00
 Coeff:     -0.158D-02 0.957D-02 0.343D-01 0.220D+00 0.738D+00
 Gap=     0.274 Goal=   None    Shift=    0.000
 RMSDP=1.90D-07 MaxDP=8.03D-06 DE=-3.92D-08 OVMax= 1.08D-05

 Cycle   6  Pass 1  IDiag  1:
 RMSU=  1.26D-07    CP:  1.00D+00  1.09D+00  6.86D-01  8.07D-01  8.97D-01
 E= -426.054918895271     Delta-E=       -0.000000002798 Rises=F Damp=F
 DIIS: error= 4.17D-07 at cycle   6 NSaved=   6.
 NSaved= 6 IEnMin= 6 EnMin= -426.054918895271     IErMin= 6 ErrMin= 4.17D-07
 ErrMax= 4.17D-07  0.00D+00 EMaxC= 1.00D-01 BMatC= 1.33D-10 BMatP= 2.81D-09
 IDIUse=1 WtCom= 1.00D+00 WtEn= 0.00D+00
 Coeff-Com: -0.455D-03-0.211D-02 0.558D-03 0.595D-01 0.288D+00 0.654D+00
 Coeff:     -0.455D-03-0.211D-02 0.558D-03 0.595D-01 0.288D+00 0.654D+00
 Gap=     0.274 Goal=   None    Shift=    0.000
 RMSDP=4.53D-08 MaxDP=1.45D-06 DE=-2.80D-09 OVMax= 2.23D-06

 Cycle   7  Pass 1  IDiag  1:
 RMSU=  2.24D-08    CP:  1.00D+00  1.09D+00  6.86D-01  8.23D-01  9.05D-01
                    CP:  7.99D-01
 E= -426.054918895406     Delta-E=       -0.000000000135 Rises=F Damp=F
 DIIS: error= 8.42D-08 at cycle   7 NSaved=   7.
 NSaved= 7 IEnMin= 7 EnMin= -426.054918895406     IErMin= 7 ErrMin= 8.42D-08
 ErrMax= 8.42D-08  0.00D+00 EMaxC= 1.00D-01 BMatC= 5.16D-12 BMatP= 1.33D-10
 IDIUse=1 WtCom= 1.00D+00 WtEn= 0.00D+00
 Coeff-Com: -0.123D-03-0.106D-02-0.851D-03 0.130D-01 0.785D-01 0.229D+00
 Coeff-Com:  0.681D+00
 Coeff:     -0.123D-03-0.106D-02-0.851D-03 0.130D-01 0.785D-01 0.229D+00
 Coeff:      0.681D+00
 Gap=     0.274 Goal=   None    Shift=    0.000
 RMSDP=1.14D-08 MaxDP=5.79D-07 DE=-1.35D-10 OVMax= 4.59D-07

 Cycle   8  Pass 1  IDiag  1:
 RMSU=  7.73D-09    CP:  1.00D+00  1.09D+00  6.86D-01  8.23D-01  9.14D-01
                    CP:  8.03D-01  8.17D-01
 E= -426.054918895412     Delta-E=       -0.000000000006 Rises=F Damp=F
 DIIS: error= 2.50D-08 at cycle   8 NSaved=   8.
 NSaved= 8 IEnMin= 8 EnMin= -426.054918895412     IErMin= 8 ErrMin= 2.50D-08
 ErrMax= 2.50D-08  0.00D+00 EMaxC= 1.00D-01 BMatC= 6.31D-13 BMatP= 5.16D-12
 IDIUse=1 WtCom= 1.00D+00 WtEn= 0.00D+00
 Coeff-Com:  0.182D-05-0.227D-03-0.464D-03-0.138D-02 0.945D-03 0.180D-01
 Coeff-Com:  0.269D+00 0.714D+00
 Coeff:      0.182D-05-0.227D-03-0.464D-03-0.138D-02 0.945D-03 0.180D-01
 Coeff:      0.269D+00 0.714D+00
 Gap=     0.274 Goal=   None    Shift=    0.000
 RMSDP=2.85D-09 MaxDP=1.34D-07 DE=-5.91D-12 OVMax= 1.56D-07

 SCF Done:  E(RPBE1PBE) =  -426.054918895     A.U. after    8 cycles
            NFock=  8  Conv=0.28D-08     -V/T= 2.0052
 KE= 4.238605575467D+02 PE=-2.212175096595D+03 EE= 7.506880878813D+02
 Leave Link  502 at Mon Oct 18 09:39:15 2021, MaxMem=  7864320000 cpu:            1571.9 elap:              49.5
 (Enter /apps/gaussian/g16-c01-avx/g16/l508.exe)
 QCSCF skips out because SCF is already converged.
 Leave Link  508 at Mon Oct 18 09:39:15 2021, MaxMem=  7864320000 cpu:               0.1 elap:               0.0
 (Enter /apps/gaussian/g16-c01-avx/g16/l601.exe)
 Copying SCF densities to generalized density rwf, IOpCl= 0 IROHF=0.

 **********************************************************************

            Population analysis using the SCF Density.

 **********************************************************************

 Orbital symmetries:
       Occupied  (A) (A) (A) (A) (A) (A) (A) (A) (A) (A) (A) (A)
                 (A) (A) (A) (A) (A) (A) (A) (A) (A) (A) (A) (A)
                 (A) (A) (A) (A) (A) (A) (A) (A) (A) (A) (A) (A)
                 (A) (A) (A) (A) (A)
       Virtual   (A) (A) (A) (A) (A) (A) (A) (A) (A) (A) (A) (A)
                 (A) (A) (A) (A) (A) (A) (A) (A) (A) (A) (A) (A)
                 (A) (A) (A) (A) (A) (A) (A) (A) (A) (A) (A) (A)
                 (A) (A) (A) (A) (A) (A) (A) (A) (A) (A) (A) (A)
                 (A) (A) (A) (A) (A) (A) (A) (A) (A) (A) (A) (A)
                 (A) (A) (A) (A) (A) (A) (A) (A) (A) (A) (A) (A)
                 (A) (A) (A) (A) (A) (A) (A) (A) (A) (A) (A) (A)
                 (A) (A) (A) (A) (A) (A) (A) (A) (A) (A) (A) (A)
                 (A) (A) (A) (A) (A) (A) (A) (A) (A) (A) (A) (A)
                 (A) (A) (A) (A) (A) (A) (A) (A) (A) (A) (A) (A)
                 (A) (A) (A) (A) (A) (A) (A) (A) (A) (A) (A) (A)
                 (A) (A) (A) (A) (A) (A) (A) (A) (A) (A) (A) (A)
                 (A) (A) (A) (A) (A) (A) (A) (A) (A) (A) (A) (A)
                 (A) (A) (A) (A) (A) (A) (A) (A) (A) (A) (A) (A)
                 (A) (A) (A) (A) (A) (A) (A) (A) (A) (A) (A) (A)
                 (A) (A) (A) (A) (A) (A) (A) (A) (A) (A) (A) (A)
                 (A) (A) (A) (A) (A) (A) (A) (A) (A) (A) (A) (A)
                 (A) (A) (A) (A) (A) (A) (A) (A) (A) (A) (A) (A)
                 (A) (A) (A) (A) (A) (A) (A) (A) (A) (A) (A) (A)
                 (A) (A) (A) (A) (A) (A) (A) (A) (A) (A) (A) (A)
                 (A) (A) (A) (A) (A) (A) (A) (A) (A) (A) (A) (A)
                 (A) (A) (A) (A) (A) (A) (A) (A) (A) (A) (A) (A)
                 (A) (A) (A) (A) (A) (A) (A) (A) (A) (A) (A) (A)
                 (A) (A) (A) (A) (A) (A) (A) (A) (A) (A) (A) (A)
                 (A) (A) (A) (A) (A) (A) (A) (A) (A) (A) (A) (A)
                 (A) (A) (A) (A) (A) (A) (A) (A) (A) (A) (A) (A)
                 (A) (A) (A) (A) (A) (A) (A) (A) (A) (A) (A) (A)
                 (A) (A) (A) (A) (A) (A) (A) (A) (A) (A) (A) (A)
                 (A) (A) (A) (A) (A) (A) (A) (A) (A) (A) (A) (A)
                 (A) (A) (A) (A) (A) (A) (A) (A) (A) (A) (A) (A)
                 (A) (A) (A) (A) (A) (A) (A) (A) (A) (A) (A) (A)
                 (A) (A) (A) (A) (A) (A) (A) (A) (A) (A) (A) (A)
                 (A) (A) (A) (A) (A)
 The electronic state is 1-A.
 Alpha  occ. eigenvalues --  -14.36235 -14.34564 -10.24318 -10.23857 -10.22504
 Alpha  occ. eigenvalues --  -10.21889 -10.21016 -10.20875 -10.20472 -10.18951
 Alpha  occ. eigenvalues --   -0.93364  -0.88796  -0.81798  -0.80909  -0.71454
 Alpha  occ. eigenvalues --   -0.70176  -0.69608  -0.64308  -0.58225  -0.56475
 Alpha  occ. eigenvalues --   -0.51843  -0.49693  -0.48896  -0.47068  -0.45102
 Alpha  occ. eigenvalues --   -0.45062  -0.43313  -0.41670  -0.41034  -0.40094
 Alpha  occ. eigenvalues --   -0.39235  -0.38485  -0.37613  -0.35656  -0.34811
 Alpha  occ. eigenvalues --   -0.34309  -0.33749  -0.32632  -0.31424  -0.25856
 Alpha  occ. eigenvalues --   -0.24072
 Alpha virt. eigenvalues --    0.03284   0.05012   0.05583   0.06505   0.08617
 Alpha virt. eigenvalues --    0.09041   0.09638   0.10196   0.11075   0.11482
 Alpha virt. eigenvalues --    0.12261   0.13096   0.13629   0.15113   0.15466
 Alpha virt. eigenvalues --    0.15874   0.16256   0.16502   0.16954   0.17706
 Alpha virt. eigenvalues --    0.18493   0.18637   0.19138   0.20856   0.21717
 Alpha virt. eigenvalues --    0.22192   0.23401   0.23972   0.24810   0.25458
 Alpha virt. eigenvalues --    0.25963   0.26643   0.27689   0.28790   0.30674
 Alpha virt. eigenvalues --    0.31015   0.32051   0.33058   0.33669   0.35448
 Alpha virt. eigenvalues --    0.36540   0.37718   0.38452   0.38711   0.40263
 Alpha virt. eigenvalues --    0.40581   0.40859   0.42054   0.42418   0.42708
 Alpha virt. eigenvalues --    0.43852   0.43944   0.44851   0.44952   0.45854
 Alpha virt. eigenvalues --    0.46346   0.47203   0.47429   0.47808   0.48172
 Alpha virt. eigenvalues --    0.48697   0.49080   0.49365   0.50388   0.50631
 Alpha virt. eigenvalues --    0.51088   0.51795   0.52350   0.52918   0.54199
 Alpha virt. eigenvalues --    0.55969   0.56577   0.56803   0.57691   0.60114
 Alpha virt. eigenvalues --    0.60523   0.61716   0.62496   0.63824   0.64232
 Alpha virt. eigenvalues --    0.65844   0.68196   0.68886   0.71185   0.72638
 Alpha virt. eigenvalues --    0.72771   0.74668   0.76369   0.79155   0.81759
 Alpha virt. eigenvalues --    0.82769   0.83453   0.83880   0.84948   0.87036
 Alpha virt. eigenvalues --    0.89536   0.90507   0.91094   0.92988   0.94322
 Alpha virt. eigenvalues --    0.94933   0.95648   0.99294   1.00807   1.01170
 Alpha virt. eigenvalues --    1.02726   1.03876   1.06852   1.08355   1.08792
 Alpha virt. eigenvalues --    1.10666   1.10846   1.12404   1.14109   1.15624
 Alpha virt. eigenvalues --    1.17475   1.17943   1.18378   1.19639   1.22332
 Alpha virt. eigenvalues --    1.23409   1.24469   1.26162   1.28338   1.29740
 Alpha virt. eigenvalues --    1.30688   1.33537   1.35749   1.37059   1.38283
 Alpha virt. eigenvalues --    1.40513   1.43299   1.44731   1.46310   1.48635
 Alpha virt. eigenvalues --    1.49678   1.50200   1.50958   1.52263   1.53331
 Alpha virt. eigenvalues --    1.56145   1.57124   1.57427   1.58055   1.59276
 Alpha virt. eigenvalues --    1.59738   1.60408   1.60893   1.61862   1.62208
 Alpha virt. eigenvalues --    1.63064   1.64532   1.65538   1.65603   1.66871
 Alpha virt. eigenvalues --    1.67266   1.68519   1.71387   1.73918   1.75874
 Alpha virt. eigenvalues --    1.76132   1.76648   1.78950   1.80794   1.82562
 Alpha virt. eigenvalues --    1.84866   1.86558   1.88054   1.89975   1.90706
 Alpha virt. eigenvalues --    1.93293   1.94782   1.96530   1.96803   1.98519
 Alpha virt. eigenvalues --    1.99936   2.00564   2.01738   2.03970   2.05304
 Alpha virt. eigenvalues --    2.06238   2.08597   2.10251   2.11766   2.12689
 Alpha virt. eigenvalues --    2.13631   2.15687   2.15988   2.18214   2.19683
 Alpha virt. eigenvalues --    2.20686   2.21042   2.22287   2.24148   2.26001
 Alpha virt. eigenvalues --    2.27534   2.28087   2.29918   2.32489   2.32862
 Alpha virt. eigenvalues --    2.35308   2.35508   2.37054   2.38235   2.38968
 Alpha virt. eigenvalues --    2.39914   2.40914   2.42330   2.42711   2.44066
 Alpha virt. eigenvalues --    2.44980   2.47097   2.48024   2.48301   2.51126
 Alpha virt. eigenvalues --    2.51566   2.52840   2.54090   2.55437   2.56875
 Alpha virt. eigenvalues --    2.57976   2.59335   2.60784   2.60901   2.61627
 Alpha virt. eigenvalues --    2.62770   2.64210   2.64620   2.65467   2.66094
 Alpha virt. eigenvalues --    2.67289   2.68896   2.69933   2.70677   2.72058
 Alpha virt. eigenvalues --    2.73841   2.75942   2.76950   2.77203   2.78495
 Alpha virt. eigenvalues --    2.79624   2.80756   2.81505   2.83720   2.85190
 Alpha virt. eigenvalues --    2.87804   2.88595   2.90634   2.93458   2.95658
 Alpha virt. eigenvalues --    2.95947   2.97758   3.00376   3.02348   3.02911
 Alpha virt. eigenvalues --    3.04331   3.05818   3.06963   3.09744   3.10459
 Alpha virt. eigenvalues --    3.12176   3.13609   3.14741   3.16751   3.19254
 Alpha virt. eigenvalues --    3.19464   3.21341   3.22041   3.24587   3.24879
 Alpha virt. eigenvalues --    3.26230   3.28146   3.29937   3.31029   3.32816
 Alpha virt. eigenvalues --    3.33386   3.34717   3.35992   3.38294   3.39537
 Alpha virt. eigenvalues --    3.40010   3.40404   3.41810   3.42848   3.46237
 Alpha virt. eigenvalues --    3.48228   3.49253   3.50047   3.51820   3.53007
 Alpha virt. eigenvalues --    3.54377   3.55241   3.56424   3.57649   3.58622
 Alpha virt. eigenvalues --    3.60219   3.60345   3.62727   3.63648   3.65681
 Alpha virt. eigenvalues --    3.66451   3.67250   3.69617   3.71012   3.72098
 Alpha virt. eigenvalues --    3.72989   3.73687   3.76390   3.78811   3.81982
 Alpha virt. eigenvalues --    3.83941   3.86742   3.90425   3.91006   3.95764
 Alpha virt. eigenvalues --    3.96797   4.00088   4.00808   4.04679   4.06212
 Alpha virt. eigenvalues --    4.06613   4.09226   4.09428   4.13425   4.16384
 Alpha virt. eigenvalues --    4.18322   4.18924   4.21603   4.25986   4.26522
 Alpha virt. eigenvalues --    4.29595   4.31641   4.34463   4.38931   4.39530
 Alpha virt. eigenvalues --    4.39660   4.42042   4.42860   4.44526   4.44986
 Alpha virt. eigenvalues --    4.46888   4.48053   4.51335   4.53664   4.56761
 Alpha virt. eigenvalues --    4.57490   4.59604   4.61399   4.67079   4.68855
 Alpha virt. eigenvalues --    4.70404   4.74053   4.78013   4.80464   4.82871
 Alpha virt. eigenvalues --    4.87302   4.87643   4.91084   4.91778   4.94021
 Alpha virt. eigenvalues --    4.95215   4.97439   4.99791   5.03423   5.08670
 Alpha virt. eigenvalues --    5.12624   5.17346   5.20581   5.25415   5.30677
 Alpha virt. eigenvalues --    5.36497   5.40123   5.41651   5.44705   5.47874
 Alpha virt. eigenvalues --    5.62224   5.64662   5.89778   5.93293  22.46943
 Alpha virt. eigenvalues --   22.48384  22.49780  22.51612  22.72346  22.74154
 Alpha virt. eigenvalues --   22.75675  22.79642  32.15407  32.27438
          Condensed to atoms (all electrons):
               1          2          3          4          5          6
     1  C    5.252570   0.224099   0.178508   0.385083   0.281836  -0.025923
     2  C    0.224099   5.118052   0.050576  -0.044930  -0.042598   0.237049
     3  N    0.178508   0.050576   6.652813  -0.059255  -0.009423  -0.035165
     4  H    0.385083  -0.044930  -0.059255   0.645163  -0.009807   0.010396
     5  C    0.281836  -0.042598  -0.009423  -0.009807   5.071292   0.016587
     6  N   -0.025923   0.237049  -0.035165   0.010396   0.016587   6.570897
     7  H   -0.085884   0.420745   0.006857   0.007685  -0.013871  -0.027905
     8  C   -0.054146   0.294947  -0.004832  -0.016499   0.006591  -0.005460
     9  H   -0.020671   0.000462   0.358533  -0.006007  -0.015384   0.000358
    10  H   -0.029329  -0.016401   0.362159  -0.006344   0.002457   0.001294
    11  H   -0.004699  -0.044073   0.015897   0.001461  -0.005296   0.374955
    12  H   -0.001272  -0.060359   0.000551   0.000003   0.007280   0.388794
    13  H   -0.063928  -0.021662   0.004888   0.012459   0.421644   0.016605
    14  C   -0.043758   0.004387  -0.005328  -0.014139   0.294320   0.006500
    15  C   -0.072254   0.021613   0.011465  -0.001387   0.310359  -0.010661
    16  H   -0.034104  -0.005328   0.005705   0.002996   0.000058  -0.009232
    17  C    0.006130  -0.039298   0.000955   0.000990   0.000603  -0.050538
    18  C    0.034989  -0.057995  -0.009537   0.001253   0.000468   0.007969
    19  H   -0.014669   0.011372  -0.000204   0.000061  -0.037503  -0.001688
    20  H    0.013995  -0.001344  -0.000415  -0.000095  -0.042907   0.000350
    21  H   -0.003246  -0.007455   0.000089   0.005574  -0.030885   0.000760
    22  H    0.014862  -0.000987  -0.000183  -0.000042  -0.050290   0.000066
    23  H   -0.009534   0.000495  -0.000346   0.000685  -0.035380  -0.000217
    24  H   -0.010004   0.000435  -0.000808   0.008030  -0.028830  -0.000116
    25  H    0.009892  -0.018516   0.004180  -0.010009   0.000122   0.000253
    26  H   -0.001211   0.014223  -0.000045   0.000627  -0.000002  -0.000379
    27  H   -0.009008   0.001036   0.000684   0.001232  -0.000530   0.000018
    28  H    0.002020  -0.007200  -0.000102  -0.000174  -0.000283   0.021437
    29  H    0.001078  -0.017114  -0.000035  -0.000179  -0.000222   0.002047
    30  H   -0.000864   0.016066   0.000039  -0.000049   0.000015   0.000926
               7          8          9         10         11         12
     1  C   -0.085884  -0.054146  -0.020671  -0.029329  -0.004699  -0.001272
     2  C    0.420745   0.294947   0.000462  -0.016401  -0.044073  -0.060359
     3  N    0.006857  -0.004832   0.358533   0.362159   0.015897   0.000551
     4  H    0.007685  -0.016499  -0.006007  -0.006344   0.001461   0.000003
     5  C   -0.013871   0.006591  -0.015384   0.002457  -0.005296   0.007280
     6  N   -0.027905  -0.005460   0.000358   0.001294   0.374955   0.388794
     7  H    0.616327  -0.019664  -0.000844  -0.000262   0.009704  -0.012374
     8  C   -0.019664   5.020073  -0.000376   0.011140  -0.012347   0.007645
     9  H   -0.000844  -0.000376   0.501354  -0.029124  -0.001193   0.000055
    10  H   -0.000262   0.011140  -0.029124   0.489933  -0.000895  -0.000116
    11  H    0.009704  -0.012347  -0.001193  -0.000895   0.462129  -0.033907
    12  H   -0.012374   0.007645   0.000055  -0.000116  -0.033907   0.493056
    13  H    0.002784  -0.001109  -0.002154  -0.000218   0.003555   0.001464
    14  C   -0.001153   0.000843   0.009999   0.001160  -0.000125   0.000929
    15  C    0.009139  -0.000426  -0.000465  -0.001161   0.001936  -0.002503
    16  H    0.010715   0.392957  -0.000620  -0.002750   0.005359  -0.000491
    17  C   -0.001639   0.331646  -0.000085   0.000241   0.001520   0.001383
    18  C   -0.011780   0.323060   0.000355  -0.004014   0.000267  -0.000939
    19  H   -0.005789   0.001125  -0.000006   0.000003  -0.000393   0.003702
    20  H    0.000571  -0.000020  -0.000048   0.000038   0.000044  -0.000061
    21  H    0.001634  -0.000546  -0.000016  -0.000035  -0.000034   0.000015
    22  H   -0.000032   0.000026  -0.000159   0.000047  -0.000002  -0.000003
    23  H    0.000089  -0.000156   0.000247  -0.000561   0.000085  -0.000032
    24  H    0.000117  -0.000126  -0.000175  -0.000216   0.000010  -0.000023
    25  H   -0.000856  -0.033329   0.000446   0.004738  -0.000110  -0.000004
    26  H   -0.000038  -0.044236  -0.000011  -0.000120   0.000011   0.000031
    27  H    0.005643  -0.033422  -0.000011   0.000039   0.000025  -0.000022
    28  H   -0.001488  -0.040840   0.000009  -0.000076  -0.000400  -0.000852
    29  H    0.005860  -0.024163   0.000005  -0.000010  -0.000056  -0.000182
    30  H   -0.000023  -0.049399  -0.000005  -0.000003  -0.000067   0.000048
              13         14         15         16         17         18
     1  C   -0.063928  -0.043758  -0.072254  -0.034104   0.006130   0.034989
     2  C   -0.021662   0.004387   0.021613  -0.005328  -0.039298  -0.057995
     3  N    0.004888  -0.005328   0.011465   0.005705   0.000955  -0.009537
     4  H    0.012459  -0.014139  -0.001387   0.002996   0.000990   0.001253
     5  C    0.421644   0.294320   0.310359   0.000058   0.000603   0.000468
     6  N    0.016605   0.006500  -0.010661  -0.009232  -0.050538   0.007969
     7  H    0.002784  -0.001153   0.009139   0.010715  -0.001639  -0.011780
     8  C   -0.001109   0.000843  -0.000426   0.392957   0.331646   0.323060
     9  H   -0.002154   0.009999  -0.000465  -0.000620  -0.000085   0.000355
    10  H   -0.000218   0.001160  -0.001161  -0.002750   0.000241  -0.004014
    11  H    0.003555  -0.000125   0.001936   0.005359   0.001520   0.000267
    12  H    0.001464   0.000929  -0.002503  -0.000491   0.001383  -0.000939
    13  H    0.622646  -0.025032  -0.052226   0.000104   0.000200  -0.000227
    14  C   -0.025032   4.986935  -0.049788  -0.000189   0.000073  -0.000410
    15  C   -0.052226  -0.049788   5.008052   0.000219   0.000176  -0.000009
    16  H    0.000104  -0.000189   0.000219   0.657796  -0.021977  -0.065162
    17  C    0.000200   0.000073   0.000176  -0.021977   4.973164  -0.045877
    18  C   -0.000227  -0.000410  -0.000009  -0.065162  -0.045877   4.995986
    19  H   -0.005782   0.009385   0.414778  -0.000026   0.000089   0.000058
    20  H   -0.003365  -0.006622   0.404951   0.000004  -0.000004  -0.000014
    21  H    0.008910  -0.004907   0.399060   0.000010   0.000077  -0.000041
    22  H   -0.004746   0.419507  -0.007421  -0.000001  -0.000001  -0.000001
    23  H   -0.006116   0.403352   0.013277   0.000032   0.000000   0.000032
    24  H    0.009127   0.400368  -0.008345   0.000006   0.000002   0.000016
    25  H   -0.000058   0.000486  -0.000110  -0.007853   0.008741   0.408688
    26  H    0.000006  -0.000007   0.000008  -0.003117  -0.005163   0.407177
    27  H    0.000002   0.000053  -0.000018   0.009507  -0.004796   0.397123
    28  H   -0.000052  -0.000012  -0.000039  -0.004121   0.414744   0.011014
    29  H   -0.000020  -0.000003  -0.000038   0.009512   0.391929  -0.009536
    30  H   -0.000001  -0.000002   0.000005  -0.007810   0.407197  -0.004645
              19         20         21         22         23         24
     1  C   -0.014669   0.013995  -0.003246   0.014862  -0.009534  -0.010004
     2  C    0.011372  -0.001344  -0.007455  -0.000987   0.000495   0.000435
     3  N   -0.000204  -0.000415   0.000089  -0.000183  -0.000346  -0.000808
     4  H    0.000061  -0.000095   0.005574  -0.000042   0.000685   0.008030
     5  C   -0.037503  -0.042907  -0.030885  -0.050290  -0.035380  -0.028830
     6  N   -0.001688   0.000350   0.000760   0.000066  -0.000217  -0.000116
     7  H   -0.005789   0.000571   0.001634  -0.000032   0.000089   0.000117
     8  C    0.001125  -0.000020  -0.000546   0.000026  -0.000156  -0.000126
     9  H   -0.000006  -0.000048  -0.000016  -0.000159   0.000247  -0.000175
    10  H    0.000003   0.000038  -0.000035   0.000047  -0.000561  -0.000216
    11  H   -0.000393   0.000044  -0.000034  -0.000002   0.000085   0.000010
    12  H    0.003702  -0.000061   0.000015  -0.000003  -0.000032  -0.000023
    13  H   -0.005782  -0.003365   0.008910  -0.004746  -0.006116   0.009127
    14  C    0.009385  -0.006622  -0.004907   0.419507   0.403352   0.400368
    15  C    0.414778   0.404951   0.399060  -0.007421   0.013277  -0.008345
    16  H   -0.000026   0.000004   0.000010  -0.000001   0.000032   0.000006
    17  C    0.000089  -0.000004   0.000077  -0.000001   0.000000   0.000002
    18  C    0.000058  -0.000014  -0.000041  -0.000001   0.000032   0.000016
    19  H    0.540602  -0.022263  -0.022951   0.000210  -0.000491  -0.000106
    20  H   -0.022263   0.551806  -0.023043   0.005314   0.000130  -0.000721
    21  H   -0.022951  -0.023043   0.552595  -0.000499  -0.000218   0.005424
    22  H    0.000210   0.005314  -0.000499   0.544120  -0.020249  -0.024232
    23  H   -0.000491   0.000130  -0.000218  -0.020249   0.570551  -0.026206
    24  H   -0.000106  -0.000721   0.005424  -0.024232  -0.026206   0.559860
    25  H   -0.000026   0.000005  -0.000042   0.000002  -0.000053  -0.000043
    26  H    0.000003  -0.000000   0.000003   0.000000   0.000000   0.000001
    27  H   -0.000016   0.000004   0.000186  -0.000001  -0.000000  -0.000002
    28  H   -0.000011  -0.000001   0.000004  -0.000000   0.000000   0.000000
    29  H    0.000010  -0.000000  -0.000002   0.000000   0.000000   0.000000
    30  H   -0.000000  -0.000000  -0.000000   0.000000   0.000000   0.000000
              25         26         27         28         29         30
     1  C    0.009892  -0.001211  -0.009008   0.002020   0.001078  -0.000864
     2  C   -0.018516   0.014223   0.001036  -0.007200  -0.017114   0.016066
     3  N    0.004180  -0.000045   0.000684  -0.000102  -0.000035   0.000039
     4  H   -0.010009   0.000627   0.001232  -0.000174  -0.000179  -0.000049
     5  C    0.000122  -0.000002  -0.000530  -0.000283  -0.000222   0.000015
     6  N    0.000253  -0.000379   0.000018   0.021437   0.002047   0.000926
     7  H   -0.000856  -0.000038   0.005643  -0.001488   0.005860  -0.000023
     8  C   -0.033329  -0.044236  -0.033422  -0.040840  -0.024163  -0.049399
     9  H    0.000446  -0.000011  -0.000011   0.000009   0.000005  -0.000005
    10  H    0.004738  -0.000120   0.000039  -0.000076  -0.000010  -0.000003
    11  H   -0.000110   0.000011   0.000025  -0.000400  -0.000056  -0.000067
    12  H   -0.000004   0.000031  -0.000022  -0.000852  -0.000182   0.000048
    13  H   -0.000058   0.000006   0.000002  -0.000052  -0.000020  -0.000001
    14  C    0.000486  -0.000007   0.000053  -0.000012  -0.000003  -0.000002
    15  C   -0.000110   0.000008  -0.000018  -0.000039  -0.000038   0.000005
    16  H   -0.007853  -0.003117   0.009507  -0.004121   0.009512  -0.007810
    17  C    0.008741  -0.005163  -0.004796   0.414744   0.391929   0.407197
    18  C    0.408688   0.407177   0.397123   0.011014  -0.009536  -0.004645
    19  H   -0.000026   0.000003  -0.000016  -0.000011   0.000010  -0.000000
    20  H    0.000005  -0.000000   0.000004  -0.000001  -0.000000  -0.000000
    21  H   -0.000042   0.000003   0.000186   0.000004  -0.000002  -0.000000
    22  H    0.000002   0.000000  -0.000001  -0.000000   0.000000   0.000000
    23  H   -0.000053   0.000000  -0.000000   0.000000   0.000000   0.000000
    24  H   -0.000043   0.000001  -0.000002   0.000000   0.000000   0.000000
    25  H    0.561182  -0.024474  -0.023344  -0.000463   0.000084  -0.000018
    26  H   -0.024474   0.548091  -0.021285   0.000030  -0.000874   0.004282
    27  H   -0.023344  -0.021285   0.553637  -0.000276   0.005874  -0.000307
    28  H   -0.000463   0.000030  -0.000276   0.495489  -0.017828  -0.020320
    29  H    0.000084  -0.000874   0.005874  -0.017828   0.581007  -0.025950
    30  H   -0.000018   0.004282  -0.000307  -0.020320  -0.025950   0.567695
 Mulliken charges:
               1
     1  C    0.079442
     2  C   -0.030295
     3  N   -0.528219
     4  H    0.085222
     5  C   -0.090421
     6  N   -0.489977
     7  H    0.085734
     8  C   -0.048956
     9  H    0.205533
    10  H    0.218386
    11  H    0.226640
    12  H    0.208185
    13  H    0.082303
    14  C   -0.386819
    15  C   -0.388186
    16  H    0.067803
    17  C   -0.370480
    18  C   -0.378268
    19  H    0.130525
    20  H    0.123713
    21  H    0.119581
    22  H    0.124697
    23  H    0.110584
    24  H    0.116554
    25  H    0.120488
    26  H    0.126468
    27  H    0.117976
    28  H    0.149792
    29  H    0.098805
    30  H    0.113191
 Sum of Mulliken charges =   0.00000
 Mulliken charges with hydrogens summed into heavy atoms:
               1
     1  C    0.164663
     2  C    0.055439
     3  N   -0.104300
     5  C   -0.008118
     6  N   -0.055152
     8  C    0.018847
    14  C   -0.034985
    15  C   -0.014366
    17  C   -0.008693
    18  C   -0.013336
 Electronic spatial extent (au):  <R**2>=           1903.3995
 Charge=              0.0000 electrons
 Dipole moment (field-independent basis, Debye):
    X=              1.3260    Y=              1.3039    Z=             -0.6484  Tot=              1.9695
 Quadrupole moment (field-independent basis, Debye-Ang):
   XX=            -67.6445   YY=            -65.5144   ZZ=            -68.5756
   XY=             -3.0647   XZ=              0.8465   YZ=              1.9546
 Traceless Quadrupole moment (field-independent basis, Debye-Ang):
   XX=             -0.3997   YY=              1.7304   ZZ=             -1.3308
   XY=             -3.0647   XZ=              0.8465   YZ=              1.9546
 Octapole moment (field-independent basis, Debye-Ang**2):
  XXX=              8.6754  YYY=              8.6992  ZZZ=              3.2832  XYY=              8.2152
  XXY=              5.9798  XXZ=              3.1196  XZZ=              0.3618  YZZ=              0.4255
  YYZ=              5.8317  XYZ=             -4.2591
 Hexadecapole moment (field-independent basis, Debye-Ang**3):
 XXXX=          -1734.1467 YYYY=           -507.5908 ZZZZ=           -392.3768 XXXY=            -28.6664
 XXXZ=              3.5509 YYYX=             -3.0130 YYYZ=             15.7355 ZZZX=             -3.6562
 ZZZY=             -2.3294 XXYY=           -378.8924 XXZZ=           -359.8347 YYZZ=           -151.6207
 XXYZ=             10.1406 YYXZ=             11.1172 ZZXY=              0.3464
 N-N= 6.115715322712D+02 E-N=-2.212175097236D+03  KE= 4.238605575467D+02
 No NMR shielding tensors so no spin-rotation constants.
 Leave Link  601 at Mon Oct 18 09:39:15 2021, MaxMem=  7864320000 cpu:               5.0 elap:               0.2
 (Enter /apps/gaussian/g16-c01-avx/g16/l9999.exe)
 Unable to Open any file for archive entry.
 1\1\GINC-CX3-6-18\SP\RPBE1PBE\def2TZVP\C8H20N2\ATARZIA\18-Oct-2021\0\\
 #P PBE1PBE/Def2TZVP SP SCF=(YQC,MaxCycle=900) int=(Grid=Superfinegrid)
  EmpiricalDispersion=GD3\\_ami1_opt_gas\\0,1\C,0,-0.3403,-0.542,-0.585
 3\C,0,0.8707,-0.479,0.3837\N,0,-0.1793,-1.7379,-1.408\H,0,-0.3551,0.38
 9,-1.1794\C,0,-1.6964,-0.6288,0.1504\N,0,0.9712,-1.6686,1.2164\H,0,0.7
 426,0.3854,1.0425\C,0,2.2266,-0.2973,-0.3326\H,0,-0.9554,-1.8365,-2.05
 14\H,0,0.6652,-1.6647,-1.964\H,0,0.9429,-2.4817,0.608\H,0,0.1715,-1.73
 07,1.8362\H,0,-1.7671,-1.6203,0.61\C,0,-2.8556,-0.4815,-0.8388\C,0,-1.
 8445,0.4409,1.2326\H,0,2.4545,-1.2193,-0.8775\C,0,3.3143,-0.1013,0.722
 9\C,0,2.2398,0.8796,-1.3059\H,0,-1.1666,0.275,2.0653\H,0,-2.8597,0.429
 5,1.624\H,0,-1.6507,1.4282,0.8176\H,0,-3.8044,-0.5163,-0.3078\H,0,-2.8
 633,-1.2804,-1.5762\H,0,-2.7907,0.4726,-1.3594\H,0,1.6127,0.6996,-2.17
 59\H,0,3.2545,1.0518,-1.6589\H,0,1.8934,1.7847,-0.8109\H,0,3.2572,-0.8
 985,1.4574\H,0,3.1787,0.8509,1.2314\H,0,4.2993,-0.1098,0.262\\Version=
 ES64L-G16RevC.01\State=1-A\HF=-426.0549189\RMSD=2.849e-09\Dipole=-0.52
 58132,0.2209006,-0.524515\Quadrupole=-0.2688057,-0.9213228,1.1901285,0
 .671507,-2.4169513,1.2646627\PG=C01 [X(C8H20N2)]\\@
 The archive entry for this job was punched.


    THE DOUGHNUT CREED
 AS YOU RAMBLE ON THROUGH LIFE, BROTHER
 WHATEVER BE YOUR GOAL
 KEEP YOUR EYE UPON THE DOUGHNUT
 AND NOT UPON THE HOLE.
 Job cpu time:       0 days  1 hours  4 minutes 52.4 seconds.
 Elapsed time:       0 days  0 hours  2 minutes  2.6 seconds.
 File lengths (MBytes):  RWF=    696 Int=      0 D2E=      0 Chk=     24 Scr=     16
 Normal termination of Gaussian 16 at Mon Oct 18 09:39:15 2021.
