 Entering Gaussian System, Link 0=g16
 Initial command:
 /apps/gaussian/g16-c01-avx/g16/l1.exe "/rds/general/ephemeral/user/atarzia/ephemeral/xtb_spe_DFT/Gau-4090159.inp" -scrdir="/rds/general/ephemeral/user/atarzia/ephemeral/xtb_spe_DFT/"
 Entering Link 1 = /apps/gaussian/g16-c01-avx/g16/l1.exe PID=   4090160.
  
 Copyright (c) 1988-2019, Gaussian, Inc.  All Rights Reserved.
  
 This is part of the Gaussian(R) 16 program.  It is based on
 the Gaussian(R) 09 system (copyright 2009, Gaussian, Inc.),
 the Gaussian(R) 03 system (copyright 2003, Gaussian, Inc.),
 the Gaussian(R) 98 system (copyright 1998, Gaussian, Inc.),
 the Gaussian(R) 94 system (copyright 1995, Gaussian, Inc.),
 the Gaussian 92(TM) system (copyright 1992, Gaussian, Inc.),
 the Gaussian 90(TM) system (copyright 1990, Gaussian, Inc.),
 the Gaussian 88(TM) system (copyright 1988, Gaussian, Inc.),
 the Gaussian 86(TM) system (copyright 1986, Carnegie Mellon
 University), and the Gaussian 82(TM) system (copyright 1983,
 Carnegie Mellon University). Gaussian is a federally registered
 trademark of Gaussian, Inc.
  
 This software contains proprietary and confidential information,
 including trade secrets, belonging to Gaussian, Inc.
  
 This software is provided under written license and may be
 used, copied, transmitted, or stored only in accord with that
 written license.
  
 The following legend is applicable only to US Government
 contracts under FAR:
  
                    RESTRICTED RIGHTS LEGEND
  
 Use, reproduction and disclosure by the US Government is
 subject to restrictions as set forth in subparagraphs (a)
 and (c) of the Commercial Computer Software - Restricted
 Rights clause in FAR 52.227-19.
  
 Gaussian, Inc.
 340 Quinnipiac St., Bldg. 40, Wallingford CT 06492
  
  
 ---------------------------------------------------------------
 Warning -- This program may not be used in any manner that
 competes with the business of Gaussian, Inc. or will provide
 assistance to any competitor of Gaussian, Inc.  The licensee
 of this program is prohibited from giving any competitor of
 Gaussian, Inc. access to this program.  By using this program,
 the user acknowledges that Gaussian, Inc. is engaged in the
 business of creating and licensing software in the field of
 computational chemistry and represents and warrants to the
 licensee that it is not a competitor of Gaussian, Inc. and that
 it will not use this program in any manner prohibited above.
 ---------------------------------------------------------------
  

 Cite this work as:
 Gaussian 16, Revision C.01,
 M. J. Frisch, G. W. Trucks, H. B. Schlegel, G. E. Scuseria, 
 M. A. Robb, J. R. Cheeseman, G. Scalmani, V. Barone, 
 G. A. Petersson, H. Nakatsuji, X. Li, M. Caricato, A. V. Marenich, 
 J. Bloino, B. G. Janesko, R. Gomperts, B. Mennucci, H. P. Hratchian, 
 J. V. Ortiz, A. F. Izmaylov, J. L. Sonnenberg, D. Williams-Young, 
 F. Ding, F. Lipparini, F. Egidi, J. Goings, B. Peng, A. Petrone, 
 T. Henderson, D. Ranasinghe, V. G. Zakrzewski, J. Gao, N. Rega, 
 G. Zheng, W. Liang, M. Hada, M. Ehara, K. Toyota, R. Fukuda, 
 J. Hasegawa, M. Ishida, T. Nakajima, Y. Honda, O. Kitao, H. Nakai, 
 T. Vreven, K. Throssell, J. A. Montgomery, Jr., J. E. Peralta, 
 F. Ogliaro, M. J. Bearpark, J. J. Heyd, E. N. Brothers, K. N. Kudin, 
 V. N. Staroverov, T. A. Keith, R. Kobayashi, J. Normand, 
 K. Raghavachari, A. P. Rendell, J. C. Burant, S. S. Iyengar, 
 J. Tomasi, M. Cossi, J. M. Millam, M. Klene, C. Adamo, R. Cammi, 
 J. W. Ochterski, R. L. Martin, K. Morokuma, O. Farkas, 
 J. B. Foresman, and D. J. Fox, Gaussian, Inc., Wallingford CT, 2019.
 
 ******************************************
 Gaussian 16:  ES64L-G16RevC.01  3-Jul-2019
                11-Nov-2021 
 ******************************************
 %chk=_ami2_opt_dcm_mp2.chk
 %mem=60000mb
 %nprocshared=32
 Will use up to   32 processors via shared memory.
 ----------------------------------------------------------------------
 #P MP2/aug-cc-pVDZ SP SCF=(YQC,MaxCycle=900) int=(Grid=Superfinegrid) 
 SCRF=(PCM,Solvent=Dichloromethane)
 ----------------------------------------------------------------------
 1/38=1,172=1/1;
 2/12=2,17=6,18=5,40=1/2;
 3/5=16,7=10,11=9,25=1,30=1,70=2201,72=9,75=-7/1,2,3;
 4//1;
 5/5=2,7=900,8=4,13=1,38=1,53=9/8,2,8;
 8/10=1/1;
 9/16=-3/6;
 6/7=2,8=2,9=2,10=2/1;
 99/5=1,9=1/99;
 Leave Link    1 at Thu Nov 11 13:37:58 2021, MaxMem=  7864320000 cpu:               7.4 elap:               0.2
 (Enter /apps/gaussian/g16-c01-avx/g16/l101.exe)
 -----------------
 _ami2_opt_dcm_mp2
 -----------------
 Symbolic Z-matrix:
 Charge =  0 Multiplicity = 1
 C                    -0.6438    0.7901    0.353 
 C                     0.8492    0.4308    0.5588 
 N                    -0.7009    2.222     0.0684 
 C                    -1.4329    0.4059    1.6141 
 C                    -1.2176    0.0498   -0.8576 
 N                     1.7344    0.8292   -0.516 
 H                    -0.3641    2.7508    0.8667 
 H                    -1.6573    2.5077   -0.1121 
 H                     1.5149    0.3076   -1.3581 
 H                     1.5718    1.8108   -0.7202 
 H                     0.946    -0.6476    0.7056 
 H                     1.2028    0.9282    1.4683 
 H                    -1.066    -1.0218   -0.7554 
 H                    -0.737     0.3934   -1.7702 
 H                    -2.285     0.2422   -0.9464 
 H                    -1.3688   -0.6643    1.7936 
 H                    -2.4826    0.6743    1.5016 
 H                    -1.0354    0.9245    2.4853 
 
 ITRead=  0  0  0  0  0  0  0  0  0  0  0  0  0  0  0  0  0  0
 MicOpt= -1 -1 -1 -1 -1 -1 -1 -1 -1 -1 -1 -1 -1 -1 -1 -1 -1 -1
 NAtoms=     18 NQM=       18 NQMF=       0 NMMI=      0 NMMIF=      0
                NMic=       0 NMicF=      0.
                    Isotopes and Nuclear Properties:
 (Nuclear quadrupole moments (NQMom) in fm**2, nuclear magnetic moments (NMagM)
  in nuclear magnetons)

  Atom         1           2           3           4           5           6           7           8           9          10
 IAtWgt=          12          12          14          12          12          14           1           1           1           1
 AtmWgt=  12.0000000  12.0000000  14.0030740  12.0000000  12.0000000  14.0030740   1.0078250   1.0078250   1.0078250   1.0078250
 NucSpn=           0           0           2           0           0           2           1           1           1           1
 AtZEff=  -0.0000000  -0.0000000  -0.0000000  -0.0000000  -0.0000000  -0.0000000  -0.0000000  -0.0000000  -0.0000000  -0.0000000
 NQMom=    0.0000000   0.0000000   2.0440000   0.0000000   0.0000000   2.0440000   0.0000000   0.0000000   0.0000000   0.0000000
 NMagM=    0.0000000   0.0000000   0.4037610   0.0000000   0.0000000   0.4037610   2.7928460   2.7928460   2.7928460   2.7928460
 AtZNuc=   6.0000000   6.0000000   7.0000000   6.0000000   6.0000000   7.0000000   1.0000000   1.0000000   1.0000000   1.0000000

  Atom        11          12          13          14          15          16          17          18
 IAtWgt=           1           1           1           1           1           1           1           1
 AtmWgt=   1.0078250   1.0078250   1.0078250   1.0078250   1.0078250   1.0078250   1.0078250   1.0078250
 NucSpn=           1           1           1           1           1           1           1           1
 AtZEff=  -0.0000000  -0.0000000  -0.0000000  -0.0000000  -0.0000000  -0.0000000  -0.0000000  -0.0000000
 NQMom=    0.0000000   0.0000000   0.0000000   0.0000000   0.0000000   0.0000000   0.0000000   0.0000000
 NMagM=    2.7928460   2.7928460   2.7928460   2.7928460   2.7928460   2.7928460   2.7928460   2.7928460
 AtZNuc=   1.0000000   1.0000000   1.0000000   1.0000000   1.0000000   1.0000000   1.0000000   1.0000000
 Leave Link  101 at Thu Nov 11 13:37:59 2021, MaxMem=  7864320000 cpu:               1.8 elap:               0.1
 (Enter /apps/gaussian/g16-c01-avx/g16/l202.exe)
                          Input orientation:                          
 ---------------------------------------------------------------------
 Center     Atomic      Atomic             Coordinates (Angstroms)
 Number     Number       Type             X           Y           Z
 ---------------------------------------------------------------------
      1          6           0       -0.643800    0.790100    0.353000
      2          6           0        0.849200    0.430800    0.558800
      3          7           0       -0.700900    2.222000    0.068400
      4          6           0       -1.432900    0.405900    1.614100
      5          6           0       -1.217600    0.049800   -0.857600
      6          7           0        1.734400    0.829200   -0.516000
      7          1           0       -0.364100    2.750800    0.866700
      8          1           0       -1.657300    2.507700   -0.112100
      9          1           0        1.514900    0.307600   -1.358100
     10          1           0        1.571800    1.810800   -0.720200
     11          1           0        0.946000   -0.647600    0.705600
     12          1           0        1.202800    0.928200    1.468300
     13          1           0       -1.066000   -1.021800   -0.755400
     14          1           0       -0.737000    0.393400   -1.770200
     15          1           0       -2.285000    0.242200   -0.946400
     16          1           0       -1.368800   -0.664300    1.793600
     17          1           0       -2.482600    0.674300    1.501600
     18          1           0       -1.035400    0.924500    2.485300
 ---------------------------------------------------------------------
                    Distance matrix (angstroms):
                    1          2          3          4          5
     1  C    0.000000
     2  C    1.549354   0.000000
     3  N    1.461025   2.419029   0.000000
     4  C    1.536444   2.514410   2.494641   0.000000
     5  C    1.530635   2.534366   2.417211   2.506484   0.000000
     6  N    2.532296   1.448274   2.865676   3.840351   3.072207
     7  H    2.046085   2.636152   1.015060   2.683188   3.316184
     8  H    2.047840   3.323577   1.014350   2.729045   2.605836
     9  H    2.796543   2.032939   3.257238   4.187262   2.789896
    10  H    2.665046   2.015538   2.440521   4.055974   3.301629
    11  H    2.172273   1.092642   3.369408   2.755794   2.758827
    12  H    2.161689   1.095276   2.694014   2.690905   3.469832
    13  H    2.165591   2.739555   3.366628   2.790604   1.087085
    14  H    2.161952   2.818097   2.593363   3.455129   1.087141
    15  H    2.163833   3.482012   2.731080   2.703522   1.088231
    16  H    2.171689   2.764688   3.428284   1.087041   2.749848
    17  H    2.171146   3.471175   2.761140   1.089296   2.748827
    18  H    2.172123   2.739865   2.763476   1.089009   3.460242
                    6          7          8          9         10
     6  N    0.000000
     7  H    3.163559   0.000000
     8  H    3.805802   1.639974   0.000000
     9  H    1.014583   3.801263   4.056576   0.000000
    10  H    1.015714   2.673866   3.358950   1.633941   0.000000
    11  H    2.072395   3.645742   4.171537   2.344123   2.910028
    12  H    2.056659   2.477694   3.629415   2.910513   2.388446
    13  H    3.365376   4.166099   3.636047   2.965063   3.870769
    14  H    2.805487   3.556632   2.840161   2.290904   2.905526
    15  H    4.084775   3.642837   2.494505   3.822697   4.169722
    16  H    4.146643   3.678515   3.711672   4.381042   4.592651
    17  H    4.677370   3.033643   2.578081   4.928728   4.760902
    18  H    4.085178   2.530984   3.104798   4.653635   4.225902
                   11         12         13         14         15
    11  H    0.000000
    12  H    1.769408   0.000000
    13  H    2.514496   3.727572   0.000000
    14  H    3.169504   3.812705   1.772245   0.000000
    15  H    3.736336   4.297222   1.766391   1.760060   0.000000
    16  H    2.557796   3.042204   2.591697   3.770752   3.027997
    17  H    3.759832   3.694286   3.158728   3.718965   2.493684
    18  H    3.092697   2.458423   3.780365   4.298882   3.715319
                   16         17         18
    16  H    0.000000
    17  H    1.765691   0.000000
    18  H    1.764622   1.767669   0.000000
 Stoichiometry    C4H12N2
 Framework group  C1[X(C4H12N2)]
 Deg. of freedom    48
 Full point group                 C1      NOp   1
 Largest Abelian subgroup         C1      NOp   1
 Largest concise Abelian subgroup C1      NOp   1
                         Standard orientation:                         
 ---------------------------------------------------------------------
 Center     Atomic      Atomic             Coordinates (Angstroms)
 Number     Number       Type             X           Y           Z
 ---------------------------------------------------------------------
      1          6           0       -0.408976    0.001366    0.015249
      2          6           0        0.873970   -0.609880   -0.601942
      3          7           0       -0.294162   -0.143998    1.464484
      4          6           0       -1.637475   -0.723087   -0.556258
      5          6           0       -0.502133    1.496602   -0.298492
      6          7           0        2.119960   -0.089189   -0.078601
      7          1           0       -0.269427   -1.127000    1.716361
      8          1           0       -1.095027    0.274511    1.925321
      9          1           0        2.220534    0.888640   -0.329830
     10          1           0        2.088331   -0.136640    0.935511
     11          1           0        0.863099   -0.459717   -1.684162
     12          1           0        0.870131   -1.688360   -0.410903
     13          1           0       -0.445035    1.664757   -1.370974
     14          1           0        0.306138    2.034026    0.191149
     15          1           0       -1.444417    1.900690    0.066283
     16          1           0       -1.690751   -0.592639   -1.634127
     17          1           0       -2.551241   -0.326500   -0.115446
     18          1           0       -1.585236   -1.789474   -0.341710
 ---------------------------------------------------------------------
 Rotational constants (GHZ):           4.5027143           2.6371561           2.5967010
 Leave Link  202 at Thu Nov 11 13:37:59 2021, MaxMem=  7864320000 cpu:               0.3 elap:               0.0
 (Enter /apps/gaussian/g16-c01-avx/g16/l301.exe)
 Standard basis: Aug-CC-pVDZ (5D, 7F)
 Ernie: Thresh=  0.10000D-02 Tol=  0.10000D-05 Strict=F.
 Ernie:  12 primitive shells out of 234 were deleted.
 There are   258 symmetry adapted cartesian basis functions of A   symmetry.
 There are   246 symmetry adapted basis functions of A   symmetry.
   246 basis functions,   390 primitive gaussians,   258 cartesian basis functions
    25 alpha electrons       25 beta electrons
       nuclear repulsion energy       270.6881123588 Hartrees.
 IExCor=    0 DFT=F Ex=HF Corr=None ExCW=0 ScaHFX=  1.000000
 ScaDFX=  1.000000  1.000000  1.000000  1.000000 ScalE2=  1.000000  1.000000
 IRadAn=      7 IRanWt=     -1 IRanGd=            0 ICorTp=0 IEmpDi=  4
 NAtoms=   18 NActive=   18 NUniq=   18 SFac= 1.00D+00 NAtFMM=   60 NAOKFM=F Big=F
 Integral buffers will be    131072 words long.
 Raffenetti 1 integral format.
 Two-electron integral symmetry is turned on.
 ------------------------------------------------------------------------------
 Polarizable Continuum Model (PCM)
 =================================
 Model                : PCM.
 Atomic radii         : UFF (Universal Force Field).
 Polarization charges : Total charges.
 Charge compensation  : None.
 Solution method      : On-the-fly selection.
 Cavity type          : Scaled VdW (van der Waals Surface) (Alpha=1.100).
 Cavity algorithm     : GePol (No added spheres)
                        Default sphere list used, NSphG=   18.
                        Lebedev-Laikov grids with approx.  5.0 points / Ang**2.
                        Smoothing algorithm: York/Karplus (Gamma=1.0000).
                        Polarization charges: spherical gaussians, with
                                              point-specific exponents (IZeta= 3).
                        Self-potential: point-specific (ISelfS= 7).
                        Self-field    : sphere-specific E.n sum rule (ISelfD= 2).
 Solvent              : Dichloromethane, Eps=   8.930000 Eps(inf)=   2.028346
 ------------------------------------------------------------------------------
 Spheres list:
 ISph  on   Nord     Re0    Alpha      Xe            Ye            Ze
    1   C      1    1.9255  1.100     -0.408976      0.001366      0.015249
    2   C      2    1.9255  1.100      0.873970     -0.609880     -0.601942
    3   N      3    1.8300  1.100     -0.294162     -0.143998      1.464484
    4   C      4    1.9255  1.100     -1.637475     -0.723087     -0.556258
    5   C      5    1.9255  1.100     -0.502133      1.496602     -0.298492
    6   N      6    1.8300  1.100      2.119960     -0.089189     -0.078601
    7   H      7    1.4430  1.100     -0.269427     -1.127000      1.716361
    8   H      8    1.4430  1.100     -1.095027      0.274511      1.925321
    9   H      9    1.4430  1.100      2.220534      0.888640     -0.329830
   10   H     10    1.4430  1.100      2.088331     -0.136640      0.935511
   11   H     11    1.4430  1.100      0.863099     -0.459717     -1.684162
   12   H     12    1.4430  1.100      0.870131     -1.688360     -0.410903
   13   H     13    1.4430  1.100     -0.445035      1.664757     -1.370974
   14   H     14    1.4430  1.100      0.306138      2.034026      0.191149
   15   H     15    1.4430  1.100     -1.444417      1.900690      0.066283
   16   H     16    1.4430  1.100     -1.690751     -0.592639     -1.634127
   17   H     17    1.4430  1.100     -2.551241     -0.326500     -0.115446
   18   H     18    1.4430  1.100     -1.585236     -1.789474     -0.341710
 ------------------------------------------------------------------------------
 GePol: Number of generator spheres                  =      18
 GePol: Total number of spheres                      =      18
 GePol: Number of exposed spheres                    =      18 (100.00%)
 GePol: Number of points                             =    1227
 GePol: Average weight of points                     =       0.14
 GePol: Minimum weight of points                     =   0.19D-10
 GePol: Maximum weight of points                     =    0.20440
 GePol: Number of points with low weight             =      79
 GePol: Fraction of low-weight points (<1% of avg)   =       6.44%
 GePol: Cavity surface area                          =    168.130 Ang**2
 GePol: Cavity volume                                =    163.347 Ang**3
 Leave Link  301 at Thu Nov 11 13:37:59 2021, MaxMem=  7864320000 cpu:               2.9 elap:               0.1
 (Enter /apps/gaussian/g16-c01-avx/g16/l302.exe)
 NPDir=0 NMtPBC=     1 NCelOv=     1 NCel=       1 NClECP=     1 NCelD=      1
         NCelK=      1 NCelE2=     1 NClLst=     1 CellRange=     0.0.
 One-electron integrals computed using PRISM.
 One-electron integral symmetry used in STVInt
 NBasis=   246 RedAO= T EigKep=  7.30D-06  NBF=   246
 NBsUse=   246 1.00D-06 EigRej= -1.00D+00 NBFU=   246
 Leave Link  302 at Thu Nov 11 13:38:00 2021, MaxMem=  7864320000 cpu:               5.4 elap:               0.2
 (Enter /apps/gaussian/g16-c01-avx/g16/l303.exe)
 DipDrv:  MaxL=1.
 Leave Link  303 at Thu Nov 11 13:38:01 2021, MaxMem=  7864320000 cpu:               0.8 elap:               0.0
 (Enter /apps/gaussian/g16-c01-avx/g16/l401.exe)
 ExpMin= 2.97D-02 ExpMax= 9.05D+03 ExpMxC= 3.09D+02 IAcc=3 IRadAn=         7 AccDes= 0.00D+00
 Harris functional with IExCor=  205 and IRadAn=       7 diagonalized for initial guess.
 HarFok:  IExCor=  205 AccDes= 0.00D+00 IRadAn=         7 IDoV= 1 UseB2=F ITyADJ=14
 ICtDFT=  3500011 ScaDFX=  1.000000  1.000000  1.000000  1.000000
 FoFCou: FMM=F IPFlag=           0 FMFlag=      100000 FMFlg1=           0
         NFxFlg=           0 DoJE=T BraDBF=F KetDBF=T FulRan=T
         wScrn=  0.000000 ICntrl=       500 IOpCl=  0 I1Cent=   200000004 NGrid=           0
         NMat0=    1 NMatS0=      1 NMatT0=    0 NMatD0=    1 NMtDS0=    0 NMtDT0=    0
 Petite list used in FoFCou.
 Harris En= -267.960871727655    
 JPrj=0 DoOrth=F DoCkMO=F.
 Leave Link  401 at Thu Nov 11 13:38:02 2021, MaxMem=  7864320000 cpu:              26.9 elap:               0.9
 (Enter /apps/gaussian/g16-c01-avx/g16/l508.exe)
 Integral symmetry usage will be decided dynamically.
 Tight linear equation convergence will be used.
 RHF wavefunction.
 Linear searches until partial convergence.
 Full line searches.
 Fock matrices will be formed incrementally for  20 cycles.
 Inv3:  Mode=1 IEnd=     4516587.
 Iteration    1 A*A^-1 deviation from unit magnitude is 5.11D-15 for   1213.
 Iteration    1 A*A^-1 deviation from orthogonality  is 4.32D-15 for   1214    722.
 Iteration    1 A^-1*A deviation from unit magnitude is 5.11D-15 for   1213.
 Iteration    1 A^-1*A deviation from orthogonality  is 3.29D-15 for   1197    712.
 FoFJK:  IHMeth= 1 ICntrl=       0 DoSepK=F KAlg= 0 I1Cent=           0 FoldK=F
 IRaf= 990000000 NMat=       1 IRICut=       1 DoRegI=T DoRafI=F ISym2E= 1 IDoP0=0 IntGTp=1.
 Iteration   1 EE= -267.029009261253                                    Grad=9.355D-01 Max rot=    2.8239 deg.
 Gradient too large for Newton-Raphson -- use scaled steepest descent instead.
 Alpha Gap=     0.398 HL deriv= 6.37D-03
     ILin= 1 X=0.000D+00 Y=-2.670290092613D+02 DE= 0.00D+00 F= -1.31D+00
 RMSU=  3.77D-03    CP:  8.43D-01
     ILin= 2 X=3.000D-01 Y=-2.673105382954D+02 DE=-2.82D-01 F= -5.68D-01 OKLS=F
 RMSU=  5.40D-04    CP:  7.55D-01  1.56D+00
     ILin= 3 X=5.000D-01 Y=-2.673742833995D+02 DE=-3.45D-01 F= -6.97D-02
 RMSU=  5.33D-04    CP:  6.45D-01  2.25D+00  3.00D+00
     ILin= 4 X=8.000D-01 Y=-2.672835578827D+02 DE=-2.55D-01 F=  6.72D-01
     An  expanding polynomial of degree  4 produced  0.5284
     Minimum is close to point  3 DX=  2.84D-02 DF= -1.00D-03 DXR=  5.37D-02 DFR=  2.90D-03 which will be used.
 Iteration   2 EE= -267.374283399472     Delta-E=       -0.345274138219 Grad=2.953D-01 Max rot=    1.4046 deg.
 Gradient too large for Newton-Raphson -- use scaled steepest descent instead.
 Alpha Gap=     0.511 HL deriv= 6.76D-03
     ILin= 1 X=0.000D+00 Y=-2.673742833995D+02 DE= 0.00D+00 F= -3.57D-02
 RMSU=  1.21D-03    CP:  6.86D-01  1.84D+00  1.30D+00  1.74D-02
     ILin= 2 X=4.000D-01 Y=-2.673858495358D+02 DE=-1.16D-02 F= -2.22D-02 OKLS=F
 RMSU=  2.32D-04    CP:  6.26D-01  2.08D+00  2.13D+00  3.50D-02  1.92D+00
     ILin= 3 X=8.000D-01 Y=-2.673920112202D+02 DE=-1.77D-02 F= -8.65D-03
 RMSU=  9.12D-04    CP:  5.34D-01  2.42D+00  3.00D+00  2.42D+00  3.00D+00
                    CP:  3.00D+00
     ILin= 4 X=1.600D+00 Y=-2.673881251250D+02 DE=-1.38D-02 F=  1.84D-02
     An  expanding polynomial of degree  4 produced  1.0561
 RMSU=  1.36D-07    CP:  5.93D-01  2.21D+00  2.92D+00  4.63D-02  2.46D+00
                    CP:  2.17D+00 -7.35D-07
 Iteration   3 EE= -267.393118693201     Delta-E=       -0.018835293729 Grad=3.670D-02 Max rot=    0.1121 deg.
 Gradient too large for Newton-Raphson -- use scaled steepest descent instead.
 Alpha Gap=     0.509 HL deriv= 8.07D-04
     ILin= 1 X=0.000D+00 Y=-2.673931186932D+02 DE= 0.00D+00 F= -1.89D-03
 RMSU=  3.99D-04    CP:  5.82D-01  2.25D+00  3.00D+00  2.17D-01  2.59D+00
                    CP:  2.27D+00 -3.10D-03  3.00D+00
     ILin= 2 X=7.000D-01 Y=-2.673937589008D+02 DE=-6.40D-04 F=  5.97D-05 OKLS=T
     Accept linear search using points  1 and  2.
     An  expanding polynomial of degree  2 produced  0.6346
 RMSU=  1.01D-06    CP:  5.83D-01  2.24D+00  3.00D+00  1.93D-01  2.58D+00
                    CP:  2.26D+00 -2.82D-03  3.00D+00  9.07D-01
 Iteration   4 EE= -267.393756848254     Delta-E=       -0.000638155053 Grad=1.216D-02 Max rot=    0.0426 deg.
 Gradient too large for Newton-Raphson -- use scaled steepest descent instead.
 Alpha Gap=     0.512 HL deriv= 1.12D-03
     ILin= 1 X=0.000D+00 Y=-2.673937568483D+02 DE= 0.00D+00 F= -2.15D-04
 RMSU=  1.06D-04    CP:  5.76D-01  2.27D+00  3.00D+00  3.35D-01  2.67D+00
                    CP:  2.44D+00 -3.36D-03  3.00D+00  1.33D+00 -9.60D-01
     ILin= 2 X=8.000D-01 Y=-2.673938559611D+02 DE=-9.91D-05 F= -3.25D-05 OKLS=T
     Reject lnstep IMin12=  1  2 Big=T Turn=F Min= 1.950D+00 FVal=-2.673938832484D+02 Lims=  0.00D+00  8.00D-01
 RMSU=  7.03D-06    CP:  5.70D-01  2.29D+00  3.00D+00  4.82D-01  2.76D+00
                    CP:  2.62D+00 -3.83D-03  3.00D+00  1.75D+00 -3.00D+00
                    CP:  2.00D+00
     ILin= 3 X=1.600D+00 Y=-2.673938088888D+02 DE=-5.20D-05 F=  1.50D-04
     An  expanding polynomial of degree  3 produced  0.9424
 RMSU=  2.86D-07    CP:  5.75D-01  2.27D+00  3.00D+00  3.61D-01  2.68D+00
                    CP:  2.47D+00 -3.45D-03  3.00D+00  1.40D+00 -1.98D+00
                    CP:  1.18D+00  1.93D-02
 Iteration   5 EE= -267.393858274728     Delta-E=       -0.000101426475 Grad=5.686D-03 Max rot=    0.0242 deg.
 SCF Done:  E(RHF) =  -267.393858275     a.u. after    5 cycles
            Convg  =    0.5686D-02                    13 Fock formations.
              S**2 =  0.0000                  -V/T =  2.0010
 Leave Link  508 at Thu Nov 11 13:38:16 2021, MaxMem=  7864320000 cpu:             417.3 elap:              13.6
 (Enter /apps/gaussian/g16-c01-avx/g16/l502.exe)
 Integral symmetry usage will be decided dynamically.
 Closed shell SCF:
 Using DIIS extrapolation, IDIIS=  1040.
 NGot=  7864320000 LenX=  7864175570 LenY=  7864108565
 Requested convergence on RMS density matrix=1.00D-08 within 128 cycles.
 Requested convergence on MAX density matrix=1.00D-06.
 Requested convergence on             energy=1.00D-06.
 No special actions if energy rises.
 Fock matrices will be formed incrementally for  20 cycles.

 Cycle   1  Pass 1  IDiag  1:
 FoFJK:  IHMeth= 1 ICntrl=       0 DoSepK=F KAlg= 0 I1Cent=           0 FoldK=F
 IRaf= 990000000 NMat=       1 IRICut=       1 DoRegI=T DoRafI=F ISym2E= 0 IDoP0=0 IntGTp=1.
 FoFCou: FMM=F IPFlag=           0 FMFlag=      100000 FMFlg1=           0
         NFxFlg=           0 DoJE=F BraDBF=F KetDBF=F FulRan=T
         wScrn=  0.000000 ICntrl=         0 IOpCl=  0 I1Cent=           0 NGrid=           0
         NMat0=    1 NMatS0=      1 NMatT0=    0 NMatD0=    1 NMtDS0=    0 NMtDT0=    0
 Symmetry not used in FoFCou.
 E= -267.393858274729    
 DIIS: error= 1.32D-04 at cycle   1 NSaved=   1.
 NSaved= 1 IEnMin= 1 EnMin= -267.393858274729     IErMin= 1 ErrMin= 1.32D-04
 ErrMax= 1.32D-04  0.00D+00 EMaxC= 1.00D-01 BMatC= 1.62D-05 BMatP= 1.62D-05
 IDIUse=3 WtCom= 9.99D-01 WtEn= 1.32D-03
 Coeff-Com:  0.100D+01
 Coeff-En:   0.100D+01
 Coeff:      0.100D+01
 Gap=     0.511 Goal=   None    Shift=    0.000
 RMSDP=1.74D-04 MaxDP=1.65D-02              OVMax= 1.34D-03

 Cycle   2  Pass 1  IDiag  1:
 RMSU=  1.70D-04    CP:  9.98D-01
 E= -267.393875260846     Delta-E=       -0.000016986117 Rises=F Damp=F
 DIIS: error= 7.85D-05 at cycle   2 NSaved=   2.
 NSaved= 2 IEnMin= 2 EnMin= -267.393875260846     IErMin= 2 ErrMin= 7.85D-05
 ErrMax= 7.85D-05  0.00D+00 EMaxC= 1.00D-01 BMatC= 4.27D-06 BMatP= 1.62D-05
 IDIUse=1 WtCom= 1.00D+00 WtEn= 0.00D+00
 Coeff-Com:  0.309D+00 0.691D+00
 Coeff:      0.309D+00 0.691D+00
 Gap=     0.417 Goal=   None    Shift=    0.000
 RMSDP=2.87D-05 MaxDP=2.60D-03 DE=-1.70D-05 OVMax= 4.32D-04

 Cycle   3  Pass 1  IDiag  1:
 RMSU=  1.95D-05    CP:  9.98D-01  1.11D+00
 E= -267.393879314726     Delta-E=       -0.000004053880 Rises=F Damp=F
 DIIS: error= 1.97D-05 at cycle   3 NSaved=   3.
 NSaved= 3 IEnMin= 3 EnMin= -267.393879314726     IErMin= 3 ErrMin= 1.97D-05
 ErrMax= 1.97D-05  0.00D+00 EMaxC= 1.00D-01 BMatC= 1.64D-07 BMatP= 4.27D-06
 IDIUse=1 WtCom= 1.00D+00 WtEn= 0.00D+00
 Coeff-Com: -0.140D+00-0.117D+00 0.126D+01
 Coeff:     -0.140D+00-0.117D+00 0.126D+01
 Gap=     0.417 Goal=   None    Shift=    0.000
 RMSDP=2.72D-05 MaxDP=2.32D-03 DE=-4.05D-06 OVMax= 3.23D-04

 Cycle   4  Pass 1  IDiag  1:
 RMSU=  6.78D-06    CP:  9.98D-01  1.26D+00  1.36D+00
 E= -267.393879732126     Delta-E=       -0.000000417401 Rises=F Damp=F
 DIIS: error= 3.34D-06 at cycle   4 NSaved=   4.
 NSaved= 4 IEnMin= 4 EnMin= -267.393879732126     IErMin= 4 ErrMin= 3.34D-06
 ErrMax= 3.34D-06  0.00D+00 EMaxC= 1.00D-01 BMatC= 4.68D-09 BMatP= 1.64D-07
 IDIUse=1 WtCom= 1.00D+00 WtEn= 0.00D+00
 Coeff-Com: -0.138D-01-0.246D-01 0.411D-01 0.997D+00
 Coeff:     -0.138D-01-0.246D-01 0.411D-01 0.997D+00
 Gap=     0.417 Goal=   None    Shift=    0.000
 RMSDP=1.89D-06 MaxDP=7.75D-05 DE=-4.17D-07 OVMax= 6.03D-05

 Cycle   5  Pass 1  IDiag  1:
 RMSU=  1.11D-06    CP:  9.98D-01  1.26D+00  1.41D+00  1.15D+00
 E= -267.393879743643     Delta-E=       -0.000000011517 Rises=F Damp=F
 DIIS: error= 8.99D-07 at cycle   5 NSaved=   5.
 NSaved= 5 IEnMin= 5 EnMin= -267.393879743643     IErMin= 5 ErrMin= 8.99D-07
 ErrMax= 8.99D-07  0.00D+00 EMaxC= 1.00D-01 BMatC= 5.75D-10 BMatP= 4.68D-09
 IDIUse=1 WtCom= 1.00D+00 WtEn= 0.00D+00
 Coeff-Com:  0.128D-01 0.105D-01-0.116D+00 0.666D-01 0.103D+01
 Coeff:      0.128D-01 0.105D-01-0.116D+00 0.666D-01 0.103D+01
 Gap=     0.417 Goal=   None    Shift=    0.000
 RMSDP=6.40D-07 MaxDP=1.49D-05 DE=-1.15D-08 OVMax= 2.41D-05

 Cycle   6  Pass 1  IDiag  1:
 RMSU=  3.32D-07    CP:  9.98D-01  1.26D+00  1.41D+00  1.18D+00  1.29D+00
 E= -267.393879745178     Delta-E=       -0.000000001535 Rises=F Damp=F
 DIIS: error= 4.19D-07 at cycle   6 NSaved=   6.
 NSaved= 6 IEnMin= 6 EnMin= -267.393879745178     IErMin= 6 ErrMin= 4.19D-07
 ErrMax= 4.19D-07  0.00D+00 EMaxC= 1.00D-01 BMatC= 4.54D-11 BMatP= 5.75D-10
 IDIUse=1 WtCom= 1.00D+00 WtEn= 0.00D+00
 Coeff-Com:  0.328D-03 0.132D-02 0.276D-02-0.711D-01-0.830D-01 0.115D+01
 Coeff:      0.328D-03 0.132D-02 0.276D-02-0.711D-01-0.830D-01 0.115D+01
 Gap=     0.417 Goal=   None    Shift=    0.000
 RMSDP=1.99D-07 MaxDP=6.94D-06 DE=-1.53D-09 OVMax= 9.25D-06

 Cycle   7  Pass 1  IDiag  1:
 RMSU=  7.68D-08    CP:  9.98D-01  1.26D+00  1.41D+00  1.18D+00  1.41D+00
                    CP:  1.32D+00
 E= -267.393879745342     Delta-E=       -0.000000000165 Rises=F Damp=F
 DIIS: error= 1.06D-07 at cycle   7 NSaved=   7.
 NSaved= 7 IEnMin= 7 EnMin= -267.393879745342     IErMin= 7 ErrMin= 1.06D-07
 ErrMax= 1.06D-07  0.00D+00 EMaxC= 1.00D-01 BMatC= 4.91D-12 BMatP= 4.54D-11
 IDIUse=1 WtCom= 1.00D+00 WtEn= 0.00D+00
 Coeff-Com: -0.125D-02-0.107D-02 0.114D-01-0.469D-02-0.110D+00 0.312D-02
 Coeff-Com:  0.110D+01
 Coeff:     -0.125D-02-0.107D-02 0.114D-01-0.469D-02-0.110D+00 0.312D-02
 Coeff:      0.110D+01
 Gap=     0.417 Goal=   None    Shift=    0.000
 RMSDP=4.76D-08 MaxDP=2.17D-06 DE=-1.65D-10 OVMax= 3.01D-06

 Cycle   8  Pass 1  IDiag  1:
 RMSU=  2.96D-08    CP:  9.98D-01  1.26D+00  1.41D+00  1.17D+00  1.42D+00
                    CP:  1.38D+00  1.28D+00
 E= -267.393879745359     Delta-E=       -0.000000000017 Rises=F Damp=F
 DIIS: error= 3.08D-08 at cycle   8 NSaved=   8.
 NSaved= 8 IEnMin= 8 EnMin= -267.393879745359     IErMin= 8 ErrMin= 3.08D-08
 ErrMax= 3.08D-08  0.00D+00 EMaxC= 1.00D-01 BMatC= 4.75D-13 BMatP= 4.91D-12
 IDIUse=1 WtCom= 1.00D+00 WtEn= 0.00D+00
 Coeff-Com: -0.228D-03-0.298D-03 0.170D-02 0.597D-02-0.956D-02-0.103D+00
 Coeff-Com:  0.175D+00 0.930D+00
 Coeff:     -0.228D-03-0.298D-03 0.170D-02 0.597D-02-0.956D-02-0.103D+00
 Coeff:      0.175D+00 0.930D+00
 Gap=     0.417 Goal=   None    Shift=    0.000
 RMSDP=1.40D-08 MaxDP=6.16D-07 DE=-1.71D-11 OVMax= 6.41D-07

 Cycle   9  Pass 1  IDiag  1:
 RMSU=  6.60D-09    CP:  9.98D-01  1.26D+00  1.41D+00  1.18D+00  1.41D+00
                    CP:  1.38D+00  1.35D+00  1.27D+00
 E= -267.393879745363     Delta-E=       -0.000000000003 Rises=F Damp=F
 DIIS: error= 6.31D-09 at cycle   9 NSaved=   9.
 NSaved= 9 IEnMin= 9 EnMin= -267.393879745363     IErMin= 9 ErrMin= 6.31D-09
 ErrMax= 6.31D-09  0.00D+00 EMaxC= 1.00D-01 BMatC= 2.90D-14 BMatP= 4.75D-13
 IDIUse=1 WtCom= 1.00D+00 WtEn= 0.00D+00
 Coeff-Com:  0.118D-03 0.926D-04-0.109D-02 0.435D-03 0.105D-01-0.376D-02
 Coeff-Com: -0.963D-01 0.651D-02 0.108D+01
 Coeff:      0.118D-03 0.926D-04-0.109D-02 0.435D-03 0.105D-01-0.376D-02
 Coeff:     -0.963D-01 0.651D-02 0.108D+01
 Gap=     0.417 Goal=   None    Shift=    0.000
 RMSDP=6.28D-09 MaxDP=2.72D-07 DE=-3.24D-12 OVMax= 1.75D-07

 Error on total polarization charges =  0.01247
 SCF Done:  E(RHF) =  -267.393879745     A.U. after    9 cycles
            NFock=  9  Conv=0.63D-08     -V/T= 2.0010
 KE= 2.671192364412D+02 PE=-1.165251629504D+03 EE= 3.600504009589D+02
 Leave Link  502 at Thu Nov 11 13:38:26 2021, MaxMem=  7864320000 cpu:             278.0 elap:               9.0
 (Enter /apps/gaussian/g16-c01-avx/g16/l508.exe)
 QCSCF skips out because SCF is already converged.
 Leave Link  508 at Thu Nov 11 13:38:26 2021, MaxMem=  7864320000 cpu:               0.1 elap:               0.0
 (Enter /apps/gaussian/g16-c01-avx/g16/l801.exe)
 ExpMin= 2.97D-02 ExpMax= 9.05D+03 ExpMxC= 3.09D+02 IAcc=3 IRadAn=         7 AccDes= 0.00D+00
 HarFok:  IExCor=  205 AccDes= 0.00D+00 IRadAn=         7 IDoV=-2 UseB2=F ITyADJ=14
 ICtDFT= 12500011 ScaDFX=  1.000000  1.000000  1.000000  1.000000
 Largest valence mixing into a core orbital is  1.09D-04
 Largest core mixing into a valence orbital is  3.71D-05
 Range of M.O.s used for correlation:     7   246
 NBasis=   246 NAE=    25 NBE=    25 NFC=     6 NFV=     0
 NROrb=    240 NOA=    19 NOB=    19 NVA=   221 NVB=   221

 **** Warning!!: The largest alpha MO coefficient is  0.10234204D+03

 Leave Link  801 at Thu Nov 11 13:38:26 2021, MaxMem=  7864320000 cpu:               6.0 elap:               0.2
 (Enter /apps/gaussian/g16-c01-avx/g16/l906.exe)
 FulOut=F Deriv=F AODrv=F NAtomX=    18
   MMem=         222  MDisk=          19 MDiskD=          19
  W3Min=     1083342 MinDsk=     1543902 NBas6D=         258
 NBas2D=       33717    NTT=       33411    LW2=     2000000
    MDV=  7863812613 MDiskM=      423224 NBas2p=       33675
 Fully in-core method, ICMem=  1147007175.
 IMap=   1   2   3   4   5   6   7   8   9  10  11  12  13  14  15  16  17  18  19
 JobTyp=1 Pass  1 fully in-core, NPsUse= 32.
 Compute canonical integrals.
 FoFCou: FMM=F IPFlag=           0 FMFlag=           0 FMFlg1=           0
         NFxFlg=           0 DoJE=F BraDBF=F KetDBF=F FulRan=T
         wScrn=  0.000000 ICntrl=       600 IOpCl=  1 I1Cent=           0 NGrid=           0
         NMat0=    1 NMatS0=  33717 NMatT0=    0 NMatD0=    1 NMtDS0=    0 NMtDT0=    0
 Symmetry not used in FoFCou.
 Spin components of T(2) and E(2):
     alpha-alpha T2 =       0.4046047356D-01 E2=     -0.1176897096D+00
     alpha-beta  T2 =       0.2389373648D+00 E2=     -0.7394050994D+00
     beta-beta   T2 =       0.4046047356D-01 E2=     -0.1176897096D+00
 The integrals were generated   1 times.
 ANorm=    0.1148850866D+01
 E2 =    -0.9747845185D+00 EUMP2 =    -0.26836866426382D+03
 Leave Link  906 at Thu Nov 11 13:38:34 2021, MaxMem=  7864320000 cpu:             235.0 elap:               7.5
 (Enter /apps/gaussian/g16-c01-avx/g16/l601.exe)
 Copying SCF densities to generalized density rwf, IOpCl= 0 IROHF=0.

 **********************************************************************

            Population analysis using the SCF Density.

 **********************************************************************

 Orbital symmetries:
       Occupied  (A) (A) (A) (A) (A) (A) (A) (A) (A) (A) (A) (A)
                 (A) (A) (A) (A) (A) (A) (A) (A) (A) (A) (A) (A)
                 (A)
       Virtual   (A) (A) (A) (A) (A) (A) (A) (A) (A) (A) (A) (A)
                 (A) (A) (A) (A) (A) (A) (A) (A) (A) (A) (A) (A)
                 (A) (A) (A) (A) (A) (A) (A) (A) (A) (A) (A) (A)
                 (A) (A) (A) (A) (A) (A) (A) (A) (A) (A) (A) (A)
                 (A) (A) (A) (A) (A) (A) (A) (A) (A) (A) (A) (A)
                 (A) (A) (A) (A) (A) (A) (A) (A) (A) (A) (A) (A)
                 (A) (A) (A) (A) (A) (A) (A) (A) (A) (A) (A) (A)
                 (A) (A) (A) (A) (A) (A) (A) (A) (A) (A) (A) (A)
                 (A) (A) (A) (A) (A) (A) (A) (A) (A) (A) (A) (A)
                 (A) (A) (A) (A) (A) (A) (A) (A) (A) (A) (A) (A)
                 (A) (A) (A) (A) (A) (A) (A) (A) (A) (A) (A) (A)
                 (A) (A) (A) (A) (A) (A) (A) (A) (A) (A) (A) (A)
                 (A) (A) (A) (A) (A) (A) (A) (A) (A) (A) (A) (A)
                 (A) (A) (A) (A) (A) (A) (A) (A) (A) (A) (A) (A)
                 (A) (A) (A) (A) (A) (A) (A) (A) (A) (A) (A) (A)
                 (A) (A) (A) (A) (A) (A) (A) (A) (A) (A) (A) (A)
                 (A) (A) (A) (A) (A) (A) (A) (A) (A) (A) (A) (A)
                 (A) (A) (A) (A) (A) (A) (A) (A) (A) (A) (A) (A)
                 (A) (A) (A) (A) (A)
 The electronic state is 1-A.
 Alpha  occ. eigenvalues --  -15.54458 -15.54104 -11.25895 -11.24599 -11.21368
 Alpha  occ. eigenvalues --  -11.21359  -1.21103  -1.15828  -1.02146  -0.93603
 Alpha  occ. eigenvalues --   -0.89473  -0.75564  -0.67887  -0.65710  -0.61652
 Alpha  occ. eigenvalues --   -0.60290  -0.58367  -0.54348  -0.53063  -0.51332
 Alpha  occ. eigenvalues --   -0.50449  -0.49938  -0.46821  -0.39102  -0.37907
 Alpha virt. eigenvalues --    0.03782   0.04745   0.04910   0.05026   0.06851
 Alpha virt. eigenvalues --    0.06942   0.07168   0.07253   0.07519   0.09502
 Alpha virt. eigenvalues --    0.09817   0.10083   0.12798   0.14198   0.14527
 Alpha virt. eigenvalues --    0.14988   0.15561   0.16779   0.17310   0.17686
 Alpha virt. eigenvalues --    0.18839   0.19240   0.19679   0.20274   0.20898
 Alpha virt. eigenvalues --    0.21174   0.21865   0.22389   0.23228   0.24015
 Alpha virt. eigenvalues --    0.25034   0.25327   0.26662   0.27175   0.30029
 Alpha virt. eigenvalues --    0.32032   0.32499   0.33321   0.33706   0.35123
 Alpha virt. eigenvalues --    0.36426   0.37611   0.39354   0.40057   0.40324
 Alpha virt. eigenvalues --    0.40995   0.41602   0.43467   0.44312   0.44546
 Alpha virt. eigenvalues --    0.45395   0.46609   0.47310   0.47637   0.48776
 Alpha virt. eigenvalues --    0.49198   0.49373   0.50100   0.51157   0.51821
 Alpha virt. eigenvalues --    0.52601   0.53611   0.54720   0.55844   0.57462
 Alpha virt. eigenvalues --    0.57867   0.59044   0.59169   0.60334   0.60639
 Alpha virt. eigenvalues --    0.61267   0.61678   0.62289   0.63320   0.63944
 Alpha virt. eigenvalues --    0.65538   0.65884   0.67084   0.68054   0.68585
 Alpha virt. eigenvalues --    0.69300   0.70770   0.71370   0.72545   0.73422
 Alpha virt. eigenvalues --    0.73603   0.76036   0.76644   0.77027   0.78776
 Alpha virt. eigenvalues --    0.79054   0.80291   0.81857   0.83417   0.83739
 Alpha virt. eigenvalues --    0.84877   0.86760   0.87492   0.88053   0.89246
 Alpha virt. eigenvalues --    0.90302   0.91784   0.93122   0.93522   0.97248
 Alpha virt. eigenvalues --    0.97499   0.98278   0.99382   1.00184   1.01422
 Alpha virt. eigenvalues --    1.03759   1.04917   1.06709   1.08179   1.11579
 Alpha virt. eigenvalues --    1.12377   1.13719   1.16202   1.16860   1.18667
 Alpha virt. eigenvalues --    1.20541   1.21458   1.23198   1.27518   1.28854
 Alpha virt. eigenvalues --    1.32105   1.34409   1.35559   1.37617   1.40277
 Alpha virt. eigenvalues --    1.42978   1.44052   1.52662   1.54128   1.54567
 Alpha virt. eigenvalues --    1.60250   1.61458   1.63611   1.64886   1.71622
 Alpha virt. eigenvalues --    1.73126   1.75530   1.77896   1.79040   1.82335
 Alpha virt. eigenvalues --    1.84017   1.87386   1.88661   1.90594   1.92451
 Alpha virt. eigenvalues --    1.93635   1.95860   1.96383   1.96945   1.98476
 Alpha virt. eigenvalues --    2.03951   2.06465   2.09164   2.11368   2.12889
 Alpha virt. eigenvalues --    2.14309   2.16990   2.17541   2.20125   2.20218
 Alpha virt. eigenvalues --    2.22863   2.24916   2.27013   2.28925   2.30912
 Alpha virt. eigenvalues --    2.33965   2.35090   2.36696   2.39362   2.40319
 Alpha virt. eigenvalues --    2.42942   2.44656   2.47148   2.48208   2.48961
 Alpha virt. eigenvalues --    2.49918   2.51687   2.54508   2.56187   2.59032
 Alpha virt. eigenvalues --    2.59481   2.61155   2.63934   2.64314   2.66285
 Alpha virt. eigenvalues --    2.70974   2.71216   2.74137   2.75444   2.77885
 Alpha virt. eigenvalues --    2.80148   2.81635   2.82968   2.87372   2.89737
 Alpha virt. eigenvalues --    2.93083   2.95880   2.98027   3.01268   3.03227
 Alpha virt. eigenvalues --    3.05297   3.06775   3.09711   3.12348   3.15237
 Alpha virt. eigenvalues --    3.22145   3.26016   3.30041   3.35568   3.41296
 Alpha virt. eigenvalues --    3.46226   3.54113   3.66414   3.75824   3.77632
 Alpha virt. eigenvalues --    3.93363
          Condensed to atoms (all electrons):
               1          2          3          4          5          6
     1  C   11.045256  -0.653748  -1.560641  -0.122652  -0.322010   0.186375
     2  C   -0.653748   4.660945   0.267546  -0.054555   0.020198  -0.078915
     3  N   -1.560641   0.267546   7.715033   0.039064   0.272955  -0.016315
     4  C   -0.122652  -0.054555   0.039064   4.366834  -0.186324  -0.048586
     5  C   -0.322010   0.020198   0.272955  -0.186324   4.391448  -0.001633
     6  N    0.186375  -0.078915  -0.016315  -0.048586  -0.001633   7.181362
     7  H    0.148941  -0.041495   0.268346  -0.023903  -0.041094  -0.008050
     8  H    0.088859  -0.029813   0.242078   0.011456  -0.031073   0.006042
     9  H    0.061974  -0.019204  -0.026324  -0.000170  -0.006498   0.298333
    10  H   -0.081833  -0.021807   0.026777   0.009872  -0.001924   0.347006
    11  H   -0.011931   0.192239   0.012949  -0.015425  -0.011513  -0.097068
    12  H    0.211651   0.189898  -0.058381  -0.047028   0.001617  -0.182235
    13  H   -0.180700  -0.031138   0.066677  -0.001116   0.255982   0.004209
    14  H    0.141969   0.052667  -0.050136  -0.039151   0.246898  -0.012879
    15  H    0.203382  -0.044754  -0.023549   0.017886   0.166007   0.000650
    16  H    0.045127  -0.021297  -0.026066   0.239701  -0.038057   0.005956
    17  H    0.134875  -0.001044  -0.022700   0.174246   0.029293  -0.008350
    18  H    0.028921   0.007884   0.022292   0.265460  -0.017428   0.004494
               7          8          9         10         11         12
     1  C    0.148941   0.088859   0.061974  -0.081833  -0.011931   0.211651
     2  C   -0.041495  -0.029813  -0.019204  -0.021807   0.192239   0.189898
     3  N    0.268346   0.242078  -0.026324   0.026777   0.012949  -0.058381
     4  C   -0.023903   0.011456  -0.000170   0.009872  -0.015425  -0.047028
     5  C   -0.041094  -0.031073  -0.006498  -0.001924  -0.011513   0.001617
     6  N   -0.008050   0.006042   0.298333   0.347006  -0.097068  -0.182235
     7  H    0.817657  -0.117815   0.000172  -0.006904   0.014078  -0.006554
     8  H   -0.117815   0.886212  -0.000075   0.001908  -0.006722   0.002790
     9  H    0.000172  -0.000075   0.768253  -0.085420  -0.081146   0.053283
    10  H   -0.006904   0.001908  -0.085420   0.734384   0.057809  -0.058415
    11  H    0.014078  -0.006722  -0.081146   0.057809   1.501582  -0.391035
    12  H   -0.006554   0.002790   0.053283  -0.058415  -0.391035   1.366053
    13  H   -0.009240   0.015093  -0.007941   0.006955  -0.025927   0.006640
    14  H    0.005218  -0.021197   0.016318  -0.014901  -0.010734   0.012707
    15  H    0.001389  -0.008661  -0.000505  -0.000366   0.013511  -0.008624
    16  H    0.003562   0.001768   0.003696  -0.001882  -0.017849  -0.012873
    17  H   -0.011732   0.004127  -0.000308  -0.000871  -0.001600   0.009201
    18  H    0.000104  -0.008103  -0.000269   0.002836   0.000170  -0.007260
              13         14         15         16         17         18
     1  C   -0.180700   0.141969   0.203382   0.045127   0.134875   0.028921
     2  C   -0.031138   0.052667  -0.044754  -0.021297  -0.001044   0.007884
     3  N    0.066677  -0.050136  -0.023549  -0.026066  -0.022700   0.022292
     4  C   -0.001116  -0.039151   0.017886   0.239701   0.174246   0.265460
     5  C    0.255982   0.246898   0.166007  -0.038057   0.029293  -0.017428
     6  N    0.004209  -0.012879   0.000650   0.005956  -0.008350   0.004494
     7  H   -0.009240   0.005218   0.001389   0.003562  -0.011732   0.000104
     8  H    0.015093  -0.021197  -0.008661   0.001768   0.004127  -0.008103
     9  H   -0.007941   0.016318  -0.000505   0.003696  -0.000308  -0.000269
    10  H    0.006955  -0.014901  -0.000366  -0.001882  -0.000871   0.002836
    11  H   -0.025927  -0.010734   0.013511  -0.017849  -0.001600   0.000170
    12  H    0.006640   0.012707  -0.008624  -0.012873   0.009201  -0.007260
    13  H    1.341166  -0.203788  -0.237228  -0.019393  -0.012338   0.006815
    14  H   -0.203788   1.199187  -0.324210   0.002981   0.013334  -0.012301
    15  H   -0.237228  -0.324210   1.299144  -0.019630  -0.005527   0.014841
    16  H   -0.019393   0.002981  -0.019630   1.194554  -0.171216  -0.187447
    17  H   -0.012338   0.013334  -0.005527  -0.171216   1.202808  -0.311550
    18  H    0.006815  -0.012301   0.014841  -0.187447  -0.311550   1.248149
 Mulliken charges:
               1
     1  C   -3.363815
     2  C    1.606396
     3  N   -0.149607
     4  C    1.414390
     5  C    1.273158
     6  N   -0.580397
     7  H    0.007324
     8  H   -0.036874
     9  H    0.025829
    10  H    0.086776
    11  H   -0.121388
    12  H   -0.081434
    13  H    0.025272
    14  H   -0.001983
    15  H   -0.043757
    16  H    0.018367
    17  H   -0.020648
    18  H   -0.057610
 Sum of Mulliken charges =   0.00000
 Mulliken charges with hydrogens summed into heavy atoms:
               1
     1  C   -3.363815
     2  C    1.403574
     3  N   -0.179157
     4  C    1.354499
     5  C    1.252690
     6  N   -0.467792
 Electronic spatial extent (au):  <R**2>=            646.0860
 Charge=              0.0000 electrons
 Dipole moment (field-independent basis, Debye):
    X=             -2.7474    Y=              0.2837    Z=              0.2216  Tot=              2.7709
 Quadrupole moment (field-independent basis, Debye-Ang):
   XX=            -46.4574   YY=            -38.6684   ZZ=            -39.5380
   XY=              2.4206   XZ=             -0.6492   YZ=             -2.1908
 Traceless Quadrupole moment (field-independent basis, Debye-Ang):
   XX=             -4.9028   YY=              2.8862   ZZ=              2.0166
   XY=              2.4206   XZ=             -0.6492   YZ=             -2.1908
 Octapole moment (field-independent basis, Debye-Ang**2):
  XXX=            -21.9435  YYY=             -3.4178  ZZZ=              1.4897  XYY=              2.3212
  XXY=             11.0816  XXZ=              9.9162  XZZ=             -2.5471  YZZ=             -1.9876
  YYZ=              4.0956  XYZ=             -2.5253
 Hexadecapole moment (field-independent basis, Debye-Ang**3):
 XXXX=           -515.9229 YYYY=           -229.0283 ZZZZ=           -198.1862 XXXY=             21.0792
 XXXZ=              8.4225 YYYX=              5.2507 YYYZ=             -5.4955 ZZZX=            -10.1188
 ZZZY=             -8.5931 XXYY=           -110.3140 XXZZ=           -101.3334 YYZZ=            -69.9399
 XXYZ=             -2.7109 YYXZ=             -2.3957 ZZXY=             -1.2348
 N-N= 2.706881123588D+02 E-N=-1.165251629314D+03  KE= 2.671192364412D+02
 Leave Link  601 at Thu Nov 11 13:38:35 2021, MaxMem=  7864320000 cpu:               1.9 elap:               0.1
 (Enter /apps/gaussian/g16-c01-avx/g16/l9999.exe)
 Unable to Open any file for archive entry.
 1\1\GINC-CX3-7-5\SP\RMP2-FC\Aug-CC-pVDZ\C4H12N2\ATARZIA\11-Nov-2021\0\
 \#P MP2/aug-cc-pVDZ SP SCF=(YQC,MaxCycle=900) int=(Grid=Superfinegrid)
  SCRF=(PCM,Solvent=Dichloromethane)\\_ami2_opt_dcm_mp2\\0,1\C,0,-0.643
 8,0.7901,0.353\C,0,0.8492,0.4308,0.5588\N,0,-0.7009,2.222,0.0684\C,0,-
 1.4329,0.4059,1.6141\C,0,-1.2176,0.0498,-0.8576\N,0,1.7344,0.8292,-0.5
 16\H,0,-0.3641,2.7508,0.8667\H,0,-1.6573,2.5077,-0.1121\H,0,1.5149,0.3
 076,-1.3581\H,0,1.5718,1.8108,-0.7202\H,0,0.946,-0.6476,0.7056\H,0,1.2
 028,0.9282,1.4683\H,0,-1.066,-1.0218,-0.7554\H,0,-0.737,0.3934,-1.7702
 \H,0,-2.285,0.2422,-0.9464\H,0,-1.3688,-0.6643,1.7936\H,0,-2.4826,0.67
 43,1.5016\H,0,-1.0354,0.9245,2.4853\\Version=ES64L-G16RevC.01\State=1-
 A\HF=-267.3938797\MP2=-268.3686643\RMSD=6.275e-09\PG=C01 [X(C4H12N2)]\
 \@
 The archive entry for this job was punched.


 ONE OF THE BENEFITS OF A COLLEGE EDUCATION
 IS TO SHOW THE BOY ITS LITTLE AVAIL 
                                    EMERSON IN 'CULTURE'
 Job cpu time:       0 days  0 hours 16 minutes 24.7 seconds.
 Elapsed time:       0 days  0 hours  0 minutes 32.0 seconds.
 File lengths (MBytes):  RWF=    176 Int=      0 D2E=      0 Chk=     16 Scr=     16
 Normal termination of Gaussian 16 at Thu Nov 11 13:38:35 2021.
