 Entering Gaussian System, Link 0=g16
 Initial command:
 /apps/gaussian/g16-c01-avx/g16/l1.exe "/rds/general/ephemeral/user/atarzia/ephemeral/xtb_spe_DFT/Gau-2190925.inp" -scrdir="/rds/general/ephemeral/user/atarzia/ephemeral/xtb_spe_DFT/"
 Entering Link 1 = /apps/gaussian/g16-c01-avx/g16/l1.exe PID=   2190926.
  
 Copyright (c) 1988-2019, Gaussian, Inc.  All Rights Reserved.
  
 This is part of the Gaussian(R) 16 program.  It is based on
 the Gaussian(R) 09 system (copyright 2009, Gaussian, Inc.),
 the Gaussian(R) 03 system (copyright 2003, Gaussian, Inc.),
 the Gaussian(R) 98 system (copyright 1998, Gaussian, Inc.),
 the Gaussian(R) 94 system (copyright 1995, Gaussian, Inc.),
 the Gaussian 92(TM) system (copyright 1992, Gaussian, Inc.),
 the Gaussian 90(TM) system (copyright 1990, Gaussian, Inc.),
 the Gaussian 88(TM) system (copyright 1988, Gaussian, Inc.),
 the Gaussian 86(TM) system (copyright 1986, Carnegie Mellon
 University), and the Gaussian 82(TM) system (copyright 1983,
 Carnegie Mellon University). Gaussian is a federally registered
 trademark of Gaussian, Inc.
  
 This software contains proprietary and confidential information,
 including trade secrets, belonging to Gaussian, Inc.
  
 This software is provided under written license and may be
 used, copied, transmitted, or stored only in accord with that
 written license.
  
 The following legend is applicable only to US Government
 contracts under FAR:
  
                    RESTRICTED RIGHTS LEGEND
  
 Use, reproduction and disclosure by the US Government is
 subject to restrictions as set forth in subparagraphs (a)
 and (c) of the Commercial Computer Software - Restricted
 Rights clause in FAR 52.227-19.
  
 Gaussian, Inc.
 340 Quinnipiac St., Bldg. 40, Wallingford CT 06492
  
  
 ---------------------------------------------------------------
 Warning -- This program may not be used in any manner that
 competes with the business of Gaussian, Inc. or will provide
 assistance to any competitor of Gaussian, Inc.  The licensee
 of this program is prohibited from giving any competitor of
 Gaussian, Inc. access to this program.  By using this program,
 the user acknowledges that Gaussian, Inc. is engaged in the
 business of creating and licensing software in the field of
 computational chemistry and represents and warrants to the
 licensee that it is not a competitor of Gaussian, Inc. and that
 it will not use this program in any manner prohibited above.
 ---------------------------------------------------------------
  

 Cite this work as:
 Gaussian 16, Revision C.01,
 M. J. Frisch, G. W. Trucks, H. B. Schlegel, G. E. Scuseria, 
 M. A. Robb, J. R. Cheeseman, G. Scalmani, V. Barone, 
 G. A. Petersson, H. Nakatsuji, X. Li, M. Caricato, A. V. Marenich, 
 J. Bloino, B. G. Janesko, R. Gomperts, B. Mennucci, H. P. Hratchian, 
 J. V. Ortiz, A. F. Izmaylov, J. L. Sonnenberg, D. Williams-Young, 
 F. Ding, F. Lipparini, F. Egidi, J. Goings, B. Peng, A. Petrone, 
 T. Henderson, D. Ranasinghe, V. G. Zakrzewski, J. Gao, N. Rega, 
 G. Zheng, W. Liang, M. Hada, M. Ehara, K. Toyota, R. Fukuda, 
 J. Hasegawa, M. Ishida, T. Nakajima, Y. Honda, O. Kitao, H. Nakai, 
 T. Vreven, K. Throssell, J. A. Montgomery, Jr., J. E. Peralta, 
 F. Ogliaro, M. J. Bearpark, J. J. Heyd, E. N. Brothers, K. N. Kudin, 
 V. N. Staroverov, T. A. Keith, R. Kobayashi, J. Normand, 
 K. Raghavachari, A. P. Rendell, J. C. Burant, S. S. Iyengar, 
 J. Tomasi, M. Cossi, J. M. Millam, M. Klene, C. Adamo, R. Cammi, 
 J. W. Ochterski, R. L. Martin, K. Morokuma, O. Farkas, 
 J. B. Foresman, and D. J. Fox, Gaussian, Inc., Wallingford CT, 2019.
 
 ******************************************
 Gaussian 16:  ES64L-G16RevC.01  3-Jul-2019
                 9-Nov-2021 
 ******************************************
 %chk=_ami3_opt_gas_mp2.chk
 %mem=60000mb
 %nprocshared=32
 Will use up to   32 processors via shared memory.
 ---------------------------------------------------------------------
 #P MP2/aug-cc-pVDZ SP SCF=(YQC,MaxCycle=900) int=(Grid=Superfinegrid)
 ---------------------------------------------------------------------
 1/38=1,172=1/1;
 2/12=2,17=6,18=5,40=1/2;
 3/5=16,7=10,11=9,25=1,30=1,75=-7/1,2,3;
 4//1;
 5/5=2,7=900,8=4,13=1,38=1/8,2,8;
 8/10=1/1;
 9/16=-3/6;
 6/7=2,8=2,9=2,10=2/1;
 99/5=1,9=1/99;
 Leave Link    1 at Tue Nov  9 08:02:15 2021, MaxMem=  7864320000 cpu:               7.6 elap:               0.2
 (Enter /apps/gaussian/g16-c01-avx/g16/l101.exe)
 -----------------
 _ami3_opt_gas_mp2
 -----------------
 Symbolic Z-matrix:
 Charge =  0 Multiplicity = 1
 C                     0.5657   -0.4062    1.9071 
 C                     1.7457   -0.5905    0.9306 
 N                     1.0823   -0.4322    3.2696 
 N                     2.8127    0.375     1.1325 
 H                     0.3325   -0.2729    3.9341 
 H                     1.4787   -1.3462    3.4688 
 H                     3.0797    0.3638    2.1121 
 H                     2.4672    1.309     0.9313 
 C                     1.246    -0.5174   -0.5116 
 H                     2.1843   -1.5817    1.1081 
 C                     0.171    -1.566    -0.7758 
 H                     2.0938   -0.6592   -1.1827 
 H                     0.8373    0.4797   -0.6947 
 C                    -0.9985   -1.3839    0.1869 
 H                     0.5969   -2.5633   -0.6449 
 H                    -0.18     -1.4844   -1.8064 
 C                    -0.5151   -1.4606    1.6312 
 H                    -1.754    -2.1523    0.0085 
 H                    -1.4636   -0.4106    0.0131 
 H                    -0.0975   -2.4535    1.8237 
 H                    -1.3552   -1.3117    2.3163 
 H                     0.1384    0.5939    1.7527 
 
 ITRead=  0  0  0  0  0  0  0  0  0  0  0  0  0  0  0  0  0  0  0  0
 ITRead=  0  0
 MicOpt= -1 -1 -1 -1 -1 -1 -1 -1 -1 -1 -1 -1 -1 -1 -1 -1 -1 -1 -1 -1
 MicOpt= -1 -1
 NAtoms=     22 NQM=       22 NQMF=       0 NMMI=      0 NMMIF=      0
                NMic=       0 NMicF=      0.
                    Isotopes and Nuclear Properties:
 (Nuclear quadrupole moments (NQMom) in fm**2, nuclear magnetic moments (NMagM)
  in nuclear magnetons)

  Atom         1           2           3           4           5           6           7           8           9          10
 IAtWgt=          12          12          14          14           1           1           1           1          12           1
 AtmWgt=  12.0000000  12.0000000  14.0030740  14.0030740   1.0078250   1.0078250   1.0078250   1.0078250  12.0000000   1.0078250
 NucSpn=           0           0           2           2           1           1           1           1           0           1
 AtZEff=  -0.0000000  -0.0000000  -0.0000000  -0.0000000  -0.0000000  -0.0000000  -0.0000000  -0.0000000  -0.0000000  -0.0000000
 NQMom=    0.0000000   0.0000000   2.0440000   2.0440000   0.0000000   0.0000000   0.0000000   0.0000000   0.0000000   0.0000000
 NMagM=    0.0000000   0.0000000   0.4037610   0.4037610   2.7928460   2.7928460   2.7928460   2.7928460   0.0000000   2.7928460
 AtZNuc=   6.0000000   6.0000000   7.0000000   7.0000000   1.0000000   1.0000000   1.0000000   1.0000000   6.0000000   1.0000000

  Atom        11          12          13          14          15          16          17          18          19          20
 IAtWgt=          12           1           1          12           1           1          12           1           1           1
 AtmWgt=  12.0000000   1.0078250   1.0078250  12.0000000   1.0078250   1.0078250  12.0000000   1.0078250   1.0078250   1.0078250
 NucSpn=           0           1           1           0           1           1           0           1           1           1
 AtZEff=  -0.0000000  -0.0000000  -0.0000000  -0.0000000  -0.0000000  -0.0000000  -0.0000000  -0.0000000  -0.0000000  -0.0000000
 NQMom=    0.0000000   0.0000000   0.0000000   0.0000000   0.0000000   0.0000000   0.0000000   0.0000000   0.0000000   0.0000000
 NMagM=    0.0000000   2.7928460   2.7928460   0.0000000   2.7928460   2.7928460   0.0000000   2.7928460   2.7928460   2.7928460
 AtZNuc=   6.0000000   1.0000000   1.0000000   6.0000000   1.0000000   1.0000000   6.0000000   1.0000000   1.0000000   1.0000000

  Atom        21          22
 IAtWgt=           1           1
 AtmWgt=   1.0078250   1.0078250
 NucSpn=           1           1
 AtZEff=  -0.0000000  -0.0000000
 NQMom=    0.0000000   0.0000000
 NMagM=    2.7928460   2.7928460
 AtZNuc=   1.0000000   1.0000000
 Leave Link  101 at Tue Nov  9 08:02:16 2021, MaxMem=  7864320000 cpu:               2.3 elap:               0.1
 (Enter /apps/gaussian/g16-c01-avx/g16/l202.exe)
                          Input orientation:                          
 ---------------------------------------------------------------------
 Center     Atomic      Atomic             Coordinates (Angstroms)
 Number     Number       Type             X           Y           Z
 ---------------------------------------------------------------------
      1          6           0        0.565700   -0.406200    1.907100
      2          6           0        1.745700   -0.590500    0.930600
      3          7           0        1.082300   -0.432200    3.269600
      4          7           0        2.812700    0.375000    1.132500
      5          1           0        0.332500   -0.272900    3.934100
      6          1           0        1.478700   -1.346200    3.468800
      7          1           0        3.079700    0.363800    2.112100
      8          1           0        2.467200    1.309000    0.931300
      9          6           0        1.246000   -0.517400   -0.511600
     10          1           0        2.184300   -1.581700    1.108100
     11          6           0        0.171000   -1.566000   -0.775800
     12          1           0        2.093800   -0.659200   -1.182700
     13          1           0        0.837300    0.479700   -0.694700
     14          6           0       -0.998500   -1.383900    0.186900
     15          1           0        0.596900   -2.563300   -0.644900
     16          1           0       -0.180000   -1.484400   -1.806400
     17          6           0       -0.515100   -1.460600    1.631200
     18          1           0       -1.754000   -2.152300    0.008500
     19          1           0       -1.463600   -0.410600    0.013100
     20          1           0       -0.097500   -2.453500    1.823700
     21          1           0       -1.355200   -1.311700    2.316300
     22          1           0        0.138400    0.593900    1.752700
 ---------------------------------------------------------------------
                    Distance matrix (angstroms):
                    1          2          3          4          5
     1  C    0.000000
     2  C    1.542699   0.000000
     3  N    1.457380   2.436407   0.000000
     4  N    2.501857   1.453080   2.865842   0.000000
     5  H    2.044720   3.334519   1.014464   3.797384   0.000000
     6  H    2.038646   2.661735   1.015977   3.193804   1.637758
     7  H    2.637256   2.021432   2.441931   1.015397   3.357407
     8  H    2.740401   2.031911   3.227595   1.015976   4.009509
     9  C    2.515012   1.528066   3.785701   2.440080   4.545163
    10  H    2.154082   1.098341   2.684741   2.055275   3.623313
    11  C    2.949386   2.518547   4.298980   3.793108   4.886855
    12  H    3.456293   2.142879   4.571393   2.635629   5.425223
    13  H    2.761874   2.147584   4.075201   2.692922   4.716675
    14  C    2.522242   2.951814   3.839076   4.302689   4.128848
    15  H    3.341670   2.773785   4.483359   4.086873   5.126703
    16  H    3.938104   3.463892   5.335382   4.588110   5.889289
    17  C    1.534930   2.521732   2.508714   3.833064   2.726244
    18  H    3.469086   3.941749   4.651679   5.339042   4.826589
    19  H    2.775845   3.342720   4.133626   4.489651   4.314994
    20  H    2.153654   2.768715   2.751038   4.116726   3.064915
    21  H    2.162691   3.472157   2.761106   4.649487   2.558264
    22  H    1.098465   2.159182   2.060295   2.753987   2.355318
                    6          7          8          9         10
     6  H    0.000000
     7  H    2.707016   0.000000
     8  H    3.803436   1.631823   0.000000
     9  C    4.072425   3.320056   2.628503   0.000000
    10  H    2.475123   2.365318   2.909886   2.153269   0.000000
    11  C    4.446911   4.530412   4.056150   1.524791   2.757300
    12  H    4.742022   3.588068   2.912428   1.090526   2.471227
    13  H    4.591300   3.594429   2.447078   1.093055   3.051863
    14  C    4.112032   4.836586   4.451620   2.505295   3.319330
    15  H    4.379661   4.725808   4.580080   2.150536   2.560544
    16  H    5.531557   5.421820   4.722897   2.155243   3.754157
    17  C    2.713872   4.059838   4.129728   2.929623   2.752283
    18  H    4.803522   5.841280   5.536306   3.455923   4.128548
    19  H    4.634041   5.064294   4.387631   2.762001   3.984680
    20  H    2.533155   4.256167   4.640094   3.317695   2.545335
    21  H    3.059483   4.745244   4.837048   3.923541   3.749761
    22  H    2.916400   2.972097   2.570871   2.754781   3.055233
                   11         12         13         14         15
    11  C    0.000000
    12  H    2.164489   0.000000
    13  H    2.153003   1.764661   0.000000
    14  C    1.525674   3.458802   2.760505   0.000000
    15  H    1.092306   2.481035   3.052887   2.151320   0.000000
    16  H    1.091786   2.498024   2.475574   2.157148   1.765412
    17  C    2.505093   3.920030   3.317162   1.524979   2.762811
    18  H    2.159745   4.295797   3.759887   1.092266   2.474385
    19  H    2.151564   3.761228   2.566662   1.092629   3.051678
    20  H    2.759918   4.130345   3.977418   2.152896   2.566755
    21  H    3.457606   4.956244   4.133073   2.160276   3.761104
    22  H    3.325589   3.743050   2.547797   2.766941   3.990817
                   16         17         18         19         20
    16  H    0.000000
    17  C    3.453976   0.000000
    18  H    2.493477   2.155569   0.000000
    19  H    2.472095   2.149512   1.765750   0.000000
    20  H    3.758136   1.094210   2.475816   3.052530   0.000000
    21  H    4.290405   1.094213   2.488291   2.475573   1.768664
    22  H    4.133752   2.159351   3.763645   2.569364   3.057341
                   21         22
    21  H    0.000000
    22  H    2.485920   0.000000
 Stoichiometry    C6H14N2
 Framework group  C1[X(C6H14N2)]
 Deg. of freedom    60
 Full point group                 C1      NOp   1
 Largest Abelian subgroup         C1      NOp   1
 Largest concise Abelian subgroup C1      NOp   1
                         Standard orientation:                         
 ---------------------------------------------------------------------
 Center     Atomic      Atomic             Coordinates (Angstroms)
 Number     Number       Type             X           Y           Z
 ---------------------------------------------------------------------
      1          6           0        0.634200    0.690671   -0.300960
      2          6           0        0.606895   -0.731096    0.297165
      3          7           0        1.885921    1.331393    0.081961
      4          7           0        1.766191   -1.528095   -0.066520
      5          1           0        1.949879    2.255579   -0.331471
      6          1           0        1.918666    1.444632    1.091077
      7          1           0        2.605207   -1.001041    0.155511
      8          1           0        1.770759   -1.681085   -1.070901
      9          6           0       -0.671922   -1.451595   -0.127679
     10          1           0        0.620982   -0.641476    1.391753
     11          6           0       -1.910977   -0.672865    0.300471
     12          1           0       -0.673940   -2.448982    0.313300
     13          1           0       -0.669389   -1.566248   -1.214702
     14          6           0       -1.887677    0.732745   -0.292318
     15          1           0       -1.939325   -0.606647    1.390399
     16          1           0       -2.809935   -1.199116   -0.026534
     17          6           0       -0.618728    1.466308    0.128653
     18          1           0       -2.765386    1.293147    0.037259
     19          1           0       -1.922193    0.667604   -1.382457
     20          1           0       -0.607701    1.580788    1.216802
     21          1           0       -0.599585    2.466858   -0.313880
     22          1           0        0.646440    0.607898   -1.396233
 ---------------------------------------------------------------------
 Rotational constants (GHZ):           2.7489304           1.9383102           1.2384709
 Leave Link  202 at Tue Nov  9 08:02:16 2021, MaxMem=  7864320000 cpu:               0.6 elap:               0.0
 (Enter /apps/gaussian/g16-c01-avx/g16/l301.exe)
 Standard basis: Aug-CC-pVDZ (5D, 7F)
 Ernie: Thresh=  0.10000D-02 Tol=  0.10000D-05 Strict=F.
 Ernie:  16 primitive shells out of 298 were deleted.
 There are   326 symmetry adapted cartesian basis functions of A   symmetry.
 There are   310 symmetry adapted basis functions of A   symmetry.
   310 basis functions,   498 primitive gaussians,   326 cartesian basis functions
    32 alpha electrons       32 beta electrons
       nuclear repulsion energy       417.5666951412 Hartrees.
 IExCor=    0 DFT=F Ex=HF Corr=None ExCW=0 ScaHFX=  1.000000
 ScaDFX=  1.000000  1.000000  1.000000  1.000000 ScalE2=  1.000000  1.000000
 IRadAn=      7 IRanWt=     -1 IRanGd=            0 ICorTp=0 IEmpDi=  4
 NAtoms=   22 NActive=   22 NUniq=   22 SFac= 1.00D+00 NAtFMM=   60 NAOKFM=F Big=F
 Integral buffers will be    131072 words long.
 Raffenetti 1 integral format.
 Two-electron integral symmetry is turned on.
 Leave Link  301 at Tue Nov  9 08:02:17 2021, MaxMem=  7864320000 cpu:               3.5 elap:               0.2
 (Enter /apps/gaussian/g16-c01-avx/g16/l302.exe)
 NPDir=0 NMtPBC=     1 NCelOv=     1 NCel=       1 NClECP=     1 NCelD=      1
         NCelK=      1 NCelE2=     1 NClLst=     1 CellRange=     0.0.
 One-electron integrals computed using PRISM.
 One-electron integral symmetry used in STVInt
 NBasis=   310 RedAO= T EigKep=  5.77D-06  NBF=   310
 NBsUse=   310 1.00D-06 EigRej= -1.00D+00 NBFU=   310
 Leave Link  302 at Tue Nov  9 08:02:18 2021, MaxMem=  7864320000 cpu:               7.2 elap:               0.2
 (Enter /apps/gaussian/g16-c01-avx/g16/l303.exe)
 DipDrv:  MaxL=1.
 Leave Link  303 at Tue Nov  9 08:02:18 2021, MaxMem=  7864320000 cpu:               1.4 elap:               0.1
 (Enter /apps/gaussian/g16-c01-avx/g16/l401.exe)
 ExpMin= 2.97D-02 ExpMax= 9.05D+03 ExpMxC= 3.09D+02 IAcc=3 IRadAn=         7 AccDes= 0.00D+00
 Harris functional with IExCor=  205 and IRadAn=       7 diagonalized for initial guess.
 HarFok:  IExCor=  205 AccDes= 0.00D+00 IRadAn=         7 IDoV= 1 UseB2=F ITyADJ=14
 ICtDFT=  3500011 ScaDFX=  1.000000  1.000000  1.000000  1.000000
 FoFCou: FMM=F IPFlag=           0 FMFlag=      100000 FMFlg1=           0
         NFxFlg=           0 DoJE=T BraDBF=F KetDBF=T FulRan=T
         wScrn=  0.000000 ICntrl=       500 IOpCl=  0 I1Cent=   200000004 NGrid=           0
         NMat0=    1 NMatS0=      1 NMatT0=    0 NMatD0=    1 NMtDS0=    0 NMtDT0=    0
 Petite list used in FoFCou.
 Harris En= -345.004054782320    
 JPrj=0 DoOrth=F DoCkMO=F.
 Leave Link  401 at Tue Nov  9 08:02:20 2021, MaxMem=  7864320000 cpu:              53.8 elap:               1.7
 (Enter /apps/gaussian/g16-c01-avx/g16/l508.exe)
 Integral symmetry usage will be decided dynamically.
 Tight linear equation convergence will be used.
 RHF wavefunction.
 Linear searches until partial convergence.
 Full line searches.
 Fock matrices will be formed incrementally for  20 cycles.
 FoFJK:  IHMeth= 1 ICntrl=       0 DoSepK=F KAlg= 0 I1Cent=           0 FoldK=F
 IRaf= 990000000 NMat=       1 IRICut=       1 DoRegI=T DoRafI=F ISym2E= 1 IDoP0=0 IntGTp=1.
 FoFCou: FMM=F IPFlag=           0 FMFlag=      100000 FMFlg1=           0
         NFxFlg=           0 DoJE=F BraDBF=F KetDBF=F FulRan=T
         wScrn=  0.000000 ICntrl=         0 IOpCl=  0 I1Cent=           0 NGrid=           0
         NMat0=    1 NMatS0=      1 NMatT0=    0 NMatD0=    1 NMtDS0=    0 NMtDT0=    0
 Petite list used in FoFCou.
 Iteration   1 EE= -343.873570208480                                    Grad=1.019D+00 Max rot=    4.0296 deg.
 Gradient too large for Newton-Raphson -- use scaled steepest descent instead.
 Alpha Gap=     0.373 HL deriv= 9.86D-04
     ILin= 1 X=0.000D+00 Y=-3.438735702085D+02 DE= 0.00D+00 F= -1.53D+00
 RMSU=  4.47D-03    CP:  7.81D-01
     ILin= 2 X=3.000D-01 Y=-3.442044069983D+02 DE=-3.31D-01 F= -6.66D-01 OKLS=F
 RMSU=  6.94D-04    CP:  6.60D-01  1.52D+00
     ILin= 3 X=5.000D-01 Y=-3.442788082001D+02 DE=-4.05D-01 F= -7.69D-02
 RMSU=  6.88D-04    CP:  5.15D-01  2.08D+00  3.00D+00
     ILin= 4 X=8.000D-01 Y=-3.441688955199D+02 DE=-2.95D-01 F=  8.08D-01
     An  expanding polynomial of degree  4 produced  0.5264
     Minimum is close to point  3 DX=  2.64D-02 DF= -1.03D-03 DXR=  5.01D-02 DFR=  2.53D-03 which will be used.
 Iteration   2 EE= -344.278808200128     Delta-E=       -0.405237991647 Grad=3.446D-01 Max rot=    1.1462 deg.
 Gradient too large for Newton-Raphson -- use scaled steepest descent instead.
 Alpha Gap=     0.498 HL deriv= 2.72D-03
     ILin= 1 X=0.000D+00 Y=-3.442788082001D+02 DE= 0.00D+00 F= -5.39D-02
 RMSU=  1.64D-03    CP:  5.57D-01  1.74D+00  1.66D+00  1.47D-02
     ILin= 2 X=4.000D-01 Y=-3.442960706636D+02 DE=-1.73D-02 F= -3.24D-02 OKLS=F
 RMSU=  2.37D-04    CP:  4.70D-01  1.91D+00  2.58D+00  2.67D-02  1.85D+00
     ILin= 3 X=8.000D-01 Y=-3.443047108901D+02 DE=-2.59D-02 F= -1.08D-02
 RMSU=  7.41D-04    CP:  3.39D-01  2.09D+00  3.00D+00  2.23D+00  3.00D+00
                    CP:  3.00D+00
     ILin= 4 X=1.600D+00 Y=-3.442961093515D+02 DE=-1.73D-02 F=  3.23D-02
     An  expanding polynomial of degree  4 produced  1.0007
 RMSU=  1.98D-06    CP:  4.31D-01  1.97D+00  3.00D+00  1.69D-01  2.23D+00
                    CP:  1.88D+00  1.14D-04
 Iteration   3 EE= -344.305796105109     Delta-E=       -0.026987904982 Grad=5.173D-02 Max rot=    0.1825 deg.
 Gradient too large for Newton-Raphson -- use scaled steepest descent instead.
 Alpha Gap=     0.496 HL deriv= 7.51D-04
     ILin= 1 X=0.000D+00 Y=-3.443057961051D+02 DE= 0.00D+00 F= -3.65D-03
 RMSU=  3.62D-04    CP:  4.17D-01  2.01D+00  3.00D+00  4.45D-01  2.29D+00
                    CP:  2.20D+00 -5.76D-03 -3.00D+00
     ILin= 2 X=7.000D-01 Y=-3.443070864870D+02 DE=-1.29D-03 F= -3.42D-05 OKLS=T
     Reject lnstep IMin12=  1  2 Big=T Turn=F Min= 7.309D-01 FVal=-3.443070872181D+02 Lims=  0.00D+00  7.00D-01
 RMSU=  2.51D-05    CP:  4.01D-01  2.05D+00  3.00D+00  7.92D-01  2.35D+00
                    CP:  2.59D+00 -1.23D-02 -3.00D+00  2.14D+00
     ILin= 3 X=1.500D+00 Y=-3.443054625942D+02 DE= 3.34D-04 F=  4.09D-03
     An  expanding polynomial of degree  3 produced  0.7069
     Minimum is close to point  2 DX=  6.95D-03 DF= -1.25D-07 DXR=  9.83D-03 DFR=  9.66D-05 which will be used.
 Iteration   4 EE= -344.307086486963     Delta-E=       -0.001290381854 Grad=1.788D-02 Max rot=    0.0503 deg.
 Gradient too large for Newton-Raphson -- use scaled steepest descent instead.
 Alpha Gap=     0.500 HL deriv= 4.50D-04
     ILin= 1 X=0.000D+00 Y=-3.443070864870D+02 DE= 0.00D+00 F= -4.40D-04
 RMSU=  1.03D-04    CP:  4.10D-01  2.01D+00  3.00D+00  5.09D-01  2.38D+00
                    CP:  2.47D+00 -6.09D-03 -3.00D+00  1.23D+00 -5.79D-01
     ILin= 2 X=8.000D-01 Y=-3.443072616410D+02 DE=-1.75D-04 F=  1.51D-06 OKLS=T
     Accept linear search using points  1 and  2.
     An  expanding polynomial of degree  2 produced  0.7941
     Minimum is close to point  2 DX= -5.86D-03 DF= -5.55D-09 DXR=  7.38D-03 DFR=  3.17D-05 which will be used.
 Iteration   5 EE= -344.307261641000     Delta-E=       -0.000175154037 Grad=7.488D-03 Max rot=    0.0435 deg.
 SCF Done:  E(RHF) =  -344.307261641     a.u. after    5 cycles
            Convg  =    0.7488D-02                    11 Fock formations.
              S**2 =  0.0000                  -V/T =  2.0007
 Leave Link  508 at Tue Nov  9 08:02:39 2021, MaxMem=  7864320000 cpu:             576.5 elap:              18.2
 (Enter /apps/gaussian/g16-c01-avx/g16/l502.exe)
 Integral symmetry usage will be decided dynamically.
 Closed shell SCF:
 Using DIIS extrapolation, IDIIS=  1040.
 NGot=  7864320000 LenX=  7864093254 LenY=  7863986537
 Requested convergence on RMS density matrix=1.00D-08 within 128 cycles.
 Requested convergence on MAX density matrix=1.00D-06.
 Requested convergence on             energy=1.00D-06.
 No special actions if energy rises.
 Fock matrices will be formed incrementally for  20 cycles.

 Cycle   1  Pass 1  IDiag  1:
 FoFJK:  IHMeth= 1 ICntrl=       0 DoSepK=F KAlg= 0 I1Cent=           0 FoldK=F
 IRaf= 990000000 NMat=       1 IRICut=       1 DoRegI=T DoRafI=F ISym2E= 0 IDoP0=0 IntGTp=1.
 FoFCou: FMM=F IPFlag=           0 FMFlag=      100000 FMFlg1=           0
         NFxFlg=           0 DoJE=F BraDBF=F KetDBF=F FulRan=T
         wScrn=  0.000000 ICntrl=         0 IOpCl=  0 I1Cent=           0 NGrid=           0
         NMat0=    1 NMatS0=      1 NMatT0=    0 NMatD0=    1 NMtDS0=    0 NMtDT0=    0
 Symmetry not used in FoFCou.
 E= -344.307261641003    
 DIIS: error= 2.70D-04 at cycle   1 NSaved=   1.
 NSaved= 1 IEnMin= 1 EnMin= -344.307261641003     IErMin= 1 ErrMin= 2.70D-04
 ErrMax= 2.70D-04  0.00D+00 EMaxC= 1.00D-01 BMatC= 2.80D-05 BMatP= 2.80D-05
 IDIUse=3 WtCom= 9.97D-01 WtEn= 2.70D-03
 Coeff-Com:  0.100D+01
 Coeff-En:   0.100D+01
 Coeff:      0.100D+01
 Gap=     0.499 Goal=   None    Shift=    0.000
 RMSDP=1.97D-04 MaxDP=1.86D-02              OVMax= 1.44D-03

 Cycle   2  Pass 1  IDiag  1:
 RMSU=  1.79D-04    CP:  9.96D-01
 E= -344.307300178229     Delta-E=       -0.000038537226 Rises=F Damp=F
 DIIS: error= 1.53D-04 at cycle   2 NSaved=   2.
 NSaved= 2 IEnMin= 2 EnMin= -344.307300178229     IErMin= 2 ErrMin= 1.53D-04
 ErrMax= 1.53D-04  0.00D+00 EMaxC= 1.00D-01 BMatC= 7.33D-06 BMatP= 2.80D-05
 IDIUse=3 WtCom= 9.98D-01 WtEn= 1.53D-03
 Coeff-Com:  0.272D+00 0.728D+00
 Coeff-En:   0.000D+00 0.100D+01
 Coeff:      0.272D+00 0.728D+00
 Gap=     0.404 Goal=   None    Shift=    0.000
 RMSDP=3.44D-05 MaxDP=3.40D-03 DE=-3.85D-05 OVMax= 4.90D-04

 Cycle   3  Pass 1  IDiag  1:
 RMSU=  2.82D-05    CP:  9.95D-01  1.07D+00
 E= -344.307308143870     Delta-E=       -0.000007965641 Rises=F Damp=F
 DIIS: error= 3.33D-05 at cycle   3 NSaved=   3.
 NSaved= 3 IEnMin= 3 EnMin= -344.307308143870     IErMin= 3 ErrMin= 3.33D-05
 ErrMax= 3.33D-05  0.00D+00 EMaxC= 1.00D-01 BMatC= 5.24D-07 BMatP= 7.33D-06
 IDIUse=1 WtCom= 1.00D+00 WtEn= 0.00D+00
 Coeff-Com: -0.147D+00-0.230D-01 0.117D+01
 Coeff:     -0.147D+00-0.230D-01 0.117D+01
 Gap=     0.404 Goal=   None    Shift=    0.000
 RMSDP=2.47D-05 MaxDP=2.84D-03 DE=-7.97D-06 OVMax= 2.66D-04

 Cycle   4  Pass 1  IDiag  1:
 RMSU=  8.98D-06    CP:  9.94D-01  1.17D+00  1.24D+00
 E= -344.307309324629     Delta-E=       -0.000001180759 Rises=F Damp=F
 DIIS: error= 5.56D-06 at cycle   4 NSaved=   4.
 NSaved= 4 IEnMin= 4 EnMin= -344.307309324629     IErMin= 4 ErrMin= 5.56D-06
 ErrMax= 5.56D-06  0.00D+00 EMaxC= 1.00D-01 BMatC= 1.40D-08 BMatP= 5.24D-07
 IDIUse=1 WtCom= 1.00D+00 WtEn= 0.00D+00
 Coeff-Com: -0.728D-02-0.191D-01 0.116D-02 0.103D+01
 Coeff:     -0.728D-02-0.191D-01 0.116D-02 0.103D+01
 Gap=     0.404 Goal=   None    Shift=    0.000
 RMSDP=2.10D-06 MaxDP=9.75D-05 DE=-1.18D-06 OVMax= 6.47D-05

 Cycle   5  Pass 1  IDiag  1:
 RMSU=  1.26D-06    CP:  9.94D-01  1.17D+00  1.27D+00  1.16D+00
 E= -344.307309354117     Delta-E=       -0.000000029488 Rises=F Damp=F
 DIIS: error= 1.43D-06 at cycle   5 NSaved=   5.
 NSaved= 5 IEnMin= 5 EnMin= -344.307309354117     IErMin= 5 ErrMin= 1.43D-06
 ErrMax= 1.43D-06  0.00D+00 EMaxC= 1.00D-01 BMatC= 2.46D-09 BMatP= 1.40D-08
 IDIUse=1 WtCom= 1.00D+00 WtEn= 0.00D+00
 Coeff-Com:  0.148D-01-0.216D-02-0.132D+00 0.244D+00 0.876D+00
 Coeff:      0.148D-01-0.216D-02-0.132D+00 0.244D+00 0.876D+00
 Gap=     0.404 Goal=   None    Shift=    0.000
 RMSDP=7.93D-07 MaxDP=3.23D-05 DE=-2.95D-08 OVMax= 2.81D-05

 Cycle   6  Pass 1  IDiag  1:
 RMSU=  5.10D-07    CP:  9.94D-01  1.16D+00  1.28D+00  1.20D+00  1.19D+00
 E= -344.307309358274     Delta-E=       -0.000000004158 Rises=F Damp=F
 DIIS: error= 3.63D-07 at cycle   6 NSaved=   6.
 NSaved= 6 IEnMin= 6 EnMin= -344.307309358274     IErMin= 6 ErrMin= 3.63D-07
 ErrMax= 3.63D-07  0.00D+00 EMaxC= 1.00D-01 BMatC= 1.01D-10 BMatP= 2.46D-09
 IDIUse=1 WtCom= 1.00D+00 WtEn= 0.00D+00
 Coeff-Com: -0.270D-02 0.160D-02 0.275D-01-0.108D+00-0.182D+00 0.126D+01
 Coeff:     -0.270D-02 0.160D-02 0.275D-01-0.108D+00-0.182D+00 0.126D+01
 Gap=     0.404 Goal=   None    Shift=    0.000
 RMSDP=2.44D-07 MaxDP=9.91D-06 DE=-4.16D-09 OVMax= 1.33D-05

 Cycle   7  Pass 1  IDiag  1:
 RMSU=  1.17D-07    CP:  9.94D-01  1.16D+00  1.27D+00  1.19D+00  1.29D+00
                    CP:  1.27D+00
 E= -344.307309358648     Delta-E=       -0.000000000374 Rises=F Damp=F
 DIIS: error= 1.08D-07 at cycle   7 NSaved=   7.
 NSaved= 7 IEnMin= 7 EnMin= -344.307309358648     IErMin= 7 ErrMin= 1.08D-07
 ErrMax= 1.08D-07  0.00D+00 EMaxC= 1.00D-01 BMatC= 1.01D-11 BMatP= 1.01D-10
 IDIUse=1 WtCom= 1.00D+00 WtEn= 0.00D+00
 Coeff-Com: -0.139D-02 0.278D-03 0.128D-01-0.253D-01-0.835D-01 0.614D-01
 Coeff-Com:  0.104D+01
 Coeff:     -0.139D-02 0.278D-03 0.128D-01-0.253D-01-0.835D-01 0.614D-01
 Coeff:      0.104D+01
 Gap=     0.404 Goal=   None    Shift=    0.000
 RMSDP=5.32D-08 MaxDP=2.56D-06 DE=-3.74D-10 OVMax= 3.82D-06

 Cycle   8  Pass 1  IDiag  1:
 RMSU=  3.51D-08    CP:  9.94D-01  1.16D+00  1.27D+00  1.19D+00  1.30D+00
                    CP:  1.31D+00  1.28D+00
 E= -344.307309358687     Delta-E=       -0.000000000039 Rises=F Damp=F
 DIIS: error= 3.47D-08 at cycle   8 NSaved=   8.
 NSaved= 8 IEnMin= 8 EnMin= -344.307309358687     IErMin= 8 ErrMin= 3.47D-08
 ErrMax= 3.47D-08  0.00D+00 EMaxC= 1.00D-01 BMatC= 1.09D-12 BMatP= 1.01D-11
 IDIUse=1 WtCom= 1.00D+00 WtEn= 0.00D+00
 Coeff-Com:  0.200D-03-0.187D-03-0.215D-02 0.102D-01 0.137D-01-0.132D+00
 Coeff-Com:  0.515D-01 0.106D+01
 Coeff:      0.200D-03-0.187D-03-0.215D-02 0.102D-01 0.137D-01-0.132D+00
 Coeff:      0.515D-01 0.106D+01
 Gap=     0.404 Goal=   None    Shift=    0.000
 RMSDP=2.22D-08 MaxDP=1.08D-06 DE=-3.87D-11 OVMax= 1.31D-06

 Cycle   9  Pass 1  IDiag  1:
 RMSU=  1.13D-08    CP:  9.94D-01  1.16D+00  1.27D+00  1.19D+00  1.30D+00
                    CP:  1.30D+00  1.37D+00  1.22D+00
 E= -344.307309358687     Delta-E=       -0.000000000000 Rises=F Damp=F
 DIIS: error= 1.18D-08 at cycle   9 NSaved=   9.
 NSaved= 9 IEnMin= 9 EnMin= -344.307309358687     IErMin= 9 ErrMin= 1.18D-08
 ErrMax= 1.18D-08  0.00D+00 EMaxC= 1.00D-01 BMatC= 8.12D-14 BMatP= 1.09D-12
 IDIUse=1 WtCom= 1.00D+00 WtEn= 0.00D+00
 Coeff-Com:  0.155D-03-0.513D-04-0.147D-02 0.354D-02 0.906D-02-0.191D-01
 Coeff-Com: -0.926D-01 0.108D+00 0.992D+00
 Coeff:      0.155D-03-0.513D-04-0.147D-02 0.354D-02 0.906D-02-0.191D-01
 Coeff:     -0.926D-01 0.108D+00 0.992D+00
 Gap=     0.404 Goal=   None    Shift=    0.000
 RMSDP=6.47D-09 MaxDP=3.44D-07 DE=-1.14D-13 OVMax= 2.98D-07

 SCF Done:  E(RHF) =  -344.307309359     A.U. after    9 cycles
            NFock=  9  Conv=0.65D-08     -V/T= 2.0007
 KE= 3.440515738495D+02 PE=-1.638326793672D+03 EE= 5.324012153226D+02
 Leave Link  502 at Tue Nov  9 08:02:55 2021, MaxMem=  7864320000 cpu:             496.4 elap:              15.7
 (Enter /apps/gaussian/g16-c01-avx/g16/l508.exe)
 QCSCF skips out because SCF is already converged.
 Leave Link  508 at Tue Nov  9 08:02:55 2021, MaxMem=  7864320000 cpu:               0.1 elap:               0.0
 (Enter /apps/gaussian/g16-c01-avx/g16/l801.exe)
 ExpMin= 2.97D-02 ExpMax= 9.05D+03 ExpMxC= 3.09D+02 IAcc=3 IRadAn=         7 AccDes= 0.00D+00
 HarFok:  IExCor=  205 AccDes= 0.00D+00 IRadAn=         7 IDoV=-2 UseB2=F ITyADJ=14
 ICtDFT= 12500011 ScaDFX=  1.000000  1.000000  1.000000  1.000000
 Largest valence mixing into a core orbital is  1.13D-04
 Largest core mixing into a valence orbital is  3.93D-05
 Range of M.O.s used for correlation:     9   310
 NBasis=   310 NAE=    32 NBE=    32 NFC=     8 NFV=     0
 NROrb=    302 NOA=    24 NOB=    24 NVA=   278 NVB=   278

 **** Warning!!: The largest alpha MO coefficient is  0.10886312D+03

 Leave Link  801 at Tue Nov  9 08:02:56 2021, MaxMem=  7864320000 cpu:               7.2 elap:               0.2
 (Enter /apps/gaussian/g16-c01-avx/g16/l906.exe)
 FulOut=F Deriv=F AODrv=F NAtomX=    22
   MMem=         110  MDisk=          24 MDiskD=          24
  W3Min=     2175072 MinDsk=     2808325 NBas6D=         326
 NBas2D=       53697    NTT=       53301    LW2=     2000000
    MDV=  7863540064 MDiskM=      334932 NBas2p=       53349
 Fully direct method using O(OVN) memory.
 IMap=   1   2   3   4   5   6   7   8   9  10  11  12  13  14  15  16  17  18  19  20
 IMap=  21  22  23  24
 JobTyp=1 Pass  1:  I=   1 to  24 NPSUse= 32 ParTrn=T ParDer=T DoDerP=F.
 Spin components of T(2) and E(2):
     alpha-alpha T2 =       0.5341776775D-01 E2=     -0.1537605910D+00
     alpha-beta  T2 =       0.3073751850D+00 E2=     -0.9427305623D+00
     beta-beta   T2 =       0.5341776775D-01 E2=     -0.1537605910D+00
 The integrals were generated   1 times.
 ANorm=    0.1189205920D+01
 E2 =    -0.1250251744D+01 EUMP2 =    -0.34555756110301D+03
 Leave Link  906 at Tue Nov  9 08:03:43 2021, MaxMem=  7864320000 cpu:            1488.4 elap:              46.9
 (Enter /apps/gaussian/g16-c01-avx/g16/l601.exe)
 Copying SCF densities to generalized density rwf, IOpCl= 0 IROHF=0.

 **********************************************************************

            Population analysis using the SCF Density.

 **********************************************************************

 Orbital symmetries:
       Occupied  (A) (A) (A) (A) (A) (A) (A) (A) (A) (A) (A) (A)
                 (A) (A) (A) (A) (A) (A) (A) (A) (A) (A) (A) (A)
                 (A) (A) (A) (A) (A) (A) (A) (A)
       Virtual   (A) (A) (A) (A) (A) (A) (A) (A) (A) (A) (A) (A)
                 (A) (A) (A) (A) (A) (A) (A) (A) (A) (A) (A) (A)
                 (A) (A) (A) (A) (A) (A) (A) (A) (A) (A) (A) (A)
                 (A) (A) (A) (A) (A) (A) (A) (A) (A) (A) (A) (A)
                 (A) (A) (A) (A) (A) (A) (A) (A) (A) (A) (A) (A)
                 (A) (A) (A) (A) (A) (A) (A) (A) (A) (A) (A) (A)
                 (A) (A) (A) (A) (A) (A) (A) (A) (A) (A) (A) (A)
                 (A) (A) (A) (A) (A) (A) (A) (A) (A) (A) (A) (A)
                 (A) (A) (A) (A) (A) (A) (A) (A) (A) (A) (A) (A)
                 (A) (A) (A) (A) (A) (A) (A) (A) (A) (A) (A) (A)
                 (A) (A) (A) (A) (A) (A) (A) (A) (A) (A) (A) (A)
                 (A) (A) (A) (A) (A) (A) (A) (A) (A) (A) (A) (A)
                 (A) (A) (A) (A) (A) (A) (A) (A) (A) (A) (A) (A)
                 (A) (A) (A) (A) (A) (A) (A) (A) (A) (A) (A) (A)
                 (A) (A) (A) (A) (A) (A) (A) (A) (A) (A) (A) (A)
                 (A) (A) (A) (A) (A) (A) (A) (A) (A) (A) (A) (A)
                 (A) (A) (A) (A) (A) (A) (A) (A) (A) (A) (A) (A)
                 (A) (A) (A) (A) (A) (A) (A) (A) (A) (A) (A) (A)
                 (A) (A) (A) (A) (A) (A) (A) (A) (A) (A) (A) (A)
                 (A) (A) (A) (A) (A) (A) (A) (A) (A) (A) (A) (A)
                 (A) (A) (A) (A) (A) (A) (A) (A) (A) (A) (A) (A)
                 (A) (A) (A) (A) (A) (A) (A) (A) (A) (A) (A) (A)
                 (A) (A) (A) (A) (A) (A) (A) (A) (A) (A) (A) (A)
                 (A) (A)
 The electronic state is 1-A.
 Alpha  occ. eigenvalues --  -15.54767 -15.53112 -11.25168 -11.24806 -11.22224
 Alpha  occ. eigenvalues --  -11.22158 -11.22025 -11.21648  -1.21033  -1.15659
 Alpha  occ. eigenvalues --   -1.09256  -0.99220  -0.95734  -0.82928  -0.81224
 Alpha  occ. eigenvalues --   -0.77078  -0.66842  -0.65254  -0.63538  -0.61451
 Alpha  occ. eigenvalues --   -0.59188  -0.57929  -0.54949  -0.54800  -0.52092
 Alpha  occ. eigenvalues --   -0.48753  -0.48423  -0.46541  -0.45822  -0.44424
 Alpha  occ. eigenvalues --   -0.38571  -0.37022
 Alpha virt. eigenvalues --    0.03416   0.04054   0.04133   0.04587   0.06073
 Alpha virt. eigenvalues --    0.06343   0.06447   0.06558   0.06747   0.08792
 Alpha virt. eigenvalues --    0.08915   0.09046   0.09470   0.09778   0.13121
 Alpha virt. eigenvalues --    0.14126   0.14282   0.14637   0.15238   0.15620
 Alpha virt. eigenvalues --    0.15769   0.16484   0.17117   0.17404   0.18178
 Alpha virt. eigenvalues --    0.18502   0.18709   0.18832   0.19061   0.19868
 Alpha virt. eigenvalues --    0.20377   0.21643   0.22050   0.22234   0.23079
 Alpha virt. eigenvalues --    0.23696   0.24100   0.24675   0.25099   0.26137
 Alpha virt. eigenvalues --    0.26485   0.27977   0.29426   0.30297   0.31149
 Alpha virt. eigenvalues --    0.33701   0.34512   0.35188   0.36266   0.36610
 Alpha virt. eigenvalues --    0.36839   0.37445   0.37896   0.39054   0.39429
 Alpha virt. eigenvalues --    0.40419   0.41438   0.41820   0.42487   0.43425
 Alpha virt. eigenvalues --    0.43868   0.44316   0.45014   0.45374   0.45559
 Alpha virt. eigenvalues --    0.47542   0.48128   0.48292   0.48717   0.49306
 Alpha virt. eigenvalues --    0.50398   0.50729   0.51213   0.51326   0.51949
 Alpha virt. eigenvalues --    0.52299   0.53562   0.54290   0.54809   0.55710
 Alpha virt. eigenvalues --    0.56892   0.56916   0.58405   0.59261   0.59579
 Alpha virt. eigenvalues --    0.60590   0.60781   0.61262   0.61882   0.62395
 Alpha virt. eigenvalues --    0.63391   0.63826   0.65941   0.66911   0.67370
 Alpha virt. eigenvalues --    0.67834   0.69866   0.70011   0.70374   0.71158
 Alpha virt. eigenvalues --    0.71810   0.72958   0.73573   0.74332   0.75565
 Alpha virt. eigenvalues --    0.76266   0.77167   0.77810   0.79031   0.79653
 Alpha virt. eigenvalues --    0.79819   0.80218   0.80943   0.81686   0.83133
 Alpha virt. eigenvalues --    0.83146   0.84033   0.85360   0.86509   0.87618
 Alpha virt. eigenvalues --    0.87949   0.88515   0.88773   0.89842   0.91523
 Alpha virt. eigenvalues --    0.92264   0.92813   0.93405   0.95019   0.95562
 Alpha virt. eigenvalues --    0.96710   0.97875   0.98850   1.00640   1.01623
 Alpha virt. eigenvalues --    1.01659   1.03000   1.03528   1.04054   1.04595
 Alpha virt. eigenvalues --    1.05868   1.07117   1.08508   1.10469   1.11043
 Alpha virt. eigenvalues --    1.12262   1.14183   1.15340   1.17675   1.18206
 Alpha virt. eigenvalues --    1.20816   1.22034   1.24543   1.27621   1.29541
 Alpha virt. eigenvalues --    1.31173   1.32888   1.36154   1.37112   1.38716
 Alpha virt. eigenvalues --    1.41400   1.42827   1.47025   1.48191   1.50557
 Alpha virt. eigenvalues --    1.51089   1.53527   1.55955   1.59090   1.60508
 Alpha virt. eigenvalues --    1.60743   1.64308   1.65678   1.67266   1.71026
 Alpha virt. eigenvalues --    1.71601   1.72747   1.74864   1.79122   1.82168
 Alpha virt. eigenvalues --    1.83203   1.84010   1.85551   1.86892   1.87583
 Alpha virt. eigenvalues --    1.88286   1.88843   1.90498   1.93219   1.93685
 Alpha virt. eigenvalues --    1.99423   2.00724   2.01998   2.03518   2.05073
 Alpha virt. eigenvalues --    2.06421   2.08380   2.10682   2.11607   2.12558
 Alpha virt. eigenvalues --    2.14538   2.14700   2.16608   2.17426   2.18990
 Alpha virt. eigenvalues --    2.20411   2.21175   2.22015   2.22637   2.25709
 Alpha virt. eigenvalues --    2.26066   2.27066   2.28421   2.30794   2.33209
 Alpha virt. eigenvalues --    2.34616   2.35769   2.38683   2.40648   2.41415
 Alpha virt. eigenvalues --    2.44118   2.44709   2.46596   2.48010   2.48302
 Alpha virt. eigenvalues --    2.49260   2.49757   2.52087   2.52859   2.53978
 Alpha virt. eigenvalues --    2.56059   2.58808   2.60721   2.62832   2.63416
 Alpha virt. eigenvalues --    2.64531   2.67370   2.70347   2.70914   2.71624
 Alpha virt. eigenvalues --    2.73182   2.75614   2.76890   2.81572   2.82334
 Alpha virt. eigenvalues --    2.83589   2.86032   2.88457   2.90075   2.90935
 Alpha virt. eigenvalues --    2.91633   2.94990   2.95917   2.96754   3.00237
 Alpha virt. eigenvalues --    3.00917   3.02721   3.06547   3.07162   3.10826
 Alpha virt. eigenvalues --    3.12276   3.15952   3.20217   3.23674   3.24067
 Alpha virt. eigenvalues --    3.25341   3.26405   3.37539   3.41293   3.44947
 Alpha virt. eigenvalues --    3.45793   3.51005   3.62745   3.75377   3.81546
 Alpha virt. eigenvalues --    3.85779   4.24316   4.25773
          Condensed to atoms (all electrons):
               1          2          3          4          5          6
     1  C    8.430519  -0.959466  -0.345626   0.110126   0.209090  -0.143143
     2  C   -0.959466   8.094439   0.018089  -0.145404  -0.061622   0.015535
     3  N   -0.345626   0.018089   7.109117  -0.035136   0.249633   0.396367
     4  N    0.110126  -0.145404  -0.035136   6.949159   0.010702   0.001723
     5  H    0.209090  -0.061622   0.249633   0.010702   0.868477  -0.090923
     6  H   -0.143143   0.015535   0.396367   0.001723  -0.090923   0.736097
     7  H   -0.047213   0.111900  -0.028902   0.321583   0.001840  -0.002119
     8  H    0.026547  -0.102400   0.003429   0.361505  -0.001500  -0.000717
     9  C   -0.512824  -0.162251   0.055881   0.023361  -0.006979   0.015399
    10  H    0.119044  -0.478073  -0.021723  -0.128712   0.002810  -0.003233
    11  C    0.067953  -0.365489  -0.000245   0.011790  -0.002848   0.002570
    12  H    0.080941   0.020091  -0.004320  -0.026308  -0.000089   0.000430
    13  H   -0.031400   0.161250  -0.001078  -0.053890  -0.000568  -0.000737
    14  C   -0.353234   0.061439  -0.006515   0.000975   0.002337   0.012637
    15  H   -0.071909   0.087231   0.012563  -0.003656   0.000161  -0.001975
    16  H    0.015038   0.028545  -0.003824  -0.001745  -0.000465   0.000236
    17  C   -0.279314  -0.349677   0.131721   0.002258  -0.068035  -0.012377
    18  H    0.052368   0.024745  -0.003436  -0.001230   0.000220   0.000439
    19  H    0.117193  -0.060840  -0.003960   0.005498   0.002445  -0.001157
    20  H    0.084989  -0.008192  -0.051475  -0.000797   0.001429   0.005012
    21  H   -0.211553   0.118664   0.027454  -0.004512  -0.004444  -0.005786
    22  H   -0.454351  -0.019436  -0.118552  -0.048709  -0.043534   0.028322
               7          8          9         10         11         12
     1  C   -0.047213   0.026547  -0.512824   0.119044   0.067953   0.080941
     2  C    0.111900  -0.102400  -0.162251  -0.478073  -0.365489   0.020091
     3  N   -0.028902   0.003429   0.055881  -0.021723  -0.000245  -0.004320
     4  N    0.321583   0.361505   0.023361  -0.128712   0.011790  -0.026308
     5  H    0.001840  -0.001500  -0.006979   0.002810  -0.002848  -0.000089
     6  H   -0.002119  -0.000717   0.015399  -0.003233   0.002570   0.000430
     7  H    0.738662  -0.076641  -0.020619  -0.040920  -0.006508   0.004217
     8  H   -0.076641   0.759580  -0.025153   0.034005   0.027930  -0.014229
     9  C   -0.020619  -0.025153   5.387166  -0.016484   0.507715  -0.013112
    10  H   -0.040920   0.034005  -0.016484   1.690485   0.016652  -0.066004
    11  C   -0.006508   0.027930   0.507715   0.016652   4.810931   0.072031
    12  H    0.004217  -0.014229  -0.013112  -0.066004   0.072031   1.422313
    13  H   -0.002191   0.003800   0.093428   0.072162  -0.139973  -0.357983
    14  C   -0.002248   0.002080  -0.196978   0.008337   0.535222   0.048627
    15  H    0.000115  -0.000471  -0.006895   0.004123   0.136076  -0.086794
    16  H    0.000113   0.000898   0.020910   0.004111   0.086916  -0.019075
    17  C    0.002504  -0.005771   0.125271  -0.001344  -0.188487   0.009097
    18  H   -0.000275   0.000192   0.033877   0.004623   0.029281  -0.001212
    19  H   -0.000113  -0.001140   0.017046  -0.009551  -0.055636   0.010107
    20  H    0.000197  -0.000615  -0.020723  -0.000662  -0.003958   0.006266
    21  H    0.000296  -0.000316   0.033842   0.012827   0.032041  -0.001663
    22  H    0.003174   0.006025   0.028149   0.067229   0.016565   0.013753
              13         14         15         16         17         18
     1  C   -0.031400  -0.353234  -0.071909   0.015038  -0.279314   0.052368
     2  C    0.161250   0.061439   0.087231   0.028545  -0.349677   0.024745
     3  N   -0.001078  -0.006515   0.012563  -0.003824   0.131721  -0.003436
     4  N   -0.053890   0.000975  -0.003656  -0.001745   0.002258  -0.001230
     5  H   -0.000568   0.002337   0.000161  -0.000465  -0.068035   0.000220
     6  H   -0.000737   0.012637  -0.001975   0.000236  -0.012377   0.000439
     7  H   -0.002191  -0.002248   0.000115   0.000113   0.002504  -0.000275
     8  H    0.003800   0.002080  -0.000471   0.000898  -0.005771   0.000192
     9  C    0.093428  -0.196978  -0.006895   0.020910   0.125271   0.033877
    10  H    0.072162   0.008337   0.004123   0.004111  -0.001344   0.004623
    11  C   -0.139973   0.535222   0.136076   0.086916  -0.188487   0.029281
    12  H   -0.357983   0.048627  -0.086794  -0.019075   0.009097  -0.001212
    13  H    1.396730  -0.001546   0.074748  -0.063788  -0.023397   0.009321
    14  C   -0.001546   4.817776  -0.096700   0.045804   0.518791   0.115791
    15  H    0.074748  -0.096700   1.332557  -0.292011   0.028692  -0.061378
    16  H   -0.063788   0.045804  -0.292011   1.352194   0.039751  -0.019452
    17  C   -0.023397   0.518791   0.028692   0.039751   5.195058  -0.023820
    18  H    0.009321   0.115791  -0.061378  -0.019452  -0.023820   1.352275
    19  H   -0.017033   0.111228   0.062791  -0.064617  -0.045157  -0.291823
    20  H   -0.015085  -0.088894  -0.013914   0.008379   0.110111  -0.061283
    21  H    0.008313   0.071824   0.007884  -0.000632   0.121955  -0.018374
    22  H    0.001473   0.020747  -0.009781   0.003323   0.084103   0.007455
              19         20         21         22
     1  C    0.117193   0.084989  -0.211553  -0.454351
     2  C   -0.060840  -0.008192   0.118664  -0.019436
     3  N   -0.003960  -0.051475   0.027454  -0.118552
     4  N    0.005498  -0.000797  -0.004512  -0.048709
     5  H    0.002445   0.001429  -0.004444  -0.043534
     6  H   -0.001157   0.005012  -0.005786   0.028322
     7  H   -0.000113   0.000197   0.000296   0.003174
     8  H   -0.001140  -0.000615  -0.000316   0.006025
     9  C    0.017046  -0.020723   0.033842   0.028149
    10  H   -0.009551  -0.000662   0.012827   0.067229
    11  C   -0.055636  -0.003958   0.032041   0.016565
    12  H    0.010107   0.006266  -0.001663   0.013753
    13  H   -0.017033  -0.015085   0.008313   0.001473
    14  C    0.111228  -0.088894   0.071824   0.020747
    15  H    0.062791  -0.013914   0.007884  -0.009781
    16  H   -0.064617   0.008379  -0.000632   0.003323
    17  C   -0.045157   0.110111   0.121955   0.084103
    18  H   -0.291823  -0.061283  -0.018374   0.007455
    19  H    1.356044   0.077245  -0.087661  -0.003202
    20  H    0.077245   1.359555  -0.369186   0.061848
    21  H   -0.087661  -0.369186   1.440430  -0.044968
    22  H   -0.003202   0.061848  -0.044968   1.620764
 Mulliken charges:
               1
     1  C    0.096227
     2  C   -0.029078
     3  N   -0.379460
     4  N   -0.348581
     5  H   -0.068136
     6  H    0.047400
     7  H    0.043148
     8  H    0.002963
     9  C    0.639974
    10  H   -0.269702
    11  C    0.409474
    12  H   -0.097085
    13  H   -0.112557
    14  C    0.372500
    15  H   -0.101457
    16  H   -0.140609
    17  C    0.628071
    18  H   -0.148303
    19  H   -0.117708
    20  H   -0.080250
    21  H   -0.126437
    22  H   -0.220396
 Sum of Mulliken charges =   0.00000
 Mulliken charges with hydrogens summed into heavy atoms:
               1
     1  C   -0.124168
     2  C   -0.298780
     3  N   -0.400195
     4  N   -0.302470
     9  C    0.430332
    11  C    0.167408
    14  C    0.106489
    17  C    0.421385
 Electronic spatial extent (au):  <R**2>=           1037.2458
 Charge=              0.0000 electrons
 Dipole moment (field-independent basis, Debye):
    X=             -1.1105    Y=              2.0236    Z=             -0.2765  Tot=              2.3248
 Quadrupole moment (field-independent basis, Debye-Ang):
   XX=            -55.6265   YY=            -54.4624   ZZ=            -49.1837
   XY=              3.6793   XZ=             -0.1009   YZ=              1.9763
 Traceless Quadrupole moment (field-independent basis, Debye-Ang):
   XX=             -2.5356   YY=             -1.3715   ZZ=              3.9072
   XY=              3.6793   XZ=             -0.1009   YZ=              1.9763
 Octapole moment (field-independent basis, Debye-Ang**2):
  XXX=              0.4133  YYY=             21.2851  ZZZ=             -0.0325  XYY=             -1.3009
  XXY=              3.7853  XXZ=              0.9756  XZZ=              6.6752  YZZ=              0.4120
  YYZ=             -5.0778  XYZ=              4.0133
 Hexadecapole moment (field-independent basis, Debye-Ang**3):
 XXXX=           -761.5973 YYYY=           -548.1120 ZZZZ=           -118.4164 XXXY=             -0.8089
 XXXZ=              4.6452 YYYX=             46.3099 YYYZ=              1.5898 ZZZX=              0.4843
 ZZZY=              6.6146 XXYY=           -219.8028 XXZZ=           -138.4571 YYZZ=           -104.7189
 XXYZ=             12.1777 YYXZ=             -9.2400 ZZXY=              1.8154
 N-N= 4.175666951412D+02 E-N=-1.638326793932D+03  KE= 3.440515738495D+02
 Leave Link  601 at Tue Nov  9 08:03:43 2021, MaxMem=  7864320000 cpu:               2.0 elap:               0.1
 (Enter /apps/gaussian/g16-c01-avx/g16/l9999.exe)
 Unable to Open any file for archive entry.
 1\1\GINC-CX3-6-28\SP\RMP2-FC\Aug-CC-pVDZ\C6H14N2\ATARZIA\09-Nov-2021\0
 \\#P MP2/aug-cc-pVDZ SP SCF=(YQC,MaxCycle=900) int=(Grid=Superfinegrid
 )\\_ami3_opt_gas_mp2\\0,1\C,0,0.5657,-0.4062,1.9071\C,0,1.7457,-0.5905
 ,0.9306\N,0,1.0823,-0.4322,3.2696\N,0,2.8127,0.375,1.1325\H,0,0.3325,-
 0.2729,3.9341\H,0,1.4787,-1.3462,3.4688\H,0,3.0797,0.3638,2.1121\H,0,2
 .4672,1.309,0.9313\C,0,1.246,-0.5174,-0.5116\H,0,2.1843,-1.5817,1.1081
 \C,0,0.171,-1.566,-0.7758\H,0,2.0938,-0.6592,-1.1827\H,0,0.8373,0.4797
 ,-0.6947\C,0,-0.9985,-1.3839,0.1869\H,0,0.5969,-2.5633,-0.6449\H,0,-0.
 18,-1.4844,-1.8064\C,0,-0.5151,-1.4606,1.6312\H,0,-1.754,-2.1523,0.008
 5\H,0,-1.4636,-0.4106,0.0131\H,0,-0.0975,-2.4535,1.8237\H,0,-1.3552,-1
 .3117,2.3163\H,0,0.1384,0.5939,1.7527\\Version=ES64L-G16RevC.01\State=
 1-A\HF=-344.3073094\MP2=-345.5575611\RMSD=6.471e-09\PG=C01 [X(C6H14N2)
 ]\\@
 The archive entry for this job was punched.


 E PUR SI MUOVE    -- GALILEO GALILEI
 Job cpu time:       0 days  0 hours 44 minutes  8.1 seconds.
 Elapsed time:       0 days  0 hours  1 minutes 23.8 seconds.
 File lengths (MBytes):  RWF=    168 Int=      0 D2E=      0 Chk=     16 Scr=     16
 Normal termination of Gaussian 16 at Tue Nov  9 08:03:43 2021.
