 Entering Gaussian System, Link 0=g16
 Initial command:
 /apps/gaussian/g16-c01-avx/g16/l1.exe "/rds/general/ephemeral/user/atarzia/ephemeral/Gau-1194517.inp" -scrdir="/rds/general/ephemeral/user/atarzia/ephemeral/"
 Entering Link 1 = /apps/gaussian/g16-c01-avx/g16/l1.exe PID=   1194518.
  
 Copyright (c) 1988-2019, Gaussian, Inc.  All Rights Reserved.
  
 This is part of the Gaussian(R) 16 program.  It is based on
 the Gaussian(R) 09 system (copyright 2009, Gaussian, Inc.),
 the Gaussian(R) 03 system (copyright 2003, Gaussian, Inc.),
 the Gaussian(R) 98 system (copyright 1998, Gaussian, Inc.),
 the Gaussian(R) 94 system (copyright 1995, Gaussian, Inc.),
 the Gaussian 92(TM) system (copyright 1992, Gaussian, Inc.),
 the Gaussian 90(TM) system (copyright 1990, Gaussian, Inc.),
 the Gaussian 88(TM) system (copyright 1988, Gaussian, Inc.),
 the Gaussian 86(TM) system (copyright 1986, Carnegie Mellon
 University), and the Gaussian 82(TM) system (copyright 1983,
 Carnegie Mellon University). Gaussian is a federally registered
 trademark of Gaussian, Inc.
  
 This software contains proprietary and confidential information,
 including trade secrets, belonging to Gaussian, Inc.
  
 This software is provided under written license and may be
 used, copied, transmitted, or stored only in accord with that
 written license.
  
 The following legend is applicable only to US Government
 contracts under FAR:
  
                    RESTRICTED RIGHTS LEGEND
  
 Use, reproduction and disclosure by the US Government is
 subject to restrictions as set forth in subparagraphs (a)
 and (c) of the Commercial Computer Software - Restricted
 Rights clause in FAR 52.227-19.
  
 Gaussian, Inc.
 340 Quinnipiac St., Bldg. 40, Wallingford CT 06492
  
  
 ---------------------------------------------------------------
 Warning -- This program may not be used in any manner that
 competes with the business of Gaussian, Inc. or will provide
 assistance to any competitor of Gaussian, Inc.  The licensee
 of this program is prohibited from giving any competitor of
 Gaussian, Inc. access to this program.  By using this program,
 the user acknowledges that Gaussian, Inc. is engaged in the
 business of creating and licensing software in the field of
 computational chemistry and represents and warrants to the
 licensee that it is not a competitor of Gaussian, Inc. and that
 it will not use this program in any manner prohibited above.
 ---------------------------------------------------------------
  

 Cite this work as:
 Gaussian 16, Revision C.01,
 M. J. Frisch, G. W. Trucks, H. B. Schlegel, G. E. Scuseria, 
 M. A. Robb, J. R. Cheeseman, G. Scalmani, V. Barone, 
 G. A. Petersson, H. Nakatsuji, X. Li, M. Caricato, A. V. Marenich, 
 J. Bloino, B. G. Janesko, R. Gomperts, B. Mennucci, H. P. Hratchian, 
 J. V. Ortiz, A. F. Izmaylov, J. L. Sonnenberg, D. Williams-Young, 
 F. Ding, F. Lipparini, F. Egidi, J. Goings, B. Peng, A. Petrone, 
 T. Henderson, D. Ranasinghe, V. G. Zakrzewski, J. Gao, N. Rega, 
 G. Zheng, W. Liang, M. Hada, M. Ehara, K. Toyota, R. Fukuda, 
 J. Hasegawa, M. Ishida, T. Nakajima, Y. Honda, O. Kitao, H. Nakai, 
 T. Vreven, K. Throssell, J. A. Montgomery, Jr., J. E. Peralta, 
 F. Ogliaro, M. J. Bearpark, J. J. Heyd, E. N. Brothers, K. N. Kudin, 
 V. N. Staroverov, T. A. Keith, R. Kobayashi, J. Normand, 
 K. Raghavachari, A. P. Rendell, J. C. Burant, S. S. Iyengar, 
 J. Tomasi, M. Cossi, J. M. Millam, M. Klene, C. Adamo, R. Cammi, 
 J. W. Ochterski, R. L. Martin, K. Morokuma, O. Farkas, 
 J. B. Foresman, and D. J. Fox, Gaussian, Inc., Wallingford CT, 2019.
 
 ******************************************
 Gaussian 16:  ES64L-G16RevC.01  3-Jul-2019
                18-Oct-2021 
 ******************************************
 %chk=_ami4_opt_cfm.chk
 %mem=60000mb
 %nprocshared=32
 Will use up to   32 processors via shared memory.
 ----------------------------------------------------------------------
 #P PBE1PBE/Def2TZVP SP SCF=(YQC,MaxCycle=900) int=(Grid=Superfinegrid)
  EmpiricalDispersion=GD3 SCRF=(PCM,Solvent=Chloroform)
 ----------------------------------------------------------------------
 1/38=1,172=1/1;
 2/12=2,17=6,18=5,40=1/2;
 3/5=44,7=101,11=2,25=1,30=1,70=2201,72=7,74=-13,75=-7,124=31/1,2,3;
 4//1;
 5/5=2,7=900,8=4,13=1,38=1,53=7/8,2,8;
 6/7=2,8=2,9=2,10=2,28=1/1;
 99/5=1,9=1/99;
 Leave Link    1 at Mon Oct 18 11:33:31 2021, MaxMem=  7864320000 cpu:               4.9 elap:               0.2
 (Enter /apps/gaussian/g16-c01-avx/g16/l101.exe)
 -------------
 _ami4_opt_cfm
 -------------
 Symbolic Z-matrix:
 Charge =  0 Multiplicity = 1
 C                    -0.7407    0.9871    0.4942 
 C                     0.6799    0.4539    0.25 
 N                    -1.2498    1.8276   -0.5713 
 N                     1.5872    1.5758    0.0574 
 H                    -1.3069    1.292    -1.4324 
 H                    -0.5854    2.5784   -0.7349 
 H                     1.6283    2.1371    0.9027 
 H                     2.5253    1.2467   -0.1417 
 H                     0.6923   -0.1402   -0.6696 
 H                     0.9653   -0.2071    1.0861 
 H                    -0.7459    1.5827    1.4125 
 H                    -1.4245    0.145     0.6299 
 
 ITRead=  0  0  0  0  0  0  0  0  0  0  0  0
 MicOpt= -1 -1 -1 -1 -1 -1 -1 -1 -1 -1 -1 -1
 NAtoms=     12 NQM=       12 NQMF=       0 NMMI=      0 NMMIF=      0
                NMic=       0 NMicF=      0.
                    Isotopes and Nuclear Properties:
 (Nuclear quadrupole moments (NQMom) in fm**2, nuclear magnetic moments (NMagM)
  in nuclear magnetons)

  Atom         1           2           3           4           5           6           7           8           9          10
 IAtWgt=          12          12          14          14           1           1           1           1           1           1
 AtmWgt=  12.0000000  12.0000000  14.0030740  14.0030740   1.0078250   1.0078250   1.0078250   1.0078250   1.0078250   1.0078250
 NucSpn=           0           0           2           2           1           1           1           1           1           1
 AtZEff=  -0.0000000  -0.0000000  -0.0000000  -0.0000000  -0.0000000  -0.0000000  -0.0000000  -0.0000000  -0.0000000  -0.0000000
 NQMom=    0.0000000   0.0000000   2.0440000   2.0440000   0.0000000   0.0000000   0.0000000   0.0000000   0.0000000   0.0000000
 NMagM=    0.0000000   0.0000000   0.4037610   0.4037610   2.7928460   2.7928460   2.7928460   2.7928460   2.7928460   2.7928460
 AtZNuc=   6.0000000   6.0000000   7.0000000   7.0000000   1.0000000   1.0000000   1.0000000   1.0000000   1.0000000   1.0000000

  Atom        11          12
 IAtWgt=           1           1
 AtmWgt=   1.0078250   1.0078250
 NucSpn=           1           1
 AtZEff=  -0.0000000  -0.0000000
 NQMom=    0.0000000   0.0000000
 NMagM=    2.7928460   2.7928460
 AtZNuc=   1.0000000   1.0000000
 Leave Link  101 at Mon Oct 18 11:33:32 2021, MaxMem=  7864320000 cpu:               1.5 elap:               0.1
 (Enter /apps/gaussian/g16-c01-avx/g16/l202.exe)
                          Input orientation:                          
 ---------------------------------------------------------------------
 Center     Atomic      Atomic             Coordinates (Angstroms)
 Number     Number       Type             X           Y           Z
 ---------------------------------------------------------------------
      1          6           0       -0.740700    0.987100    0.494200
      2          6           0        0.679900    0.453900    0.250000
      3          7           0       -1.249800    1.827600   -0.571300
      4          7           0        1.587200    1.575800    0.057400
      5          1           0       -1.306900    1.292000   -1.432400
      6          1           0       -0.585400    2.578400   -0.734900
      7          1           0        1.628300    2.137100    0.902700
      8          1           0        2.525300    1.246700   -0.141700
      9          1           0        0.692300   -0.140200   -0.669600
     10          1           0        0.965300   -0.207100    1.086100
     11          1           0       -0.745900    1.582700    1.412500
     12          1           0       -1.424500    0.145000    0.629900
 ---------------------------------------------------------------------
                    Distance matrix (angstroms):
                    1          2          3          4          5
     1  C    0.000000
     2  C    1.536893   0.000000
     3  N    1.449453   2.507056   0.000000
     4  N    2.440590   1.455661   2.916717   0.000000
     5  H    2.031092   2.735006   1.015687   3.267394   0.000000
     6  H    2.016691   2.661675   1.015821   2.520543   1.631531
     7  H    2.664870   2.039275   3.248373   1.015519   3.844774
     8  H    3.337442   2.046329   3.843616   1.013893   4.043973
     9  H    2.163036   1.094885   2.766523   2.067373   2.574852
    10  H    2.164924   1.103375   3.434188   2.150283   3.708509
    11  H    1.094551   2.158356   2.061396   2.698092   2.914221
    12  H    1.093220   2.160612   2.074740   3.383088   2.362736
                    6          7          8          9         10
     6  H    0.000000
     7  H    2.788718   0.000000
     8  H    3.435370   1.639571   0.000000
     9  H    3.004591   2.921356   2.358402   0.000000
    10  H    3.671474   2.443047   2.460615   1.778057   0.000000
    11  H    2.372447   2.490799   3.637194   3.061363   2.497624
    12  H    2.913452   3.655471   4.172533   2.500176   2.458300
                   11         12
    11  H    0.000000
    12  H    1.771988   0.000000
 Stoichiometry    C2H8N2
 Framework group  C1[X(C2H8N2)]
 Deg. of freedom    30
 Full point group                 C1      NOp   1
 Largest Abelian subgroup         C1      NOp   1
 Largest concise Abelian subgroup C1      NOp   1
                         Standard orientation:                         
 ---------------------------------------------------------------------
 Center     Atomic      Atomic             Coordinates (Angstroms)
 Number     Number       Type             X           Y           Z
 ---------------------------------------------------------------------
      1          6           0        0.726573    0.580760    0.315576
      2          6           0       -0.687108    0.614822   -0.286409
      3          7           0        1.516238   -0.565022   -0.090041
      4          7           0       -1.395162   -0.602517    0.081956
      5          1           0        1.651834   -0.548515   -1.096502
      6          1           0        0.992525   -1.409003    0.122829
      7          1           0       -1.509090   -0.645361    1.090155
      8          1           0       -2.319186   -0.618636   -0.335055
      9          1           0       -0.616803    0.636153   -1.378826
     10          1           0       -1.195541    1.538069    0.040011
     11          1           0        0.649655    0.556064    1.407141
     12          1           0        1.262285    1.490506    0.031844
 ---------------------------------------------------------------------
 Rotational constants (GHZ):          14.2747492           5.2873365           4.4595365
 Leave Link  202 at Mon Oct 18 11:33:32 2021, MaxMem=  7864320000 cpu:               0.5 elap:               0.0
 (Enter /apps/gaussian/g16-c01-avx/g16/l301.exe)
 Standard basis: def2TZVP (5D, 7F)
 Ernie: Thresh=  0.10000D-02 Tol=  0.10000D-05 Strict=F.
 There are   192 symmetry adapted cartesian basis functions of A   symmetry.
 There are   172 symmetry adapted basis functions of A   symmetry.
   172 basis functions,   268 primitive gaussians,   192 cartesian basis functions
    17 alpha electrons       17 beta electrons
       nuclear repulsion energy       134.9565249593 Hartrees.
 IExCor= 1009 DFT=T Ex+Corr=PBE1PBE ExCW=0 ScaHFX=  0.250000
 ScaDFX=  0.750000  0.750000  1.000000  1.000000 ScalE2=  1.000000  1.000000
 IRadAn=      7 IRanWt=     -1 IRanGd=            0 ICorTp=0 IEmpDi=131
 NAtoms=   12 NActive=   12 NUniq=   12 SFac= 1.00D+00 NAtFMM=   60 NAOKFM=F Big=F
 Integral buffers will be    131072 words long.
 Raffenetti 2 integral format.
 Two-electron integral symmetry is turned on.
 R6Disp:  Grimme-D3 Dispersion energy=       -0.0035477407 Hartrees.
 Nuclear repulsion after empirical dispersion term =      134.9529772186 Hartrees.
 ------------------------------------------------------------------------------
 Polarizable Continuum Model (PCM)
 =================================
 Model                : PCM.
 Atomic radii         : UFF (Universal Force Field).
 Polarization charges : Total charges.
 Charge compensation  : None.
 Solution method      : On-the-fly selection.
 Cavity type          : Scaled VdW (van der Waals Surface) (Alpha=1.100).
 Cavity algorithm     : GePol (No added spheres)
                        Default sphere list used, NSphG=   12.
                        Lebedev-Laikov grids with approx.  5.0 points / Ang**2.
                        Smoothing algorithm: York/Karplus (Gamma=1.0000).
                        Polarization charges: spherical gaussians, with
                                              point-specific exponents (IZeta= 3).
                        Self-potential: point-specific (ISelfS= 7).
                        Self-field    : sphere-specific E.n sum rule (ISelfD= 2).
 Solvent              : Chloroform, Eps=   4.711300 Eps(inf)=   2.090627
 ------------------------------------------------------------------------------
 Spheres list:
 ISph  on   Nord     Re0    Alpha      Xe            Ye            Ze
    1   C      1    1.9255  1.100      0.726573      0.580760      0.315576
    2   C      2    1.9255  1.100     -0.687108      0.614822     -0.286409
    3   N      3    1.8300  1.100      1.516238     -0.565022     -0.090041
    4   N      4    1.8300  1.100     -1.395162     -0.602517      0.081956
    5   H      5    1.4430  1.100      1.651834     -0.548515     -1.096502
    6   H      6    1.4430  1.100      0.992525     -1.409003      0.122829
    7   H      7    1.4430  1.100     -1.509090     -0.645361      1.090155
    8   H      8    1.4430  1.100     -2.319186     -0.618636     -0.335055
    9   H      9    1.4430  1.100     -0.616803      0.636153     -1.378826
   10   H     10    1.4430  1.100     -1.195541      1.538069      0.040011
   11   H     11    1.4430  1.100      0.649655      0.556064      1.407141
   12   H     12    1.4430  1.100      1.262285      1.490506      0.031844
 ------------------------------------------------------------------------------
 GePol: Number of generator spheres                  =      12
 GePol: Total number of spheres                      =      12
 GePol: Number of exposed spheres                    =      12 (100.00%)
 GePol: Number of points                             =     955
 GePol: Average weight of points                     =       0.14
 GePol: Minimum weight of points                     =   0.12D-10
 GePol: Maximum weight of points                     =    0.20299
 GePol: Number of points with low weight             =      49
 GePol: Fraction of low-weight points (<1% of avg)   =       5.13%
 GePol: Cavity surface area                          =    129.963 Ang**2
 GePol: Cavity volume                                =    114.809 Ang**3
 Leave Link  301 at Mon Oct 18 11:33:32 2021, MaxMem=  7864320000 cpu:               1.1 elap:               0.0
 (Enter /apps/gaussian/g16-c01-avx/g16/l302.exe)
 NPDir=0 NMtPBC=     1 NCelOv=     1 NCel=       1 NClECP=     1 NCelD=      1
         NCelK=      1 NCelE2=     1 NClLst=     1 CellRange=     0.0.
 One-electron integrals computed using PRISM.
 One-electron integral symmetry used in STVInt
   1 Symmetry operations used in ECPInt.
 ECPInt:  NShTT=    2926 NPrTT=    8368 LenC2=    2916 LenP2D=    7250.
 LDataN:  DoStor=T MaxTD1= 6 Len=  172
 NBasis=   172 RedAO= T EigKep=  3.67D-04  NBF=   172
 NBsUse=   172 1.00D-06 EigRej= -1.00D+00 NBFU=   172
 Precomputing XC quadrature grid using
 IXCGrd= 4 IRadAn=           7 IRanWt=          -1 IRanGd=           0 AccXCQ= 0.00D+00.
 Generated NRdTot=       0 NPtTot=           0 NUsed=           0 NTot=          32
 NSgBfM=   192   192   192   192   192 MxSgAt=    12 MxSgA2=    12.
 Leave Link  302 at Mon Oct 18 11:33:33 2021, MaxMem=  7864320000 cpu:               5.6 elap:               0.2
 (Enter /apps/gaussian/g16-c01-avx/g16/l303.exe)
 DipDrv:  MaxL=1.
 Leave Link  303 at Mon Oct 18 11:33:33 2021, MaxMem=  7864320000 cpu:               0.6 elap:               0.0
 (Enter /apps/gaussian/g16-c01-avx/g16/l401.exe)
 ExpMin= 9.52D-02 ExpMax= 1.97D+04 ExpMxC= 6.73D+02 IAcc=3 IRadAn=         7 AccDes= 0.00D+00
 Harris functional with IExCor= 1009 and IRadAn=       7 diagonalized for initial guess.
 HarFok:  IExCor= 1009 AccDes= 0.00D+00 IRadAn=         7 IDoV= 1 UseB2=F ITyADJ=14
 ICtDFT=  3500011 ScaDFX=  1.000000  1.000000  1.000000  1.000000
 FoFCou: FMM=F IPFlag=           0 FMFlag=      100000 FMFlg1=           0
         NFxFlg=           0 DoJE=T BraDBF=F KetDBF=T FulRan=T
         wScrn=  0.000000 ICntrl=       500 IOpCl=  0 I1Cent=   200000004 NGrid=           0
         NMat0=    1 NMatS0=      1 NMatT0=    0 NMatD0=    1 NMtDS0=    0 NMtDT0=    0
 Petite list used in FoFCou.
 Harris En= -190.451953916060    
 JPrj=0 DoOrth=F DoCkMO=F.
 Leave Link  401 at Mon Oct 18 11:33:34 2021, MaxMem=  7864320000 cpu:              23.5 elap:               0.8
 (Enter /apps/gaussian/g16-c01-avx/g16/l508.exe)
 Keep R1 ints in memory in canonical form, NReq=143519325.
 FoFCou: FMM=F IPFlag=           0 FMFlag=           0 FMFlg1=           0
         NFxFlg=           0 DoJE=F BraDBF=F KetDBF=F FulRan=T
         wScrn=  0.000000 ICntrl=       600 IOpCl=  0 I1Cent=           0 NGrid=           0
         NMat0=    1 NMatS0=  14878 NMatT0=    0 NMatD0=    1 NMtDS0=    0 NMtDT0=    0
 Symmetry not used in FoFCou.
 Two-electron integral symmetry not used.
 Tight linear equation convergence will be used.
 RPBE1PBE wavefunction.
 Linear searches until partial convergence.
 Full line searches.
 Inv3:  Mode=1 IEnd=     2736075.
 Iteration    1 A*A^-1 deviation from unit magnitude is 3.33D-15 for    498.
 Iteration    1 A*A^-1 deviation from orthogonality  is 2.07D-15 for    949     84.
 Iteration    1 A^-1*A deviation from unit magnitude is 3.33D-15 for    942.
 Iteration    1 A^-1*A deviation from orthogonality  is 1.26D-15 for    939    284.
 Iteration   1 EE= -190.222509946575                                    Grad=6.028D-01 Max rot=    2.9081 deg.
 Gradient too large for Newton-Raphson -- use scaled steepest descent instead.
 Alpha Gap=     0.206 HL deriv= 5.70D-02
     ILin= 1 X=0.000D+00 Y=-1.902225099466D+02 DE= 0.00D+00 F= -7.53D-01
     ILin= 2 X=3.000D-01 Y=-1.903627575987D+02 DE=-1.40D-01 F= -1.78D-01 OKLS=F
     ILin= 3 X=5.000D-01 Y=-1.903590772901D+02 DE=-1.37D-01 F=  2.15D-01
     An  expanding polynomial of degree  3 produced  0.3905
 Iteration   2 EE= -190.370829583214     Delta-E=       -0.148319636640 Grad=1.465D-01 Max rot=    1.4197 deg.
 Gradient too large for Newton-Raphson -- use scaled steepest descent instead.
 Alpha Gap=     0.307 HL deriv= 4.87D-03
     ILin= 1 X=0.000D+00 Y=-1.903708295832D+02 DE= 0.00D+00 F= -1.54D-02
     ILin= 2 X=3.000D-01 Y=-1.903743762256D+02 DE=-3.55D-03 F= -8.21D-03 OKLS=F
     ILin= 3 X=7.000D-01 Y=-1.903757382883D+02 DE=-4.91D-03 F=  1.40D-03
     Accept linear search using points  2 and  3.
     An  expanding polynomial of degree  3 produced  0.5181
 Iteration   3 EE= -190.375595609513     Delta-E=       -0.004766026299 Grad=6.222D-02 Max rot=    0.6043 deg.
 Gradient too large for Newton-Raphson -- use scaled steepest descent instead.
 Alpha Gap=     0.301 HL deriv= 9.11D-04
     ILin= 1 X=0.000D+00 Y=-1.903755956095D+02 DE= 0.00D+00 F= -2.06D-03
     ILin= 2 X=4.000D-01 Y=-1.903761873471D+02 DE=-5.92D-04 F= -8.98D-04 OKLS=F
     ILin= 3 X=9.000D-01 Y=-1.903762727177D+02 DE=-6.77D-04 F=  5.56D-04
     Accept linear search using points  2 and  3.
     An  expanding polynomial of degree  3 produced  0.6650
 Iteration   4 EE= -190.376323157387     Delta-E=       -0.000727547873 Grad=2.206D-02 Max rot=    0.2084 deg.
 Gradient too large for Newton-Raphson -- use scaled steepest descent instead.
 Alpha Gap=     0.305 HL deriv= 1.10D-03
     ILin= 1 X=0.000D+00 Y=-1.903763231574D+02 DE= 0.00D+00 F= -3.83D-04
     ILin= 2 X=6.000D-01 Y=-1.903764161272D+02 DE=-9.30D-05 F=  7.33D-05 OKLS=T
     Accept linear search using points  1 and  2.
     An  expanding polynomial of degree  2 produced  0.4003
 Iteration   5 EE= -190.376415603415     Delta-E=       -0.000092446028 Grad=1.128D-02 Max rot=    0.1076 deg.
 Gradient too large for Newton-Raphson -- use scaled steepest descent instead.
 Alpha Gap=     0.304 HL deriv= 3.73D-04
     ILin= 1 X=0.000D+00 Y=-1.903764156034D+02 DE= 0.00D+00 F= -5.53D-05
     ILin= 2 X=5.000D-01 Y=-1.903764364606D+02 DE=-2.09D-05 F= -2.81D-05 OKLS=F
     ILin= 3 X=1.000D+00 Y=-1.903764437157D+02 DE=-2.81D-05 F= -9.07D-07
     Reject lnstep IMin12=  2  3 Big=T Turn=F Min= 1.117D+00 FVal=-1.903764438609D+02 Lims=  5.00D-01  1.00D+00
     ILin= 4 X=2.100D+00 Y=-1.903764117853D+02 DE= 3.82D-06 F=  5.90D-05
     An  expanding polynomial of degree  4 produced  1.0167
     Minimum is close to point  3 DX=  1.67D-02 DF= -7.55D-09 DXR=  1.64D-02 DFR=  2.69D-04 which will be used.
 Iteration   6 EE= -190.376443715738     Delta-E=       -0.000028112323 Grad=1.109D-03 Max rot=    0.0074 deg.
 SCF Done:  E(RPBE1PBE) =  -190.376443716     a.u. after    6 cycles
            Convg  =    0.1109D-02                    15 Fock formations.
              S**2 =  0.0000                  -V/T =  2.0050
 Leave Link  508 at Mon Oct 18 11:33:49 2021, MaxMem=  7864320000 cpu:             418.1 elap:              14.8
 (Enter /apps/gaussian/g16-c01-avx/g16/l502.exe)
 Keep R1 ints in memory in canonical form, NReq=143518925.
 FoFCou: FMM=F IPFlag=           0 FMFlag=           0 FMFlg1=           0
         NFxFlg=           0 DoJE=F BraDBF=F KetDBF=F FulRan=T
         wScrn=  0.000000 ICntrl=       600 IOpCl=  0 I1Cent=           0 NGrid=           0
         NMat0=    1 NMatS0=  14878 NMatT0=    0 NMatD0=    1 NMtDS0=    0 NMtDT0=    0
 Symmetry not used in FoFCou.
 Two-electron integral symmetry not used.
 Closed shell SCF:
 Using DIIS extrapolation, IDIIS=  1040.
 NGot=  7864320000 LenX=  7753553033 LenY=  7753515728
 Requested convergence on RMS density matrix=1.00D-08 within 128 cycles.
 Requested convergence on MAX density matrix=1.00D-06.
 Requested convergence on             energy=1.00D-06.
 No special actions if energy rises.

 Cycle   1  Pass 1  IDiag  1:
 E= -190.376443715738    
 DIIS: error= 4.25D-05 at cycle   1 NSaved=   1.
 NSaved= 1 IEnMin= 1 EnMin= -190.376443715738     IErMin= 1 ErrMin= 4.25D-05
 ErrMax= 4.25D-05  0.00D+00 EMaxC= 1.00D-01 BMatC= 6.15D-07 BMatP= 6.15D-07
 IDIUse=1 WtCom= 1.00D+00 WtEn= 0.00D+00
 Coeff-Com:  0.100D+01
 Coeff:      0.100D+01
 Gap=     0.304 Goal=   None    Shift=    0.000
 RMSDP=1.74D-05 MaxDP=3.20D-04              OVMax= 3.75D-04

 Cycle   2  Pass 1  IDiag  1:
 E= -190.376443846950     Delta-E=       -0.000000131212 Rises=F Damp=F
 DIIS: error= 5.43D-05 at cycle   2 NSaved=   2.
 NSaved= 2 IEnMin= 2 EnMin= -190.376443846950     IErMin= 1 ErrMin= 4.25D-05
 ErrMax= 5.43D-05  0.00D+00 EMaxC= 1.00D-01 BMatC= 6.76D-07 BMatP= 6.15D-07
 IDIUse=1 WtCom= 1.00D+00 WtEn= 0.00D+00
 Coeff-Com:  0.514D+00 0.486D+00
 Coeff:      0.514D+00 0.486D+00
 Gap=     0.290 Goal=   None    Shift=    0.000
 RMSDP=3.45D-06 MaxDP=8.88D-05 DE=-1.31D-07 OVMax= 1.73D-04

 Cycle   3  Pass 1  IDiag  1:
 E= -190.376444364511     Delta-E=       -0.000000517562 Rises=F Damp=F
 DIIS: error= 9.72D-06 at cycle   3 NSaved=   3.
 NSaved= 3 IEnMin= 3 EnMin= -190.376444364511     IErMin= 3 ErrMin= 9.72D-06
 ErrMax= 9.72D-06  0.00D+00 EMaxC= 1.00D-01 BMatC= 1.75D-08 BMatP= 6.15D-07
 IDIUse=1 WtCom= 1.00D+00 WtEn= 0.00D+00
 Coeff-Com: -0.550D-02 0.131D+00 0.874D+00
 Coeff:     -0.550D-02 0.131D+00 0.874D+00
 Gap=     0.290 Goal=   None    Shift=    0.000
 RMSDP=1.22D-06 MaxDP=2.42D-05 DE=-5.18D-07 OVMax= 3.82D-05

 Cycle   4  Pass 1  IDiag  1:
 E= -190.376444379967     Delta-E=       -0.000000015456 Rises=F Damp=F
 DIIS: error= 8.12D-07 at cycle   4 NSaved=   4.
 NSaved= 4 IEnMin= 4 EnMin= -190.376444379967     IErMin= 4 ErrMin= 8.12D-07
 ErrMax= 8.12D-07  0.00D+00 EMaxC= 1.00D-01 BMatC= 2.37D-10 BMatP= 1.75D-08
 IDIUse=1 WtCom= 1.00D+00 WtEn= 0.00D+00
 Coeff-Com: -0.823D-02 0.186D-01 0.196D+00 0.794D+00
 Coeff:     -0.823D-02 0.186D-01 0.196D+00 0.794D+00
 Gap=     0.290 Goal=   None    Shift=    0.000
 RMSDP=1.86D-07 MaxDP=3.60D-06 DE=-1.55D-08 OVMax= 5.21D-06

 Cycle   5  Pass 1  IDiag  1:
 E= -190.376444380173     Delta-E=       -0.000000000206 Rises=F Damp=F
 DIIS: error= 3.74D-07 at cycle   5 NSaved=   5.
 NSaved= 5 IEnMin= 5 EnMin= -190.376444380173     IErMin= 5 ErrMin= 3.74D-07
 ErrMax= 3.74D-07  0.00D+00 EMaxC= 1.00D-01 BMatC= 4.06D-11 BMatP= 2.37D-10
 IDIUse=1 WtCom= 1.00D+00 WtEn= 0.00D+00
 Coeff-Com: -0.282D-02-0.365D-02 0.106D-01 0.303D+00 0.693D+00
 Coeff:     -0.282D-02-0.365D-02 0.106D-01 0.303D+00 0.693D+00
 Gap=     0.290 Goal=   None    Shift=    0.000
 RMSDP=4.77D-08 MaxDP=9.34D-07 DE=-2.06D-10 OVMax= 1.89D-06

 Cycle   6  Pass 1  IDiag  1:
 E= -190.376444380210     Delta-E=       -0.000000000037 Rises=F Damp=F
 DIIS: error= 1.42D-07 at cycle   6 NSaved=   6.
 NSaved= 6 IEnMin= 6 EnMin= -190.376444380210     IErMin= 6 ErrMin= 1.42D-07
 ErrMax= 1.42D-07  0.00D+00 EMaxC= 1.00D-01 BMatC= 4.74D-12 BMatP= 4.06D-11
 IDIUse=1 WtCom= 1.00D+00 WtEn= 0.00D+00
 Coeff-Com: -0.520D-03-0.325D-02-0.112D-01 0.659D-01 0.317D+00 0.632D+00
 Coeff:     -0.520D-03-0.325D-02-0.112D-01 0.659D-01 0.317D+00 0.632D+00
 Gap=     0.290 Goal=   None    Shift=    0.000
 RMSDP=1.39D-08 MaxDP=2.84D-07 DE=-3.74D-11 OVMax= 4.82D-07

 Cycle   7  Pass 1  IDiag  1:
 E= -190.376444380215     Delta-E=       -0.000000000005 Rises=F Damp=F
 DIIS: error= 1.47D-08 at cycle   7 NSaved=   7.
 NSaved= 7 IEnMin= 7 EnMin= -190.376444380215     IErMin= 7 ErrMin= 1.47D-08
 ErrMax= 1.47D-08  0.00D+00 EMaxC= 1.00D-01 BMatC= 6.03D-14 BMatP= 4.74D-12
 IDIUse=1 WtCom= 1.00D+00 WtEn= 0.00D+00
 Coeff-Com:  0.146D-04-0.554D-03-0.290D-02 0.830D-03 0.437D-01 0.126D+00
 Coeff-Com:  0.833D+00
 Coeff:      0.146D-04-0.554D-03-0.290D-02 0.830D-03 0.437D-01 0.126D+00
 Coeff:      0.833D+00
 Gap=     0.290 Goal=   None    Shift=    0.000
 RMSDP=2.49D-09 MaxDP=4.28D-08 DE=-4.95D-12 OVMax= 1.22D-07

 Error on total polarization charges =  0.00829
 SCF Done:  E(RPBE1PBE) =  -190.376444380     A.U. after    7 cycles
            NFock=  7  Conv=0.25D-08     -V/T= 2.0050
 KE= 1.894248802810D+02 PE=-7.133918587104D+02 EE= 1.986375568306D+02
 Leave Link  502 at Mon Oct 18 11:33:56 2021, MaxMem=  7864320000 cpu:             197.5 elap:               6.9
 (Enter /apps/gaussian/g16-c01-avx/g16/l508.exe)
 QCSCF skips out because SCF is already converged.
 Leave Link  508 at Mon Oct 18 11:33:56 2021, MaxMem=  7864320000 cpu:               0.1 elap:               0.0
 (Enter /apps/gaussian/g16-c01-avx/g16/l601.exe)
 Copying SCF densities to generalized density rwf, IOpCl= 0 IROHF=0.

 **********************************************************************

            Population analysis using the SCF Density.

 **********************************************************************

 Orbital symmetries:
       Occupied  (A) (A) (A) (A) (A) (A) (A) (A) (A) (A) (A) (A)
                 (A) (A) (A) (A) (A)
       Virtual   (A) (A) (A) (A) (A) (A) (A) (A) (A) (A) (A) (A)
                 (A) (A) (A) (A) (A) (A) (A) (A) (A) (A) (A) (A)
                 (A) (A) (A) (A) (A) (A) (A) (A) (A) (A) (A) (A)
                 (A) (A) (A) (A) (A) (A) (A) (A) (A) (A) (A) (A)
                 (A) (A) (A) (A) (A) (A) (A) (A) (A) (A) (A) (A)
                 (A) (A) (A) (A) (A) (A) (A) (A) (A) (A) (A) (A)
                 (A) (A) (A) (A) (A) (A) (A) (A) (A) (A) (A) (A)
                 (A) (A) (A) (A) (A) (A) (A) (A) (A) (A) (A) (A)
                 (A) (A) (A) (A) (A) (A) (A) (A) (A) (A) (A) (A)
                 (A) (A) (A) (A) (A) (A) (A) (A) (A) (A) (A) (A)
                 (A) (A) (A) (A) (A) (A) (A) (A) (A) (A) (A) (A)
                 (A) (A) (A) (A) (A) (A) (A) (A) (A) (A) (A) (A)
                 (A) (A) (A) (A) (A) (A) (A) (A) (A) (A) (A)
 The electronic state is 1-A.
 Alpha  occ. eigenvalues --  -14.36104 -14.35248 -10.23698 -10.23627  -0.92325
 Alpha  occ. eigenvalues --   -0.88485  -0.71910  -0.61571  -0.52320  -0.49143
 Alpha  occ. eigenvalues --   -0.46925  -0.42871  -0.41615  -0.37608  -0.35661
 Alpha  occ. eigenvalues --   -0.25867  -0.24850
 Alpha virt. eigenvalues --    0.04196   0.07286   0.08441   0.08803   0.12499
 Alpha virt. eigenvalues --    0.13514   0.14241   0.15220   0.16898   0.19737
 Alpha virt. eigenvalues --    0.22371   0.24688   0.28322   0.29490   0.32713
 Alpha virt. eigenvalues --    0.32930   0.35888   0.36929   0.39254   0.40938
 Alpha virt. eigenvalues --    0.43185   0.44365   0.45037   0.45787   0.47644
 Alpha virt. eigenvalues --    0.49936   0.50959   0.52945   0.53888   0.54935
 Alpha virt. eigenvalues --    0.56165   0.57586   0.64167   0.67349   0.72973
 Alpha virt. eigenvalues --    0.75289   0.77959   0.85817   0.86298   0.91184
 Alpha virt. eigenvalues --    1.02436   1.05679   1.09239   1.13181   1.14479
 Alpha virt. eigenvalues --    1.20147   1.22029   1.28158   1.31047   1.32128
 Alpha virt. eigenvalues --    1.35754   1.39246   1.42664   1.44378   1.45136
 Alpha virt. eigenvalues --    1.53815   1.57250   1.59888   1.63631   1.68455
 Alpha virt. eigenvalues --    1.71404   1.72421   1.73207   1.79639   1.83661
 Alpha virt. eigenvalues --    1.89142   1.93146   1.94003   1.96421   1.97847
 Alpha virt. eigenvalues --    2.01508   2.02984   2.04954   2.05916   2.07972
 Alpha virt. eigenvalues --    2.10816   2.15403   2.27027   2.31528   2.32595
 Alpha virt. eigenvalues --    2.36150   2.41928   2.43886   2.47319   2.49940
 Alpha virt. eigenvalues --    2.53234   2.56884   2.63183   2.63644   2.64421
 Alpha virt. eigenvalues --    2.67149   2.68434   2.73480   2.76311   2.78217
 Alpha virt. eigenvalues --    2.81936   2.86676   2.90929   2.99091   2.99790
 Alpha virt. eigenvalues --    3.05518   3.12281   3.14019   3.14810   3.20244
 Alpha virt. eigenvalues --    3.21522   3.24510   3.30942   3.32874   3.33887
 Alpha virt. eigenvalues --    3.36973   3.43941   3.45788   3.67113   3.76817
 Alpha virt. eigenvalues --    3.77970   3.79612   3.83568   3.87178   3.95940
 Alpha virt. eigenvalues --    3.96312   4.04432   4.10636   4.21836   4.27518
 Alpha virt. eigenvalues --    4.36723   4.37926   4.38650   4.46492   4.54449
 Alpha virt. eigenvalues --    4.61453   4.72099   4.76496   4.81719   4.86063
 Alpha virt. eigenvalues --    4.87212   4.88518   4.91853   5.01418   5.07883
 Alpha virt. eigenvalues --    5.09601   5.13812   5.17715   5.22543   5.24841
 Alpha virt. eigenvalues --    5.29714   5.32393   5.53819   5.54685   5.80626
 Alpha virt. eigenvalues --    5.82799  22.48382  22.55011  31.94680  32.05135
          Condensed to atoms (all electrons):
               1          2          3          4          5          6
     1  C    4.843698   0.414141   0.313668  -0.061549  -0.057040  -0.058443
     2  C    0.414141   4.873487  -0.076994   0.293242   0.000095  -0.008417
     3  N    0.313668  -0.076994   6.613593  -0.013719   0.370096   0.379423
     4  N   -0.061549   0.293242  -0.013719   6.691684   0.000617   0.024254
     5  H   -0.057040   0.000095   0.370096   0.000617   0.487063  -0.031039
     6  H   -0.058443  -0.008417   0.379423   0.024254  -0.031039   0.463767
     7  H   -0.004410  -0.041523   0.001141   0.359485   0.000134  -0.000740
     8  H    0.008308  -0.027423  -0.000143   0.360347  -0.000089  -0.000978
     9  H   -0.023682   0.395662  -0.000008  -0.043419   0.004533  -0.001481
    10  H   -0.060162   0.408800   0.012522  -0.050400   0.000515   0.001474
    11  H    0.401050  -0.057147  -0.038970  -0.005803   0.010123  -0.006263
    12  H    0.397625  -0.047318  -0.025612   0.007619  -0.006512   0.009541
               7          8          9         10         11         12
     1  C   -0.004410   0.008308  -0.023682  -0.060162   0.401050   0.397625
     2  C   -0.041523  -0.027423   0.395662   0.408800  -0.057147  -0.047318
     3  N    0.001141  -0.000143  -0.000008   0.012522  -0.038970  -0.025612
     4  N    0.359485   0.360347  -0.043419  -0.050400  -0.005803   0.007619
     5  H    0.000134  -0.000089   0.004533   0.000515   0.010123  -0.006512
     6  H   -0.000740  -0.000978  -0.001481   0.001474  -0.006263   0.009541
     7  H    0.474049  -0.030993   0.009762  -0.006628   0.006910  -0.000050
     8  H   -0.030993   0.469948  -0.006612  -0.005829  -0.000110  -0.000696
     9  H    0.009762  -0.006612   0.593391  -0.037400   0.008893  -0.003902
    10  H   -0.006628  -0.005829  -0.037400   0.642998  -0.003282   0.005031
    11  H    0.006910  -0.000110   0.008893  -0.003282   0.594609  -0.019687
    12  H   -0.000050  -0.000696  -0.003902   0.005031  -0.019687   0.570640
 Mulliken charges:
               1
     1  C   -0.113204
     2  C   -0.126605
     3  N   -0.534996
     4  N   -0.562360
     5  H    0.221506
     6  H    0.228902
     7  H    0.232864
     8  H    0.234270
     9  H    0.104264
    10  H    0.092360
    11  H    0.109677
    12  H    0.113322
 Sum of Mulliken charges =   0.00000
 Mulliken charges with hydrogens summed into heavy atoms:
               1
     1  C    0.109795
     2  C    0.070020
     3  N   -0.084588
     4  N   -0.095226
 Electronic spatial extent (au):  <R**2>=            330.5962
 Charge=              0.0000 electrons
 Dipole moment (field-independent basis, Debye):
    X=             -2.3767    Y=              0.9639    Z=             -0.3149  Tot=              2.5840
 Quadrupole moment (field-independent basis, Debye-Ang):
   XX=            -28.4637   YY=            -27.4395   ZZ=            -23.8954
   XY=              0.9468   XZ=             -2.6438   YZ=             -0.3916
 Traceless Quadrupole moment (field-independent basis, Debye-Ang):
   XX=             -1.8641   YY=             -0.8400   ZZ=              2.7041
   XY=              0.9468   XZ=             -2.6438   YZ=             -0.3916
 Octapole moment (field-independent basis, Debye-Ang**2):
  XXX=            -25.3978  YYY=             -1.2602  ZZZ=             -0.2780  XYY=              2.0091
  XXY=              1.0179  XXZ=             -4.9680  XZZ=             -0.7280  YZZ=             -2.0816
  YYZ=              0.5072  XYZ=              1.5760
 Hexadecapole moment (field-independent basis, Debye-Ang**3):
 XXXX=           -270.8770 YYYY=           -110.2038 ZZZZ=            -52.8505 XXXY=             17.9175
 XXXZ=             -8.0064 YYYX=             -3.1556 YYYZ=             -1.2159 ZZZX=             -7.2884
 ZZZY=             -0.7251 XXYY=            -63.3566 XXZZ=            -47.3867 YYZZ=            -28.5269
 XXYZ=              1.8644 YYXZ=             -3.0150 ZZXY=              0.7502
 N-N= 1.349529772186D+02 E-N=-7.133918590253D+02  KE= 1.894248802810D+02
 No NMR shielding tensors so no spin-rotation constants.
 Leave Link  601 at Mon Oct 18 11:33:56 2021, MaxMem=  7864320000 cpu:               2.5 elap:               0.1
 (Enter /apps/gaussian/g16-c01-avx/g16/l9999.exe)
 Unable to Open any file for archive entry.
 1\1\GINC-CX3-5-11\SP\RPBE1PBE\def2TZVP\C2H8N2\ATARZIA\18-Oct-2021\0\\#
 P PBE1PBE/Def2TZVP SP SCF=(YQC,MaxCycle=900) int=(Grid=Superfinegrid) 
 EmpiricalDispersion=GD3 SCRF=(PCM,Solvent=Chloroform)\\_ami4_opt_cfm\\
 0,1\C,0,-0.7407,0.9871,0.4942\C,0,0.6799,0.4539,0.25\N,0,-1.2498,1.827
 6,-0.5713\N,0,1.5872,1.5758,0.0574\H,0,-1.3069,1.292,-1.4324\H,0,-0.58
 54,2.5784,-0.7349\H,0,1.6283,2.1371,0.9027\H,0,2.5253,1.2467,-0.1417\H
 ,0,0.6923,-0.1402,-0.6696\H,0,0.9653,-0.2071,1.0861\H,0,-0.7459,1.5827
 ,1.4125\H,0,-1.4245,0.145,0.6299\\Version=ES64L-G16RevC.01\State=1-A\H
 F=-190.3764444\RMSD=2.486e-09\Dipole=0.8465063,-0.5033475,0.2521366\Qu
 adrupole=-1.3671721,-0.0431613,1.4103333,1.6014571,1.0180537,1.4453255
 \PG=C01 [X(C2H8N2)]\\@
 The archive entry for this job was punched.


 LOGIC IS A SYSTEMATIC METHOD OF COMING TO THE
 WRONG CONCLUSION WITH CONFIDENCE.
 Job cpu time:       0 days  0 hours 10 minutes 56.5 seconds.
 Elapsed time:       0 days  0 hours  0 minutes 23.1 seconds.
 File lengths (MBytes):  RWF=    152 Int=      0 D2E=      0 Chk=     16 Scr=     16
 Normal termination of Gaussian 16 at Mon Oct 18 11:33:56 2021.
