 Entering Gaussian System, Link 0=g16
 Initial command:
 /apps/gaussian/g16-c01-avx/g16/l1.exe "/rds/general/ephemeral/user/atarzia/ephemeral/xtb_spe_DFT/Gau-604536.inp" -scrdir="/rds/general/ephemeral/user/atarzia/ephemeral/xtb_spe_DFT/"
 Entering Link 1 = /apps/gaussian/g16-c01-avx/g16/l1.exe PID=    604537.
  
 Copyright (c) 1988-2019, Gaussian, Inc.  All Rights Reserved.
  
 This is part of the Gaussian(R) 16 program.  It is based on
 the Gaussian(R) 09 system (copyright 2009, Gaussian, Inc.),
 the Gaussian(R) 03 system (copyright 2003, Gaussian, Inc.),
 the Gaussian(R) 98 system (copyright 1998, Gaussian, Inc.),
 the Gaussian(R) 94 system (copyright 1995, Gaussian, Inc.),
 the Gaussian 92(TM) system (copyright 1992, Gaussian, Inc.),
 the Gaussian 90(TM) system (copyright 1990, Gaussian, Inc.),
 the Gaussian 88(TM) system (copyright 1988, Gaussian, Inc.),
 the Gaussian 86(TM) system (copyright 1986, Carnegie Mellon
 University), and the Gaussian 82(TM) system (copyright 1983,
 Carnegie Mellon University). Gaussian is a federally registered
 trademark of Gaussian, Inc.
  
 This software contains proprietary and confidential information,
 including trade secrets, belonging to Gaussian, Inc.
  
 This software is provided under written license and may be
 used, copied, transmitted, or stored only in accord with that
 written license.
  
 The following legend is applicable only to US Government
 contracts under FAR:
  
                    RESTRICTED RIGHTS LEGEND
  
 Use, reproduction and disclosure by the US Government is
 subject to restrictions as set forth in subparagraphs (a)
 and (c) of the Commercial Computer Software - Restricted
 Rights clause in FAR 52.227-19.
  
 Gaussian, Inc.
 340 Quinnipiac St., Bldg. 40, Wallingford CT 06492
  
  
 ---------------------------------------------------------------
 Warning -- This program may not be used in any manner that
 competes with the business of Gaussian, Inc. or will provide
 assistance to any competitor of Gaussian, Inc.  The licensee
 of this program is prohibited from giving any competitor of
 Gaussian, Inc. access to this program.  By using this program,
 the user acknowledges that Gaussian, Inc. is engaged in the
 business of creating and licensing software in the field of
 computational chemistry and represents and warrants to the
 licensee that it is not a competitor of Gaussian, Inc. and that
 it will not use this program in any manner prohibited above.
 ---------------------------------------------------------------
  

 Cite this work as:
 Gaussian 16, Revision C.01,
 M. J. Frisch, G. W. Trucks, H. B. Schlegel, G. E. Scuseria, 
 M. A. Robb, J. R. Cheeseman, G. Scalmani, V. Barone, 
 G. A. Petersson, H. Nakatsuji, X. Li, M. Caricato, A. V. Marenich, 
 J. Bloino, B. G. Janesko, R. Gomperts, B. Mennucci, H. P. Hratchian, 
 J. V. Ortiz, A. F. Izmaylov, J. L. Sonnenberg, D. Williams-Young, 
 F. Ding, F. Lipparini, F. Egidi, J. Goings, B. Peng, A. Petrone, 
 T. Henderson, D. Ranasinghe, V. G. Zakrzewski, J. Gao, N. Rega, 
 G. Zheng, W. Liang, M. Hada, M. Ehara, K. Toyota, R. Fukuda, 
 J. Hasegawa, M. Ishida, T. Nakajima, Y. Honda, O. Kitao, H. Nakai, 
 T. Vreven, K. Throssell, J. A. Montgomery, Jr., J. E. Peralta, 
 F. Ogliaro, M. J. Bearpark, J. J. Heyd, E. N. Brothers, K. N. Kudin, 
 V. N. Staroverov, T. A. Keith, R. Kobayashi, J. Normand, 
 K. Raghavachari, A. P. Rendell, J. C. Burant, S. S. Iyengar, 
 J. Tomasi, M. Cossi, J. M. Millam, M. Klene, C. Adamo, R. Cammi, 
 J. W. Ochterski, R. L. Martin, K. Morokuma, O. Farkas, 
 J. B. Foresman, and D. J. Fox, Gaussian, Inc., Wallingford CT, 2019.
 
 ******************************************
 Gaussian 16:  ES64L-G16RevC.01  3-Jul-2019
                 1-Nov-2021 
 ******************************************
 %chk=_water_opt_dcm_mp2.chk
 %mem=60000mb
 %nprocshared=32
 Will use up to   32 processors via shared memory.
 ----------------------------------------------------------------------
 #P MP2/aug-cc-pVDZ SP SCF=(YQC,MaxCycle=900) int=(Grid=Superfinegrid) 
 SCRF=(PCM,Solvent=Dichloromethane)
 ----------------------------------------------------------------------
 1/38=1,172=1/1;
 2/12=2,17=6,18=5,40=1/2;
 3/5=16,7=10,11=9,25=1,30=1,70=2201,72=9,75=-7/1,2,3;
 4//1;
 5/5=2,7=900,8=4,13=1,38=1,53=9/8,2,8;
 8/10=1/1;
 9/16=-3/6;
 6/7=2,8=2,9=2,10=2/1;
 99/5=1,9=1/99;
 Leave Link    1 at Mon Nov  1 18:11:38 2021, MaxMem=  7864320000 cpu:               8.2 elap:               0.3
 (Enter /apps/gaussian/g16-c01-avx/g16/l101.exe)
 ------------------
 _water_opt_dcm_mp2
 ------------------
 Symbolic Z-matrix:
 Charge =  0 Multiplicity = 1
 O                    -0.9841    0.6351   -0.004 
 H                    -0.0251    0.6464    0.0112 
 H                    -1.286     1.1785    0.7265 
 
 ITRead=  0  0  0
 MicOpt= -1 -1 -1
 NAtoms=      3 NQM=        3 NQMF=       0 NMMI=      0 NMMIF=      0
                NMic=       0 NMicF=      0.
                    Isotopes and Nuclear Properties:
 (Nuclear quadrupole moments (NQMom) in fm**2, nuclear magnetic moments (NMagM)
  in nuclear magnetons)

  Atom         1           2           3
 IAtWgt=          16           1           1
 AtmWgt=  15.9949146   1.0078250   1.0078250
 NucSpn=           0           1           1
 AtZEff=  -0.0000000  -0.0000000  -0.0000000
 NQMom=    0.0000000   0.0000000   0.0000000
 NMagM=    0.0000000   2.7928460   2.7928460
 AtZNuc=   8.0000000   1.0000000   1.0000000
 Leave Link  101 at Mon Nov  1 18:11:39 2021, MaxMem=  7864320000 cpu:               5.8 elap:               0.2
 (Enter /apps/gaussian/g16-c01-avx/g16/l202.exe)
                          Input orientation:                          
 ---------------------------------------------------------------------
 Center     Atomic      Atomic             Coordinates (Angstroms)
 Number     Number       Type             X           Y           Z
 ---------------------------------------------------------------------
      1          8           0       -0.984100    0.635100   -0.004000
      2          1           0       -0.025100    0.646400    0.011200
      3          1           0       -1.286000    1.178500    0.726500
 ---------------------------------------------------------------------
                    Distance matrix (angstroms):
                    1          2          3
     1  O    0.000000
     2  H    0.959187   0.000000
     3  H    0.959196   1.544232   0.000000
 Stoichiometry    H2O
 Framework group  CS[SG(H2O)]
 Deg. of freedom     3
 Full point group                 CS      NOp   2
 Largest Abelian subgroup         CS      NOp   2
 Largest concise Abelian subgroup C1      NOp   1
                         Standard orientation:                         
 ---------------------------------------------------------------------
 Center     Atomic      Atomic             Coordinates (Angstroms)
 Number     Number       Type             X           Y           Z
 ---------------------------------------------------------------------
      1          8           0        0.000000    0.113822    0.000000
      2          1           0        0.772116   -0.455280    0.000000
      3          1           0       -0.772116   -0.455295   -0.000000
 ---------------------------------------------------------------------
 Rotational constants (GHZ):         871.6784260         420.5685601         283.6923161
 Leave Link  202 at Mon Nov  1 18:11:39 2021, MaxMem=  7864320000 cpu:               0.4 elap:               0.1
 (Enter /apps/gaussian/g16-c01-avx/g16/l301.exe)
 Standard basis: Aug-CC-pVDZ (5D, 7F)
 Ernie: Thresh=  0.10000D-02 Tol=  0.10000D-05 Strict=F.
 Ernie:  2 primitive shells out of 39 were deleted.
 There are    32 symmetry adapted cartesian basis functions of A'  symmetry.
 There are    11 symmetry adapted cartesian basis functions of A"  symmetry.
 There are    30 symmetry adapted basis functions of A'  symmetry.
 There are    11 symmetry adapted basis functions of A"  symmetry.
    41 basis functions,    65 primitive gaussians,    43 cartesian basis functions
     5 alpha electrons        5 beta electrons
       nuclear repulsion energy         9.1697328625 Hartrees.
 IExCor=    0 DFT=F Ex=HF Corr=None ExCW=0 ScaHFX=  1.000000
 ScaDFX=  1.000000  1.000000  1.000000  1.000000 ScalE2=  1.000000  1.000000
 IRadAn=      7 IRanWt=     -1 IRanGd=            0 ICorTp=0 IEmpDi=  4
 NAtoms=    3 NActive=    3 NUniq=    3 SFac= 1.00D+00 NAtFMM=   60 NAOKFM=F Big=F
 Integral buffers will be    131072 words long.
 Raffenetti 1 integral format.
 Two-electron integral symmetry is turned on.
 ------------------------------------------------------------------------------
 Polarizable Continuum Model (PCM)
 =================================
 Model                : PCM.
 Atomic radii         : UFF (Universal Force Field).
 Polarization charges : Total charges.
 Charge compensation  : None.
 Solution method      : On-the-fly selection.
 Cavity type          : Scaled VdW (van der Waals Surface) (Alpha=1.100).
 Cavity algorithm     : GePol (No added spheres)
                        Default sphere list used, NSphG=    3.
                        Lebedev-Laikov grids with approx.  5.0 points / Ang**2.
                        Smoothing algorithm: York/Karplus (Gamma=1.0000).
                        Polarization charges: spherical gaussians, with
                                              point-specific exponents (IZeta= 3).
                        Self-potential: point-specific (ISelfS= 7).
                        Self-field    : sphere-specific E.n sum rule (ISelfD= 2).
 Solvent              : Dichloromethane, Eps=   8.930000 Eps(inf)=   2.028346
 ------------------------------------------------------------------------------
 Spheres list:
 ISph  on   Nord     Re0    Alpha      Xe            Ye            Ze
    1   O      1    1.7500  1.100      0.000000      0.113822      0.000000
    2   H      2    1.4430  1.100      0.772116     -0.455280      0.000000
    3   H      3    1.4430  1.100     -0.772116     -0.455295     -0.000000
 ------------------------------------------------------------------------------
 GePol: Number of generator spheres                  =       3
 GePol: Total number of spheres                      =       3
 GePol: Number of exposed spheres                    =       3 (100.00%)
 GePol: Number of points                             =     392
 GePol: Average weight of points                     =       0.14
 GePol: Minimum weight of points                     =   0.16D-04
 GePol: Maximum weight of points                     =    0.20212
 GePol: Number of points with low weight             =      16
 GePol: Fraction of low-weight points (<1% of avg)   =       4.08%
 GePol: Cavity surface area                          =     55.617 Ang**2
 GePol: Cavity volume                                =     37.431 Ang**3
 Leave Link  301 at Mon Nov  1 18:11:40 2021, MaxMem=  7864320000 cpu:               4.4 elap:               0.2
 (Enter /apps/gaussian/g16-c01-avx/g16/l302.exe)
 NPDir=0 NMtPBC=     1 NCelOv=     1 NCel=       1 NClECP=     1 NCelD=      1
         NCelK=      1 NCelE2=     1 NClLst=     1 CellRange=     0.0.
 One-electron integrals computed using PRISM.
 One-electron integral symmetry used in STVInt
 NBasis=    41 RedAO= T EigKep=  2.79D-03  NBF=    30    11
 NBsUse=    41 1.00D-06 EigRej= -1.00D+00 NBFU=    30    11
 Leave Link  302 at Mon Nov  1 18:11:40 2021, MaxMem=  7864320000 cpu:               4.8 elap:               0.2
 (Enter /apps/gaussian/g16-c01-avx/g16/l303.exe)
 DipDrv:  MaxL=1.
 Leave Link  303 at Mon Nov  1 18:11:40 2021, MaxMem=  7864320000 cpu:               0.6 elap:               0.0
 (Enter /apps/gaussian/g16-c01-avx/g16/l401.exe)
 ExpMin= 2.97D-02 ExpMax= 1.17D+04 ExpMxC= 4.01D+02 IAcc=3 IRadAn=         7 AccDes= 0.00D+00
 Harris functional with IExCor=  205 and IRadAn=       7 diagonalized for initial guess.
 HarFok:  IExCor=  205 AccDes= 0.00D+00 IRadAn=         7 IDoV= 1 UseB2=F ITyADJ=14
 ICtDFT=  3500011 ScaDFX=  1.000000  1.000000  1.000000  1.000000
 FoFCou: FMM=F IPFlag=           0 FMFlag=      100000 FMFlg1=           0
         NFxFlg=           0 DoJE=T BraDBF=F KetDBF=T FulRan=T
         wScrn=  0.000000 ICntrl=       500 IOpCl=  0 I1Cent=   200000004 NGrid=           0
         NMat0=    1 NMatS0=      1 NMatT0=    0 NMatD0=    1 NMtDS0=    0 NMtDT0=    0
 Petite list used in FoFCou.
 Harris En= -76.1253074188374    
 JPrj=0 DoOrth=F DoCkMO=F.
 Initial guess orbital symmetries:
       Occupied  (A') (A') (A') (A') (A")
       Virtual   (A') (A') (A') (A") (A') (A') (A') (A') (A") (A')
                 (A") (A') (A') (A') (A') (A') (A") (A') (A") (A')
                 (A") (A') (A') (A') (A") (A") (A') (A') (A') (A')
                 (A') (A") (A') (A") (A') (A')
 The electronic state of the initial guess is 1-A'.
 Leave Link  401 at Mon Nov  1 18:11:40 2021, MaxMem=  7864320000 cpu:               6.4 elap:               0.2
 (Enter /apps/gaussian/g16-c01-avx/g16/l508.exe)
 Keep R1 ints in memory in symmetry-blocked form, NReq=6976947.
 FoFCou: FMM=F IPFlag=           0 FMFlag=           0 FMFlg1=           0
         NFxFlg=           0 DoJE=F BraDBF=F KetDBF=F FulRan=T
         wScrn=  0.000000 ICntrl=       600 IOpCl=  0 I1Cent=           0 NGrid=           0
         NMat0=    1 NMatS0=    861 NMatT0=    0 NMatD0=    1 NMtDS0=    0 NMtDT0=    0
 Petite list used in FoFCou.
 Tight linear equation convergence will be used.
 RHF wavefunction.
 Linear searches until partial convergence.
 Full line searches.
 Inv3:  Mode=1 IEnd=      460992.
 Iteration    1 A*A^-1 deviation from unit magnitude is 3.11D-15 for    367.
 Iteration    1 A*A^-1 deviation from orthogonality  is 2.11D-15 for    366    100.
 Iteration    1 A^-1*A deviation from unit magnitude is 3.11D-15 for    367.
 Iteration    1 A^-1*A deviation from orthogonality  is 9.06D-16 for    360    298.
 Iteration   1 EE= -75.9749924461429                                    Grad=4.758D-01 Max rot=    7.3969 deg.
 Gradient too large for Newton-Raphson -- use scaled steepest descent instead.
 Alpha Gap=     0.478 HL deriv= 3.54D-16
     ILin= 1 X=0.000D+00 Y=-7.597499244614D+01 DE= 0.00D+00 F= -2.88D-01
     ILin= 2 X=3.000D-01 Y=-7.603518294945D+01 DE=-6.02D-02 F= -1.12D-01 OKLS=F
     ILin= 3 X=5.000D-01 Y=-7.604568751348D+01 DE=-7.07D-02 F=  7.53D-03
     ILin= 4 X=7.000D-01 Y=-7.603210225818D+01 DE=-5.71D-02 F=  1.28D-01
     An  expanding polynomial of degree  4 produced  0.4877
     Minimum is close to point  3 DX= -1.23D-02 DF= -4.57D-05 DXR=  2.53D-02 DFR=  6.47D-04 which will be used.
 Iteration   2 EE= -76.0456875134789     Delta-E=       -0.070695067336 Grad=1.237D-01 Max rot=    3.1472 deg.
 Gradient too large for Newton-Raphson -- use scaled steepest descent instead.
 Alpha Gap=     0.617 HL deriv= 1.91D-16
     ILin= 1 X=0.000D+00 Y=-7.604568751348D+01 DE= 0.00D+00 F= -3.07D-03
     ILin= 2 X=4.000D-01 Y=-7.604665845894D+01 DE=-9.71D-04 F= -1.79D-03 OKLS=F
     ILin= 3 X=8.000D-01 Y=-7.604711759118D+01 DE=-1.43D-03 F= -5.10D-04
     ILin= 4 X=1.500D+00 Y=-7.604669721475D+01 DE=-1.01D-03 F=  1.71D-03
     An  expanding polynomial of degree  4 produced  0.9605
 Iteration   3 EE= -76.0471585080525     Delta-E=       -0.001470994574 Grad=1.972D-02 Max rot=    0.3430 deg.
 Gradient too large for Newton-Raphson -- use scaled steepest descent instead.
 Alpha Gap=     0.607 HL deriv= 2.74D-16
     ILin= 1 X=0.000D+00 Y=-7.604715850805D+01 DE= 0.00D+00 F= -4.12D-04
     ILin= 2 X=7.000D-01 Y=-7.604727587234D+01 DE=-1.17D-04 F=  7.68D-05 OKLS=T
     Accept linear search using points  1 and  2.
     An  expanding polynomial of degree  2 produced  0.5082
 Iteration   4 EE= -76.0472777594289     Delta-E=       -0.000119251376 Grad=6.557D-03 Max rot=    0.1157 deg.
 Orbital symmetries in SymMO:
    1=1    2=1    3=1    4=1    5=2    6=1    7=1    8=1    9=2   10=1
   11=1   12=1   13=1   14=2   15=1   16=2   17=1   18=1   19=1   20=1
   21=1   22=2   23=1   24=2   25=1   26=2   27=1   28=1   29=1   30=2
   31=2   32=1   33=1   34=1   35=1   36=1   37=2   38=1   39=2   40=1
   41=1
 SCF Done:  E(RHF) =  -76.0472777594     a.u. after    4 cycles
            Convg  =    0.6557D-02                    10 Fock formations.
              S**2 =  0.0000                  -V/T =  2.0019
 Leave Link  508 at Mon Nov  1 18:11:42 2021, MaxMem=  7864320000 cpu:              30.0 elap:               1.0
 (Enter /apps/gaussian/g16-c01-avx/g16/l502.exe)
 Keep R1 ints in memory in symmetry-blocked form, NReq=6976547.
 FoFCou: FMM=F IPFlag=           0 FMFlag=           0 FMFlg1=           0
         NFxFlg=           0 DoJE=F BraDBF=F KetDBF=F FulRan=T
         wScrn=  0.000000 ICntrl=       600 IOpCl=  0 I1Cent=           0 NGrid=           0
         NMat0=    1 NMatS0=    861 NMatT0=    0 NMatD0=    1 NMtDS0=    0 NMtDT0=    0
 Petite list used in FoFCou.
 Closed shell SCF:
 Using DIIS extrapolation, IDIIS=  1040.
 NGot=  7864320000 LenX=  7864116069 LenY=  7864113779
 Requested convergence on RMS density matrix=1.00D-08 within 128 cycles.
 Requested convergence on MAX density matrix=1.00D-06.
 Requested convergence on             energy=1.00D-06.
 No special actions if energy rises.

 Cycle   1  Pass 1  IDiag  1:
 E= -76.0472777594379    
 DIIS: error= 6.63D-04 at cycle   1 NSaved=   1.
 NSaved= 1 IEnMin= 1 EnMin= -76.0472777594379     IErMin= 1 ErrMin= 6.63D-04
 ErrMax= 6.63D-04  0.00D+00 EMaxC= 1.00D-01 BMatC= 2.15D-05 BMatP= 2.15D-05
 IDIUse=3 WtCom= 9.93D-01 WtEn= 6.63D-03
 Coeff-Com:  0.100D+01
 Coeff-En:   0.100D+01
 Coeff:      0.100D+01
 Gap=     0.611 Goal=   None    Shift=    0.000
 RMSDP=1.25D-04 MaxDP=1.58D-03              OVMax= 1.35D-03

 Cycle   2  Pass 1  IDiag  1:
 E= -76.0472952515095     Delta-E=       -0.000017492072 Rises=F Damp=F
 DIIS: error= 1.50D-04 at cycle   2 NSaved=   2.
 NSaved= 2 IEnMin= 2 EnMin= -76.0472952515095     IErMin= 2 ErrMin= 1.50D-04
 ErrMax= 1.50D-04  0.00D+00 EMaxC= 1.00D-01 BMatC= 7.78D-07 BMatP= 2.15D-05
 IDIUse=3 WtCom= 9.99D-01 WtEn= 1.50D-03
 Coeff-Com: -0.157D+00 0.116D+01
 Coeff-En:   0.000D+00 0.100D+01
 Coeff:     -0.157D+00 0.116D+01
 Gap=     0.552 Goal=   None    Shift=    0.000
 RMSDP=2.89D-05 MaxDP=3.29D-04 DE=-1.75D-05 OVMax= 5.25D-04

 Cycle   3  Pass 1  IDiag  1:
 E= -76.0472967225995     Delta-E=       -0.000001471090 Rises=F Damp=F
 DIIS: error= 5.42D-05 at cycle   3 NSaved=   3.
 NSaved= 3 IEnMin= 3 EnMin= -76.0472967225995     IErMin= 3 ErrMin= 5.42D-05
 ErrMax= 5.42D-05  0.00D+00 EMaxC= 1.00D-01 BMatC= 6.38D-08 BMatP= 7.78D-07
 IDIUse=1 WtCom= 1.00D+00 WtEn= 0.00D+00
 Coeff-Com: -0.271D-02-0.124D+00 0.113D+01
 Coeff:     -0.271D-02-0.124D+00 0.113D+01
 Gap=     0.552 Goal=   None    Shift=    0.000
 RMSDP=1.02D-05 MaxDP=9.80D-05 DE=-1.47D-06 OVMax= 1.70D-04

 Cycle   4  Pass 1  IDiag  1:
 E= -76.0472968439404     Delta-E=       -0.000000121341 Rises=F Damp=F
 DIIS: error= 3.30D-05 at cycle   4 NSaved=   4.
 NSaved= 4 IEnMin= 4 EnMin= -76.0472968439404     IErMin= 4 ErrMin= 3.30D-05
 ErrMax= 3.30D-05  0.00D+00 EMaxC= 1.00D-01 BMatC= 1.68D-08 BMatP= 6.38D-08
 IDIUse=1 WtCom= 1.00D+00 WtEn= 0.00D+00
 Coeff-Com:  0.215D-01-0.204D+00 0.382D+00 0.801D+00
 Coeff:      0.215D-01-0.204D+00 0.382D+00 0.801D+00
 Gap=     0.552 Goal=   None    Shift=    0.000
 RMSDP=2.89D-06 MaxDP=5.09D-05 DE=-1.21D-07 OVMax= 6.36D-05

 Cycle   5  Pass 1  IDiag  1:
 E= -76.0472968643780     Delta-E=       -0.000000020438 Rises=F Damp=F
 DIIS: error= 5.12D-06 at cycle   5 NSaved=   5.
 NSaved= 5 IEnMin= 5 EnMin= -76.0472968643780     IErMin= 5 ErrMin= 5.12D-06
 ErrMax= 5.12D-06  0.00D+00 EMaxC= 1.00D-01 BMatC= 4.38D-10 BMatP= 1.68D-08
 IDIUse=1 WtCom= 1.00D+00 WtEn= 0.00D+00
 Coeff-Com: -0.523D-02 0.609D-01-0.159D+00-0.295D+00 0.140D+01
 Coeff:     -0.523D-02 0.609D-01-0.159D+00-0.295D+00 0.140D+01
 Gap=     0.552 Goal=   None    Shift=    0.000
 RMSDP=9.09D-07 MaxDP=1.66D-05 DE=-2.04D-08 OVMax= 2.15D-05

 Cycle   6  Pass 1  IDiag  1:
 E= -76.0472968656823     Delta-E=       -0.000000001304 Rises=F Damp=F
 DIIS: error= 8.27D-07 at cycle   6 NSaved=   6.
 NSaved= 6 IEnMin= 6 EnMin= -76.0472968656823     IErMin= 6 ErrMin= 8.27D-07
 ErrMax= 8.27D-07  0.00D+00 EMaxC= 1.00D-01 BMatC= 1.27D-11 BMatP= 4.38D-10
 IDIUse=1 WtCom= 1.00D+00 WtEn= 0.00D+00
 Coeff-Com:  0.125D-02-0.165D-01 0.468D-01 0.965D-01-0.539D+00 0.141D+01
 Coeff:      0.125D-02-0.165D-01 0.468D-01 0.965D-01-0.539D+00 0.141D+01
 Gap=     0.552 Goal=   None    Shift=    0.000
 RMSDP=1.38D-07 MaxDP=2.46D-06 DE=-1.30D-09 OVMax= 3.56D-06

 Cycle   7  Pass 1  IDiag  1:
 E= -76.0472968657175     Delta-E=       -0.000000000035 Rises=F Damp=F
 DIIS: error= 1.31D-07 at cycle   7 NSaved=   7.
 NSaved= 7 IEnMin= 7 EnMin= -76.0472968657175     IErMin= 7 ErrMin= 1.31D-07
 ErrMax= 1.31D-07  0.00D+00 EMaxC= 1.00D-01 BMatC= 2.99D-13 BMatP= 1.27D-11
 IDIUse=1 WtCom= 1.00D+00 WtEn= 0.00D+00
 Coeff-Com: -0.370D-03 0.506D-02-0.150D-01-0.294D-01 0.173D+00-0.544D+00
 Coeff-Com:  0.141D+01
 Coeff:     -0.370D-03 0.506D-02-0.150D-01-0.294D-01 0.173D+00-0.544D+00
 Coeff:      0.141D+01
 Gap=     0.552 Goal=   None    Shift=    0.000
 RMSDP=3.21D-08 MaxDP=4.23D-07 DE=-3.52D-11 OVMax= 5.70D-07

 Cycle   8  Pass 1  IDiag  1:
 E= -76.0472968657183     Delta-E=       -0.000000000001 Rises=F Damp=F
 DIIS: error= 1.85D-08 at cycle   8 NSaved=   8.
 NSaved= 8 IEnMin= 8 EnMin= -76.0472968657183     IErMin= 8 ErrMin= 1.85D-08
 ErrMax= 1.85D-08  0.00D+00 EMaxC= 1.00D-01 BMatC= 5.91D-15 BMatP= 2.99D-13
 IDIUse=1 WtCom= 1.00D+00 WtEn= 0.00D+00
 Coeff-Com:  0.879D-04-0.121D-02 0.367D-02 0.691D-02-0.415D-01 0.137D+00
 Coeff-Com: -0.440D+00 0.134D+01
 Coeff:      0.879D-04-0.121D-02 0.367D-02 0.691D-02-0.415D-01 0.137D+00
 Coeff:     -0.440D+00 0.134D+01
 Gap=     0.552 Goal=   None    Shift=    0.000
 RMSDP=4.47D-09 MaxDP=4.70D-08 DE=-7.53D-13 OVMax= 7.44D-08

 Error on total polarization charges =  0.00483
 SCF Done:  E(RHF) =  -76.0472968657     A.U. after    8 cycles
            NFock=  8  Conv=0.45D-08     -V/T= 2.0018
 KE= 7.590872320414D+01 PE=-1.988752701483D+02 EE= 3.774951721594D+01
 Leave Link  502 at Mon Nov  1 18:11:43 2021, MaxMem=  7864320000 cpu:              20.8 elap:               0.7
 (Enter /apps/gaussian/g16-c01-avx/g16/l508.exe)
 QCSCF skips out because SCF is already converged.
 Leave Link  508 at Mon Nov  1 18:11:43 2021, MaxMem=  7864320000 cpu:               0.1 elap:               0.0
 (Enter /apps/gaussian/g16-c01-avx/g16/l801.exe)
 ExpMin= 2.97D-02 ExpMax= 1.17D+04 ExpMxC= 4.01D+02 IAcc=3 IRadAn=         7 AccDes= 0.00D+00
 HarFok:  IExCor=  205 AccDes= 0.00D+00 IRadAn=         7 IDoV=-2 UseB2=F ITyADJ=14
 ICtDFT= 12500011 ScaDFX=  1.000000  1.000000  1.000000  1.000000
 Largest valence mixing into a core orbital is  6.09D-05
 Largest core mixing into a valence orbital is  1.76D-05
 Range of M.O.s used for correlation:     2    41
 NBasis=    41 NAE=     5 NBE=     5 NFC=     1 NFV=     0
 NROrb=     40 NOA=     4 NOB=     4 NVA=    36 NVB=    36
 Leave Link  801 at Mon Nov  1 18:11:43 2021, MaxMem=  7864320000 cpu:               4.4 elap:               0.2
 (Enter /apps/gaussian/g16-c01-avx/g16/l906.exe)
 FulOut=F Deriv=F AODrv=F NAtomX=     3
   MMem=       26459  MDisk=           4 MDiskD=           4
  W3Min=        6192 MinDsk=       70922 NBas6D=          43
 NBas2D=         997    NTT=         946    LW2=     2000000
    MDV=  7864296766 MDiskM=     2539501 NBas2p=         997
 Fully in-core method, ICMem=     7089555.
 IMap=   1   2   3   4
 JobTyp=1 Pass  1 fully in-core, NPsUse= 32.
 Compute canonical integrals.
 FoFCou: FMM=F IPFlag=           0 FMFlag=           0 FMFlg1=           0
         NFxFlg=           0 DoJE=F BraDBF=F KetDBF=F FulRan=T
         wScrn=  0.000000 ICntrl=       600 IOpCl=  1 I1Cent=           0 NGrid=           0
         NMat0=    1 NMatS0=    997 NMatT0=    0 NMatD0=    1 NMtDS0=    0 NMtDT0=    0
 Symmetry not used in FoFCou.
 Spin components of T(2) and E(2):
     alpha-alpha T2 =       0.7667563413D-02 E2=     -0.2786364559D-01
     alpha-beta  T2 =       0.4331768718D-01 E2=     -0.1631099516D+00
     beta-beta   T2 =       0.7667563413D-02 E2=     -0.2786364559D-01
 The integrals were generated   1 times.
 ANorm=    0.1028908555D+01
 E2 =    -0.2188372428D+00 EUMP2 =    -0.76266134108516D+02
 Leave Link  906 at Mon Nov  1 18:11:44 2021, MaxMem=  7864320000 cpu:               6.4 elap:               0.2
 (Enter /apps/gaussian/g16-c01-avx/g16/l601.exe)
 Copying SCF densities to generalized density rwf, IOpCl= 0 IROHF=0.

 **********************************************************************

            Population analysis using the SCF Density.

 **********************************************************************

 Orbital symmetries:
       Occupied  (A') (A') (A') (A') (A")
       Virtual   (A') (A') (A') (A") (A') (A') (A') (A') (A") (A')
                 (A") (A') (A') (A') (A') (A') (A") (A') (A") (A')
                 (A') (A") (A') (A') (A") (A") (A') (A') (A') (A')
                 (A') (A") (A') (A") (A') (A')
 The electronic state is 1-A'.
 Alpha  occ. eigenvalues --  -20.57725  -1.35487  -0.72384  -0.58436  -0.51167
 Alpha virt. eigenvalues --    0.04005   0.06366   0.17280   0.18647   0.21812
 Alpha virt. eigenvalues --    0.22782   0.30254   0.33033   0.39121   0.41395
 Alpha virt. eigenvalues --    0.44344   0.54689   0.65528   0.66025   0.82119
 Alpha virt. eigenvalues --    0.92048   1.08817   1.10292   1.14604   1.32345
 Alpha virt. eigenvalues --    1.46609   1.48502   1.57408   1.99889   2.01928
 Alpha virt. eigenvalues --    2.10126   2.39642   2.47780   2.62440   2.72223
 Alpha virt. eigenvalues --    2.94111   3.66678   3.68318   3.70112   4.04292
 Alpha virt. eigenvalues --    4.29549
          Condensed to atoms (all electrons):
               1          2          3
     1  O    7.687078   0.333626   0.333623
     2  H    0.333626   0.531507  -0.042290
     3  H    0.333623  -0.042290   0.531499
 Mulliken charges:
               1
     1  O   -0.354326
     2  H    0.177158
     3  H    0.177169
 Sum of Mulliken charges =   0.00000
 Mulliken charges with hydrogens summed into heavy atoms:
               1
     1  O    0.000000
 Electronic spatial extent (au):  <R**2>=             19.5385
 Charge=              0.0000 electrons
 Dipole moment (field-independent basis, Debye):
    X=              0.0000    Y=             -2.1861    Z=             -0.0000  Tot=              2.1861
 Quadrupole moment (field-independent basis, Debye-Ang):
   XX=             -4.0778   YY=             -6.3444   ZZ=             -7.6417
   XY=              0.0000   XZ=              0.0000   YZ=             -0.0000
 Traceless Quadrupole moment (field-independent basis, Debye-Ang):
   XX=              1.9435   YY=             -0.3231   ZZ=             -1.6204
   XY=              0.0000   XZ=              0.0000   YZ=             -0.0000
 Octapole moment (field-independent basis, Debye-Ang**2):
  XXX=              0.0000  YYY=             -1.4712  ZZZ=             -0.0000  XYY=             -0.0000
  XXY=             -1.5477  XXZ=             -0.0000  XZZ=              0.0000  YZZ=             -0.3907
  YYZ=             -0.0000  XYZ=             -0.0000
 Hexadecapole moment (field-independent basis, Debye-Ang**3):
 XXXX=             -5.7571 YYYY=             -7.3765 ZZZZ=             -7.0336 XXXY=              0.0000
 XXXZ=             -0.0000 YYYX=              0.0000 YYYZ=             -0.0000 ZZZX=             -0.0000
 ZZZY=             -0.0000 XXYY=             -1.8808 XXZZ=             -2.4832 YYZZ=             -2.4508
 XXYZ=             -0.0000 YYXZ=             -0.0000 ZZXY=             -0.0000
 N-N= 9.169732862464D+00 E-N=-1.988752701553D+02  KE= 7.590872320414D+01
 Symmetry A'   KE= 7.148906642316D+01
 Symmetry A"   KE= 4.419656780978D+00
 Leave Link  601 at Mon Nov  1 18:11:45 2021, MaxMem=  7864320000 cpu:               2.0 elap:               0.1
 (Enter /apps/gaussian/g16-c01-avx/g16/l9999.exe)
 Unable to Open any file for archive entry.
 1\1\GINC-CX3-12-23\SP\RMP2-FC\Aug-CC-pVDZ\H2O1\ATARZIA\01-Nov-2021\0\\
 #P MP2/aug-cc-pVDZ SP SCF=(YQC,MaxCycle=900) int=(Grid=Superfinegrid) 
 SCRF=(PCM,Solvent=Dichloromethane)\\_water_opt_dcm_mp2\\0,1\O,0,-0.984
 1,0.6351,-0.004\H,0,-0.0251,0.6464,0.0112\H,0,-1.286,1.1785,0.7265\\Ve
 rsion=ES64L-G16RevC.01\State=1-A'\HF=-76.0472969\MP2=-76.2661341\RMSD=
 4.466e-09\PG=CS [SG(H2O1)]\\@
 The archive entry for this job was punched.


 FLOATING POINT NUMBERS ARE LIKE SANDPILES:
 EVERY TIME THAT YOU MOVE ONE, YOU LOSE A LITTLE SAND 
 AND YOU PICK UP A LITTLE DIRT.
 Job cpu time:       0 days  0 hours  1 minutes 35.3 seconds.
 Elapsed time:       0 days  0 hours  0 minutes  3.5 seconds.
 File lengths (MBytes):  RWF=    136 Int=      0 D2E=      0 Chk=     16 Scr=     16
 Normal termination of Gaussian 16 at Mon Nov  1 18:11:45 2021.
