 Entering Gaussian System
 *********************************************
 Gaussian 98:
 frequency output generated by the xtb code
 *********************************************
                         Standard orientation:
 --------------------------------------------------------------------
  Center     Atomic     Atomic              Coordinates (Angstroms)
  Number     Number      Type              X           Y           Z
 --------------------------------------------------------------------
    1         46             0       -0.139176    4.605001    0.073692
    2         46             0        0.193473   -5.056701   -0.126292
    3          6             0        4.946394   -1.013826   -0.280715
    4          6             0        4.546587   -2.146325   -0.413812
    5          6             0        4.036780   -3.453922   -0.541808
    6          6             0        4.854573   -4.548427   -0.854909
    7          6             0        4.283366   -5.804424   -0.957605
    8          6             0        2.920666   -5.952617   -0.744700
    9          7             0        2.147273   -4.909012   -0.440399
   10          6             0        2.674879   -3.688215   -0.341103
   11          1             0        5.911973   -4.404133   -1.013813
   12          1             0        4.886661   -6.664228   -1.200205
   13          1             0        2.430361   -6.918214   -0.821096
   14          1             0        1.995085   -2.873611   -0.086202
   15          6             0        5.390601    0.309672   -0.073619
   16          6             0        6.677004    0.549066    0.415676
   17          6             0        7.078212    1.848064    0.666372
   18          6             0        6.217817    2.907368    0.433873
   19          6             0        4.933814    2.682574   -0.069322
   20          6             0        4.526406    1.376276   -0.322918
   21          1             0        7.345501   -0.276837    0.603075
   22          1             0        8.068114    2.038760    1.051868
   23          1             0        6.541123    3.909067    0.669670
   24          1             0        3.555904    1.172280   -0.746514
   25          6             0        4.028519    3.820078   -0.297821
   26          6             0        4.510324    5.064475   -0.717225
   27          6             0        3.635429    6.128179   -0.861023
   28          6             0        2.290329    5.932887   -0.600818
   29          7             0        1.821624    4.736990   -0.232915
   30          6             0        2.655919    3.708986   -0.078816
   31          1             0        5.558124    5.194069   -0.938028
   32          1             0        3.992833    7.096277   -1.172426
   33          1             0        1.566233    6.741091   -0.687617
   34          1             0        2.208515    2.775989    0.252787
   35          6             0        0.239520    0.642207    4.881998
   36          6             0        0.306225    1.774906    4.466596
   37          6             0        0.358630    3.080705    3.939193
   38          6             0        0.607639    4.202405    4.742191
   39          6             0        0.638443    5.454404    4.154188
   40          6             0        0.418939    5.571703    2.789489
   41          7             0        0.175831    4.502003    2.030192
   42          6             0        0.146026    3.284804    2.574194
   43          1             0        0.773742    4.081706    5.801390
   44          1             0        0.830550    6.334804    4.745786
   45          1             0        0.440442    6.533502    2.286087
   46          1             0       -0.061381    2.447904    1.905396
   47          6             0        0.110315   -0.684791    5.344901
   48          6             0       -0.359282   -0.934187    6.636803
   49          6             0       -0.533287   -2.239685    7.056706
   50          6             0       -0.243596   -3.295688    6.209507
   51          6             0        0.240701   -3.060093    4.920305
   52          6             0        0.417207   -1.747094    4.494102
   53          1             0       -0.591175   -0.111184    7.294902
   54          1             0       -0.903185   -2.438581    8.050907
   55          1             0       -0.420300   -4.304686    6.547609
   56          1             0        0.824404   -1.532498    3.518900
   57          6             0        0.530592   -4.194996    4.029405
   58          6             0        1.022287   -5.406597    4.526306
   59          6             0        1.223379   -6.472400    3.665207
   60          6             0        0.947675   -6.310801    2.318708
   61          7             0        0.510679   -5.144399    1.835407
   62          6             0        0.300788   -4.115497    2.656406
   63          1             0        1.254091   -5.508797    5.574705
   64          1             0        1.590775   -7.416201    4.034407
   65          1             0        1.077968   -7.122703    1.605409
   66          1             0       -0.085409   -3.209296    2.197806
   67          6             0       -4.825806   -1.360174    0.190219
   68          6             0       -4.348912   -2.467077    0.276619
   69          6             0       -3.750218   -3.740780    0.350820
   70          6             0       -4.490324   -4.900975    0.617324
   71          6             0       -3.833930   -6.117879    0.668224
   72          6             0       -2.464631   -6.163086    0.450719
   73          7             0       -1.765426   -5.056990    0.190915
   74          6             0       -2.375720   -3.872387    0.142015
   75          1             0       -5.554723   -4.836370    0.781028
   76          1             0       -4.376334   -7.026476    0.874228
   77          1             0       -1.909035   -7.095089    0.487319
   78          1             0       -1.754016   -3.002991   -0.078089
   79          6             0       -5.360400   -0.062972    0.037619
   80          6             0       -6.661201    0.107334   -0.442277
   81          6             0       -7.151295    1.384836   -0.639677
   82          6             0       -6.365188    2.490333   -0.363082
   83          6             0       -5.067887    2.333827    0.131414
   84          6             0       -4.571093    1.049325    0.331314
   85          1             0       -7.271706   -0.754163   -0.664073
   86          1             0       -8.152796    1.522741   -1.017774
   87          1             0       -6.757184    3.476234   -0.557782
   88          1             0       -3.587893    0.895320    0.746911
   89          6             0       -4.242480    3.520523    0.407509
   90          6             0       -4.807972    4.710527    0.877509
   91          6             0       -4.007966    5.824923    1.066104
   92          6             0       -2.653067    5.733515    0.799499
   93          7             0       -2.103975    4.589012    0.382999
   94          6             0       -2.865881    3.513315    0.185604
   95          1             0       -5.861771    4.758433    1.102412
   96          1             0       -4.430560    6.752526    1.416904
   97          1             0       -1.986162    6.585412    0.920495
   98          1             0       -2.355987    2.627812   -0.183896
   99          6             0       -0.250413    0.827393   -4.894801
  100          6             0       -0.394305    1.934594   -4.432802
  101          6             0       -0.535697    3.210896   -3.852104
  102          6             0       -0.862093    4.344896   -4.608605
  103          6             0       -0.978285    5.566498   -3.969506
  104          6             0       -0.765780    5.642299   -2.600707
  105          7             0       -0.448883    4.561399   -1.885806
  106          6             0       -0.336091    3.372597   -2.479405
  107          1             0       -1.020598    4.256895   -5.672104
  108          1             0       -1.231082    6.455299   -4.524707
  109          1             0       -0.852773    6.578701   -2.058209
  110          1             0       -0.070993    2.524997   -1.845404
  111          6             0       -0.030721   -0.467309   -5.411899
  112          6             0        0.453673   -0.630214   -6.712000
  113          6             0        0.716365   -1.902216   -7.185299
  114          6             0        0.500662   -3.009714   -6.383096
  115          6             0        0.002667   -2.861509   -5.086095
  116          6             0       -0.263124   -1.582507   -4.606296
  117          1             0        0.627976    0.233284   -7.335103
  118          1             0        1.098061   -2.034020   -8.186200
  119          1             0        0.745856   -3.989416   -6.762196
  120          1             0       -0.683220   -1.436803   -3.623795
  121          6             0       -0.207536   -4.049406   -4.243292
  122          6             0       -0.615244   -5.270505   -4.790589
  123          6             0       -0.741547   -6.382203   -3.974586
  124          6             0       -0.475942   -6.257802   -2.622087
  125          7             0       -0.119634   -5.085103   -2.090391
  126          6             0        0.017969   -4.011205   -2.867893
  127          1             0       -0.840648   -5.345006   -5.842788
  128          1             0       -1.043554   -7.333002   -4.382984
  129          1             0       -0.549144   -7.105501   -1.943086
  130          1             0        0.341275   -3.100206   -2.371596
 --------------------------------------------------------------------
     1 basis functions        1 primitive gaussians
     1 alpha electrons        1 beta electrons
 
 Harmonic frequencies (cm**-1), IR intensities (KM/Mole),
 Raman scattering activities (A**4/amu), Raman depolarization ratios,
 reduced masses (AMU), force constants (mDyne/A) and normal coordinates:
                      1                      2                      3
                        a                      a                      a 
 Frequencies --    10.2319                12.3908                12.4950
 Red. masses --    11.1910                17.3855                17.4052
 Frc consts  --     0.0000                 0.0000                 0.0000
 IR Inten    --     0.0231                 0.5073                 0.5076
 Raman Activ --     0.0000                 0.0000                 0.0000
 Depolar     --     0.0000                 0.0000                 0.0000
 Atom AN      X      Y      Z        X      Y      Z        X      Y      Z
   1  46     0.01  -0.01  -0.01     0.06  -0.00   0.20    -0.13  -0.01   0.05
   2  46     0.01  -0.00  -0.01     0.05  -0.00   0.13    -0.20  -0.01   0.07
   3   6     0.01   0.00  -0.05     0.01   0.02  -0.13    -0.06  -0.01  -0.04
   4   6     0.00   0.00  -0.02     0.00   0.01  -0.09    -0.06  -0.01  -0.03
   5   6     0.01  -0.00   0.02     0.00   0.01  -0.05    -0.07  -0.01  -0.01
   6   6     0.01  -0.01   0.04    -0.00   0.01  -0.07    -0.07  -0.01  -0.02
   7   6     0.01  -0.01   0.07     0.00   0.01  -0.03    -0.07  -0.01  -0.01
   8   6     0.01  -0.01   0.07     0.01   0.00   0.02    -0.07  -0.01   0.01
   9   7     0.01  -0.00   0.04     0.02   0.00   0.04    -0.07  -0.01   0.02
  10   6     0.01  -0.00   0.02     0.01   0.01   0.00    -0.06  -0.01   0.01
  11   1     0.00  -0.00   0.01    -0.00   0.00  -0.03    -0.02  -0.00  -0.01
  12   1     0.00  -0.00   0.03    -0.00   0.00  -0.01    -0.02  -0.00  -0.01
  13   1     0.00  -0.00   0.02     0.00  -0.00   0.01    -0.02  -0.00   0.01
  14   1     0.00   0.00   0.00     0.01   0.00   0.01    -0.02  -0.00   0.01
  15   6     0.01   0.01  -0.10     0.03   0.02  -0.17    -0.05  -0.01  -0.05
  16   6     0.03   0.02  -0.15     0.06   0.02  -0.26    -0.04  -0.01  -0.08
  17   6     0.03   0.03  -0.19     0.08   0.02  -0.29    -0.04  -0.01  -0.09
  18   6     0.02   0.02  -0.18     0.06   0.02  -0.23    -0.04  -0.01  -0.07
  19   6     0.00   0.01  -0.13     0.03   0.02  -0.14    -0.05  -0.01  -0.05
  20   6    -0.00   0.00  -0.08     0.01   0.02  -0.11    -0.06  -0.01  -0.04
  21   1     0.01   0.01  -0.04     0.02   0.00  -0.09    -0.01  -0.00  -0.03
  22   1     0.01   0.01  -0.07     0.03   0.00  -0.10    -0.01  -0.00  -0.03
  23   1     0.01   0.01  -0.06     0.02   0.00  -0.07    -0.01  -0.00  -0.02
  24   1    -0.01  -0.00  -0.01    -0.01   0.00  -0.01    -0.02  -0.00  -0.01
  25   6    -0.01   0.00  -0.11     0.01   0.02  -0.08    -0.05  -0.01  -0.03
  26   6    -0.02  -0.00  -0.15    -0.01   0.02  -0.09    -0.05  -0.01  -0.04
  27   6    -0.03  -0.01  -0.14    -0.02   0.02  -0.03    -0.05  -0.01  -0.02
  28   6    -0.02  -0.01  -0.09    -0.00   0.02   0.04    -0.05  -0.00   0.00
  29   7    -0.01  -0.00  -0.06     0.02   0.02   0.05    -0.05  -0.00   0.01
  30   6     0.00   0.00  -0.06     0.03   0.02   0.00    -0.05  -0.00  -0.01
  31   1    -0.01  -0.00  -0.06    -0.01   0.01  -0.04    -0.02  -0.00  -0.02
  32   1    -0.01  -0.00  -0.05    -0.01   0.01  -0.01    -0.02  -0.00  -0.01
  33   1    -0.01  -0.00  -0.02    -0.00   0.01   0.02    -0.01  -0.00   0.01
  34   1     0.00   0.00  -0.01     0.01   0.00   0.01    -0.01  -0.00  -0.00
  35   6    -0.06   0.00  -0.00    -0.04  -0.01   0.06     0.13  -0.01   0.01
  36   6    -0.02  -0.00  -0.00    -0.03  -0.01   0.06     0.10  -0.01   0.00
  37   6     0.01  -0.00  -0.00    -0.02  -0.01   0.07     0.06  -0.01   0.00
  38   6     0.04  -0.01  -0.01    -0.03  -0.01   0.07     0.08  -0.01  -0.00
  39   6     0.07  -0.01  -0.01    -0.02  -0.01   0.08     0.04  -0.00  -0.00
  40   6     0.07  -0.01  -0.01     0.01  -0.01   0.07    -0.01  -0.00   0.01
  41   7     0.05  -0.00  -0.01     0.02  -0.01   0.07    -0.03  -0.00   0.02
  42   6     0.02  -0.00  -0.01     0.01  -0.01   0.06     0.00  -0.01   0.01
  43   1     0.01  -0.00  -0.00    -0.01  -0.00   0.02     0.04  -0.00  -0.00
  44   1     0.03  -0.00  -0.00    -0.01  -0.00   0.02     0.02  -0.00  -0.00
  45   1     0.03  -0.00  -0.00     0.00  -0.00   0.02    -0.01  -0.00   0.00
  46   1     0.00   0.00  -0.00     0.01  -0.00   0.02    -0.01  -0.00   0.01
  47   6    -0.11   0.00  -0.01    -0.05  -0.01   0.06     0.17  -0.01   0.02
  48   6    -0.16   0.01  -0.03    -0.08  -0.02   0.04     0.26   0.00   0.06
  49   6    -0.21   0.02  -0.04    -0.09  -0.02   0.04     0.28   0.00   0.08
  50   6    -0.19   0.01  -0.02    -0.07  -0.02   0.04     0.22  -0.00   0.06
  51   6    -0.14   0.00  -0.00    -0.05  -0.01   0.05     0.13  -0.01   0.03
  52   6    -0.09  -0.00   0.00    -0.04  -0.01   0.06     0.11  -0.01   0.01
  53   1    -0.05   0.00  -0.01    -0.03  -0.01   0.01     0.09   0.00   0.02
  54   1    -0.07   0.01  -0.01    -0.03  -0.01   0.01     0.10   0.00   0.03
  55   1    -0.07   0.00  -0.01    -0.02  -0.01   0.01     0.07   0.00   0.02
  56   1    -0.01  -0.00   0.01    -0.01  -0.00   0.02     0.01  -0.00  -0.01
  57   6    -0.12  -0.00   0.01    -0.03  -0.01   0.05     0.07  -0.02   0.02
  58   6    -0.16  -0.01   0.03    -0.03  -0.01   0.05     0.08  -0.02  -0.01
  59   6    -0.14  -0.01   0.03    -0.01  -0.00   0.05     0.02  -0.03  -0.01
  60   6    -0.09  -0.01   0.02     0.01   0.00   0.05    -0.04  -0.03  -0.00
  61   7    -0.05  -0.00   0.01     0.01  -0.00   0.05    -0.06  -0.02   0.02
  62   6    -0.07   0.00  -0.00    -0.01  -0.00   0.05    -0.00  -0.02   0.03
  63   1    -0.06  -0.00   0.01    -0.01  -0.00   0.02     0.04  -0.01  -0.01
  64   1    -0.05  -0.01   0.01    -0.00  -0.00   0.02     0.01  -0.01  -0.01
  65   1    -0.02  -0.00   0.01     0.01   0.00   0.01    -0.03  -0.01  -0.00
  66   1    -0.01   0.00  -0.00    -0.00  -0.00   0.01    -0.01  -0.00   0.01
  67   6    -0.00   0.00   0.06     0.01  -0.01  -0.13    -0.06   0.01  -0.04
  68   6     0.00  -0.00   0.02     0.00  -0.01  -0.09    -0.06   0.01  -0.03
  69   6    -0.00  -0.00  -0.01     0.00  -0.01  -0.05    -0.07   0.01  -0.02
  70   6    -0.00  -0.01  -0.04    -0.00  -0.01  -0.07    -0.08   0.01  -0.04
  71   6    -0.01  -0.01  -0.07     0.00  -0.00  -0.03    -0.08   0.01  -0.03
  72   6    -0.01  -0.01  -0.07     0.01  -0.00   0.02    -0.08   0.01  -0.01
  73   7    -0.00  -0.00  -0.05     0.02  -0.00   0.04    -0.07   0.01   0.01
  74   6    -0.00  -0.00  -0.02     0.01  -0.00  -0.00    -0.06   0.01   0.00
  75   1    -0.00  -0.00  -0.01    -0.00  -0.00  -0.03    -0.02   0.00  -0.02
  76   1    -0.00  -0.00  -0.03    -0.00  -0.00  -0.01    -0.02   0.00  -0.01
  77   1    -0.00  -0.00  -0.02     0.00   0.00   0.01    -0.02   0.00   0.00
  78   1    -0.00   0.00  -0.00     0.01  -0.00   0.01    -0.02   0.00   0.01
  79   6    -0.01   0.00   0.11     0.03  -0.01  -0.17    -0.06   0.01  -0.05
  80   6    -0.03   0.01   0.16     0.06  -0.00  -0.26    -0.05   0.02  -0.07
  81   6    -0.03   0.02   0.21     0.08   0.00  -0.28    -0.04   0.02  -0.08
  82   6    -0.02   0.01   0.19     0.06  -0.00  -0.22    -0.04   0.02  -0.06
  83   6    -0.00   0.00   0.13     0.03  -0.01  -0.13    -0.05   0.01  -0.04
  84   6     0.01  -0.00   0.09     0.01  -0.01  -0.11    -0.06   0.01  -0.03
  85   1    -0.01   0.00   0.05     0.02   0.00  -0.09    -0.01   0.01  -0.02
  86   1    -0.01   0.01   0.07     0.03   0.00  -0.10    -0.01   0.01  -0.03
  87   1    -0.01   0.00   0.07     0.02   0.00  -0.07    -0.01   0.01  -0.02
  88   1     0.01  -0.00   0.01    -0.01  -0.00  -0.01    -0.02   0.00  -0.01
  89   6     0.01  -0.00   0.12     0.02  -0.01  -0.07    -0.05   0.01  -0.02
  90   6     0.03  -0.01   0.16    -0.01  -0.02  -0.09    -0.05   0.00  -0.02
  91   6     0.04  -0.01   0.14    -0.01  -0.02  -0.03    -0.05   0.00  -0.00
  92   6     0.03  -0.01   0.09    -0.00  -0.02   0.04    -0.05  -0.00   0.02
  93   7     0.01  -0.00   0.05     0.02  -0.02   0.06    -0.05  -0.00   0.02
  94   6     0.00   0.00   0.06     0.03  -0.02   0.00    -0.05   0.00  -0.00
  95   1     0.01  -0.00   0.06    -0.01  -0.01  -0.04    -0.02   0.00  -0.01
  96   1     0.01  -0.00   0.05    -0.01  -0.01  -0.01    -0.01  -0.00   0.00
  97   1     0.01  -0.00   0.02    -0.00  -0.01   0.02    -0.01  -0.00   0.01
  98   1    -0.00   0.00   0.01     0.01  -0.00   0.01    -0.01   0.00  -0.00
  99   6     0.05   0.00   0.00    -0.04   0.01   0.06     0.13   0.02   0.01
 100   6     0.02  -0.00  -0.00    -0.03   0.01   0.06     0.09   0.01   0.00
 101   6    -0.02  -0.01   0.00    -0.02   0.01   0.07     0.05   0.01   0.00
 102   6    -0.04  -0.01   0.01    -0.04   0.01   0.07     0.06   0.01  -0.00
 103   6    -0.07  -0.01   0.01    -0.03   0.01   0.08     0.02   0.00   0.00
 104   6    -0.06  -0.01   0.01    -0.00   0.01   0.07    -0.03   0.00   0.01
 105   7    -0.04  -0.01   0.00     0.02   0.01   0.07    -0.04   0.00   0.02
 106   6    -0.02  -0.00   0.00     0.01   0.01   0.06    -0.00   0.00   0.01
 107   1    -0.01  -0.00   0.00    -0.02   0.00   0.02     0.03   0.00  -0.00
 108   1    -0.03  -0.01   0.00    -0.01   0.00   0.02     0.01   0.00  -0.00
 109   1    -0.02  -0.00   0.00     0.00   0.00   0.02    -0.02  -0.00   0.00
 110   1    -0.00   0.00  -0.00     0.01   0.00   0.02    -0.01   0.00   0.01
 111   6     0.09   0.01   0.00    -0.05   0.01   0.06     0.17   0.02   0.03
 112   6     0.14   0.02   0.02    -0.07   0.01   0.05     0.26   0.02   0.06
 113   6     0.18   0.03   0.03    -0.08   0.01   0.04     0.29   0.02   0.08
 114   6     0.18   0.02   0.02    -0.06   0.01   0.04     0.23   0.02   0.06
 115   6     0.13   0.01  -0.00    -0.04   0.01   0.05     0.14   0.02   0.03
 116   6     0.08   0.00  -0.01    -0.04   0.01   0.06     0.11   0.02   0.01
 117   1     0.04   0.01   0.01    -0.02   0.00   0.01     0.09   0.00   0.02
 118   1     0.06   0.01   0.01    -0.03   0.01   0.01     0.10   0.00   0.03
 119   1     0.06   0.01   0.01    -0.02   0.00   0.01     0.07   0.00   0.02
 120   1     0.01  -0.00  -0.01    -0.01   0.00   0.02     0.01   0.01  -0.01
 121   6     0.12   0.00  -0.01    -0.02   0.01   0.05     0.08   0.02   0.01
 122   6     0.16  -0.00  -0.03    -0.03   0.00   0.05     0.10   0.02  -0.01
 123   6     0.14  -0.01  -0.03    -0.01   0.00   0.05     0.04   0.02  -0.02
 124   6     0.09  -0.00  -0.02     0.01  -0.00   0.05    -0.03   0.02  -0.00
 125   7     0.06   0.00  -0.01     0.01  -0.00   0.05    -0.05   0.02   0.02
 126   6     0.06   0.00  -0.00    -0.00   0.00   0.05     0.00   0.02   0.03
 127   1     0.06  -0.00  -0.01    -0.01   0.00   0.02     0.05   0.01  -0.01
 128   1     0.05  -0.00  -0.01    -0.00   0.00   0.02     0.02   0.01  -0.01
 129   1     0.02  -0.00  -0.01     0.01  -0.00   0.01    -0.02   0.01  -0.00
 130   1     0.01   0.00   0.00    -0.00   0.00   0.01    -0.01   0.00   0.01
                      4                      5                      6
                        a                      a                      a 
 Frequencies --    13.2559                24.7542                27.7097
 Red. masses --    11.2500                11.0645                12.1064
 Frc consts  --     0.0000                 0.0000                 0.0000
 IR Inten    --     0.0523                 0.0010                 0.0999
 Raman Activ --     0.0000                 0.0000                 0.0000
 Depolar     --     0.0000                 0.0000                 0.0000
 Atom AN      X      Y      Z        X      Y      Z        X      Y      Z
   1  46     0.01  -0.00  -0.00     0.00  -0.03  -0.00    -0.04  -0.00   0.02
   2  46     0.01  -0.00  -0.00    -0.00   0.03   0.00     0.05  -0.00   0.08
   3   6     0.01   0.00   0.13     0.00  -0.02  -0.02    -0.01  -0.01  -0.11
   4   6     0.01  -0.00   0.14     0.00  -0.01  -0.07    -0.00  -0.00  -0.15
   5   6     0.02  -0.00   0.14    -0.01  -0.00  -0.11    -0.00  -0.00  -0.16
   6   6     0.04  -0.01   0.21    -0.03   0.01  -0.21    -0.03   0.01  -0.28
   7   6     0.04  -0.01   0.20    -0.05   0.02  -0.24    -0.04   0.01  -0.26
   8   6     0.03  -0.01   0.13    -0.04   0.01  -0.16    -0.01  -0.00  -0.11
   9   7     0.01  -0.00   0.07    -0.01   0.01  -0.07     0.01  -0.01  -0.01
  10   6     0.01   0.00   0.07     0.00  -0.00  -0.04     0.02  -0.01  -0.03
  11   1     0.01  -0.00   0.08    -0.01   0.00  -0.08    -0.01   0.01  -0.11
  12   1     0.02  -0.01   0.07    -0.02   0.01  -0.09    -0.02   0.01  -0.10
  13   1     0.01  -0.00   0.03    -0.01   0.01  -0.05    -0.00  -0.00  -0.02
  14   1    -0.00   0.00   0.00     0.01  -0.00   0.01     0.01  -0.01   0.02
  15   6     0.00   0.01   0.11    -0.01  -0.02   0.04    -0.01  -0.01  -0.05
  16   6    -0.01   0.02   0.13    -0.04  -0.03   0.12    -0.03  -0.03   0.00
  17   6    -0.01   0.03   0.10    -0.06  -0.03   0.16    -0.04  -0.05   0.08
  18   6    -0.01   0.02   0.05    -0.04  -0.03   0.13    -0.03  -0.04   0.10
  19   6    -0.00   0.01   0.03    -0.02  -0.02   0.06    -0.02  -0.02   0.05
  20   6     0.00  -0.00   0.06     0.00  -0.02   0.01    -0.01  -0.00  -0.03
  21   1    -0.00   0.01   0.05    -0.01  -0.01   0.04    -0.01  -0.01  -0.00
  22   1    -0.01   0.01   0.03    -0.02  -0.01   0.06    -0.02  -0.02   0.04
  23   1    -0.01   0.01   0.01    -0.02  -0.01   0.05    -0.01  -0.01   0.05
  24   1     0.00  -0.00   0.01     0.01  -0.00  -0.01     0.00   0.00  -0.02
  25   6    -0.00  -0.00  -0.01    -0.01  -0.02   0.03    -0.01  -0.01   0.06
  26   6    -0.00  -0.01  -0.05     0.01  -0.03   0.03     0.00   0.01   0.13
  27   6    -0.00  -0.02  -0.09     0.01  -0.03  -0.01     0.01   0.01   0.13
  28   6    -0.01  -0.02  -0.09     0.00  -0.03  -0.05    -0.00   0.00   0.08
  29   7    -0.01  -0.01  -0.05    -0.01  -0.02  -0.05    -0.01  -0.01   0.02
  30   6    -0.00   0.00  -0.02    -0.01  -0.02  -0.01    -0.02  -0.02   0.01
  31   1    -0.00  -0.01  -0.01     0.00  -0.01   0.02     0.00   0.01   0.05
  32   1    -0.00  -0.01  -0.03     0.01  -0.01  -0.00     0.01   0.01   0.05
  33   1    -0.00  -0.01  -0.03     0.00  -0.01  -0.02     0.00   0.00   0.02
  34   1    -0.00   0.00   0.00    -0.01  -0.01  -0.00    -0.01  -0.01  -0.01
  35   6     0.12   0.01  -0.01     0.01   0.02   0.00    -0.00   0.08   0.03
  36   6     0.13   0.01  -0.01     0.06   0.01   0.00     0.01   0.08   0.04
  37   6     0.13   0.00  -0.02     0.10   0.01  -0.01     0.02   0.07   0.03
  38   6     0.20   0.00  -0.03     0.20   0.00  -0.03     0.05   0.08   0.00
  39   6     0.20  -0.00  -0.04     0.22  -0.00  -0.05     0.05   0.07  -0.02
  40   6     0.13  -0.00  -0.03     0.15  -0.01  -0.03     0.02   0.06  -0.01
  41   7     0.07   0.00  -0.01     0.07  -0.00  -0.01    -0.01   0.05   0.01
  42   6     0.07   0.00  -0.01     0.04   0.00   0.00    -0.01   0.06   0.03
  43   1     0.07   0.00  -0.01     0.07   0.00  -0.01     0.02   0.03   0.00
  44   1     0.07  -0.00  -0.01     0.08  -0.00  -0.02     0.02   0.02  -0.01
  45   1     0.03  -0.00  -0.01     0.05  -0.00  -0.01     0.01   0.01  -0.01
  46   1     0.00   0.00   0.00    -0.01   0.00   0.01    -0.01   0.01   0.01
  47   6     0.10   0.01  -0.00    -0.04   0.02  -0.01    -0.01   0.08   0.02
  48   6     0.11   0.03   0.01    -0.11   0.02  -0.04    -0.02   0.07   0.02
  49   6     0.08   0.03   0.01    -0.16   0.02  -0.05    -0.02   0.07   0.01
  50   6     0.04   0.02   0.01    -0.13   0.02  -0.04    -0.02   0.07   0.01
  51   6     0.03   0.01   0.00    -0.06   0.02  -0.01    -0.01   0.08   0.02
  52   6     0.06   0.00  -0.00    -0.02   0.02   0.00    -0.01   0.08   0.02
  53   1     0.04   0.01   0.00    -0.04   0.01  -0.01    -0.01   0.02   0.01
  54   1     0.03   0.01   0.01    -0.06   0.01  -0.02    -0.01   0.02   0.00
  55   1     0.00   0.01   0.00    -0.05   0.01  -0.02    -0.01   0.02   0.00
  56   1     0.01  -0.00  -0.00     0.01   0.00   0.01    -0.00   0.02   0.01
  57   6    -0.01  -0.00   0.00    -0.02   0.02  -0.01     0.01   0.08   0.02
  58   6    -0.05  -0.02   0.00    -0.03   0.02   0.01     0.03   0.09   0.03
  59   6    -0.09  -0.03   0.01     0.02   0.03   0.01     0.05   0.09   0.04
  60   6    -0.08  -0.02   0.01     0.05   0.03   0.00     0.04   0.07   0.04
  61   7    -0.05  -0.01   0.01     0.05   0.02  -0.01     0.02   0.06   0.03
  62   6    -0.02  -0.00   0.00     0.01   0.02  -0.01     0.00   0.06   0.02
  63   1    -0.01  -0.01   0.00    -0.02   0.01   0.00     0.01   0.03   0.01
  64   1    -0.03  -0.01   0.00     0.01   0.01   0.01     0.02   0.03   0.02
  65   1    -0.03  -0.01   0.00     0.02   0.01   0.00     0.02   0.02   0.02
  66   1     0.00   0.00   0.00     0.00   0.00  -0.01    -0.00   0.01   0.00
  67   6    -0.00   0.01  -0.12    -0.00  -0.01   0.01    -0.01   0.01  -0.11
  68   6    -0.01   0.00  -0.13    -0.00  -0.01   0.06    -0.00   0.01  -0.15
  69   6    -0.01   0.00  -0.14     0.01  -0.00   0.10    -0.01   0.01  -0.17
  70   6    -0.03  -0.00  -0.20     0.03   0.00   0.20    -0.03  -0.00  -0.29
  71   6    -0.03  -0.01  -0.20     0.04   0.01   0.22    -0.04  -0.00  -0.27
  72   6    -0.02  -0.00  -0.13     0.03   0.01   0.15    -0.02   0.00  -0.12
  73   7    -0.01  -0.00  -0.07     0.01   0.01   0.07     0.01   0.02  -0.01
  74   6    -0.00   0.00  -0.07    -0.00  -0.00   0.04     0.02   0.02  -0.03
  75   1    -0.01  -0.00  -0.07     0.01   0.00   0.07    -0.02  -0.00  -0.12
  76   1    -0.01  -0.00  -0.07     0.02   0.00   0.08    -0.02  -0.00  -0.11
  77   1    -0.01  -0.00  -0.03     0.01   0.00   0.04    -0.01   0.00  -0.03
  78   1     0.00   0.00  -0.00    -0.01  -0.00  -0.01     0.01   0.01   0.02
  79   6     0.00   0.01  -0.10     0.01  -0.01  -0.04    -0.01   0.02  -0.05
  80   6     0.01   0.03  -0.12     0.04  -0.01  -0.11    -0.03   0.03   0.01
  81   6     0.02   0.03  -0.09     0.05  -0.01  -0.16    -0.05   0.04   0.09
  82   6     0.01   0.02  -0.04     0.04  -0.01  -0.13    -0.04   0.03   0.11
  83   6     0.01   0.01  -0.03     0.02  -0.01  -0.06    -0.02   0.01   0.05
  84   6     0.00   0.00  -0.06     0.00  -0.01  -0.01    -0.01   0.01  -0.03
  85   1     0.00   0.01  -0.04     0.01  -0.00  -0.04    -0.01   0.01  -0.00
  86   1     0.01   0.01  -0.03     0.02  -0.00  -0.06    -0.02   0.02   0.04
  87   1     0.01   0.01  -0.01     0.02  -0.00  -0.05    -0.01   0.01   0.05
  88   1    -0.00  -0.00  -0.01    -0.01  -0.00   0.01     0.00  -0.00  -0.02
  89   6     0.01  -0.00   0.01     0.01  -0.02  -0.02    -0.01   0.00   0.07
  90   6     0.01  -0.02   0.05    -0.01  -0.02  -0.03     0.01  -0.01   0.13
  91   6     0.01  -0.02   0.08    -0.01  -0.02   0.01     0.01  -0.02   0.13
  92   6     0.01  -0.02   0.08    -0.00  -0.02   0.05     0.00  -0.00   0.07
  93   7     0.01  -0.01   0.05     0.01  -0.02   0.04    -0.01   0.01   0.02
  94   6     0.01  -0.00   0.02     0.01  -0.01   0.01    -0.02   0.01   0.02
  95   1     0.00  -0.01   0.01    -0.00  -0.01  -0.02     0.00  -0.01   0.05
  96   1     0.00  -0.01   0.03    -0.00  -0.01   0.00     0.01  -0.01   0.05
  97   1     0.00  -0.01   0.03    -0.00  -0.01   0.02     0.00  -0.00   0.02
  98   1     0.00   0.00  -0.00     0.01  -0.00   0.00    -0.01   0.01  -0.01
  99   6    -0.13  -0.00   0.01    -0.02   0.01  -0.00     0.00  -0.08   0.03
 100   6    -0.14  -0.00   0.01    -0.07   0.01  -0.00     0.01  -0.08   0.04
 101   6    -0.14  -0.01   0.02    -0.11  -0.00   0.01     0.02  -0.07   0.02
 102   6    -0.21  -0.02   0.03    -0.21  -0.02   0.03     0.06  -0.08  -0.00
 103   6    -0.20  -0.02   0.04    -0.23  -0.02   0.05     0.06  -0.07  -0.02
 104   6    -0.13  -0.01   0.03    -0.15  -0.02   0.03     0.03  -0.05  -0.02
 105   7    -0.07  -0.00   0.01    -0.07  -0.01   0.01    -0.00  -0.05   0.01
 106   6    -0.07  -0.00   0.00    -0.04  -0.00  -0.00    -0.01  -0.06   0.02
 107   1    -0.08  -0.01   0.01    -0.08  -0.01   0.01     0.02  -0.03  -0.00
 108   1    -0.07  -0.01   0.02    -0.09  -0.01   0.02     0.03  -0.02  -0.01
 109   1    -0.03  -0.00   0.01    -0.05  -0.01   0.01     0.01  -0.01  -0.01
 110   1    -0.00   0.00  -0.00     0.01   0.00  -0.01    -0.01  -0.02   0.01
 111   6    -0.11   0.00  -0.00     0.04   0.02   0.01    -0.01  -0.08   0.02
 112   6    -0.13   0.02  -0.01     0.12   0.02   0.04    -0.02  -0.08   0.01
 113   6    -0.10   0.03  -0.02     0.16   0.03   0.06    -0.03  -0.08   0.01
 114   6    -0.05   0.02  -0.02     0.13   0.02   0.04    -0.02  -0.08   0.01
 115   6    -0.04   0.00  -0.01     0.06   0.02   0.02    -0.01  -0.08   0.01
 116   6    -0.06  -0.00   0.00     0.02   0.01   0.00    -0.00  -0.08   0.02
 117   1    -0.05   0.01  -0.00     0.04   0.01   0.01    -0.01  -0.02   0.00
 118   1    -0.03   0.01  -0.01     0.06   0.01   0.02    -0.01  -0.02   0.00
 119   1    -0.01   0.01  -0.01     0.05   0.01   0.02    -0.01  -0.02   0.00
 120   1    -0.01  -0.00   0.00    -0.01   0.00  -0.01     0.00  -0.02   0.01
 121   6     0.01  -0.00  -0.01     0.03   0.02   0.01     0.01  -0.08   0.02
 122   6     0.04  -0.02  -0.01     0.04   0.02  -0.01     0.04  -0.09   0.03
 123   6     0.09  -0.02  -0.01    -0.01   0.02  -0.01     0.06  -0.09   0.04
 124   6     0.09  -0.02  -0.01    -0.05   0.02  -0.00     0.05  -0.07   0.04
 125   7     0.06  -0.01  -0.01    -0.05   0.02   0.01     0.03  -0.06   0.03
 126   6     0.02   0.00  -0.01    -0.01   0.02   0.01     0.01  -0.06   0.02
 127   1     0.01  -0.01  -0.00     0.02   0.01  -0.00     0.01  -0.03   0.01
 128   1     0.03  -0.01  -0.00    -0.00   0.01  -0.01     0.02  -0.03   0.01
 129   1     0.03  -0.01  -0.00    -0.02   0.01  -0.00     0.02  -0.02   0.01
 130   1    -0.00   0.00  -0.00    -0.00   0.00   0.01    -0.00  -0.01   0.00
                      7                      8                      9
                        a                      a                      a 
 Frequencies --    27.7613                30.7055                32.4192
 Red. masses --    12.1479                37.5302                22.7418
 Frc consts  --     0.0000                 0.0000                 0.0000
 IR Inten    --     0.1026                 0.0034                 0.0639
 Raman Activ --     0.0000                 0.0000                 0.0000
 Depolar     --     0.0000                 0.0000                 0.0000
 Atom AN      X      Y      Z        X      Y      Z        X      Y      Z
   1  46     0.09   0.01  -0.05     0.01  -0.37  -0.01     0.26   0.01  -0.08
   2  46     0.01  -0.00   0.04    -0.01   0.37   0.01    -0.22  -0.00   0.00
   3   6     0.03  -0.07  -0.00     0.13  -0.00   0.03    -0.03   0.10   0.03
   4   6     0.04  -0.08  -0.01     0.10   0.01   0.03    -0.10   0.12   0.02
   5   6     0.02  -0.07  -0.02     0.05   0.03   0.02    -0.10   0.12   0.01
   6   6     0.00  -0.08  -0.05     0.01   0.00   0.01    -0.09   0.14  -0.03
   7   6    -0.02  -0.07  -0.05    -0.04   0.02  -0.01    -0.07   0.14  -0.04
   8   6    -0.01  -0.05  -0.02    -0.04   0.07  -0.02    -0.07   0.11  -0.03
   9   7     0.01  -0.05   0.00    -0.00   0.11  -0.01    -0.09   0.10   0.00
  10   6     0.03  -0.05   0.01     0.04   0.08   0.01    -0.10   0.10   0.02
  11   1     0.00  -0.03  -0.02     0.01  -0.01   0.00    -0.03   0.05  -0.01
  12   1    -0.01  -0.02  -0.02    -0.02   0.00  -0.01    -0.02   0.04  -0.02
  13   1    -0.01  -0.01  -0.01    -0.02   0.03  -0.01    -0.02   0.03  -0.01
  14   1     0.01  -0.01   0.01     0.02   0.03   0.00    -0.03   0.02   0.01
  15   6     0.02  -0.07   0.01     0.13  -0.00   0.02     0.01   0.08   0.02
  16   6     0.02  -0.07   0.01     0.13   0.03   0.00     0.02   0.05   0.02
  17   6     0.02  -0.07   0.02     0.10   0.05  -0.02     0.05   0.04   0.01
  18   6     0.02  -0.07   0.01     0.07   0.02  -0.01     0.08   0.07   0.01
  19   6     0.02  -0.08   0.00     0.07  -0.01   0.01     0.08   0.10   0.01
  20   6     0.02  -0.08   0.00     0.10  -0.02   0.03     0.05   0.11   0.01
  21   1     0.01  -0.02   0.00     0.04   0.01  -0.00    -0.00   0.01   0.01
  22   1     0.00  -0.02   0.01     0.03   0.02  -0.01     0.02   0.01   0.00
  23   1     0.00  -0.02   0.00     0.01   0.01  -0.01     0.03   0.02   0.00
  24   1     0.01  -0.02  -0.00     0.03  -0.01   0.01     0.01   0.04   0.00
  25   6     0.03  -0.07  -0.01     0.03  -0.04   0.00     0.09   0.11   0.02
  26   6     0.04  -0.09  -0.03    -0.00  -0.03  -0.01     0.09   0.12   0.05
  27   6     0.05  -0.08  -0.05    -0.04  -0.06  -0.03     0.08   0.11   0.04
  28   6     0.05  -0.06  -0.04    -0.03  -0.10  -0.02     0.07   0.10   0.01
  29   7     0.04  -0.05  -0.02     0.00  -0.12  -0.01     0.08   0.10  -0.01
  30   6     0.03  -0.06  -0.00     0.04  -0.08   0.01     0.09   0.10  -0.00
  31   1     0.01  -0.03  -0.01    -0.00  -0.00  -0.00     0.03   0.04   0.02
  32   1     0.02  -0.03  -0.02    -0.02  -0.02  -0.01     0.02   0.03   0.02
  33   1     0.02  -0.02  -0.02    -0.02  -0.03  -0.01     0.02   0.02  -0.00
  34   1     0.01  -0.01   0.00     0.02  -0.02   0.01     0.03   0.03  -0.00
  35   6    -0.11  -0.01   0.01    -0.03   0.00   0.13    -0.03   0.01  -0.00
  36   6    -0.15  -0.01   0.00    -0.03  -0.01   0.10    -0.04   0.01  -0.00
  37   6    -0.17  -0.01   0.01    -0.02  -0.03   0.05    -0.04   0.01  -0.00
  38   6    -0.30  -0.00   0.04    -0.01  -0.00   0.01    -0.13   0.02   0.01
  39   6    -0.27  -0.00   0.04     0.02  -0.03  -0.04    -0.12   0.02   0.01
  40   6    -0.13  -0.01   0.02     0.03  -0.08  -0.04    -0.02   0.01  -0.01
  41   7    -0.01  -0.01  -0.01     0.01  -0.11  -0.00     0.07   0.00  -0.02
  42   6    -0.03  -0.01  -0.02    -0.01  -0.08   0.04     0.06   0.00  -0.02
  43   1    -0.12   0.00   0.02    -0.00   0.01   0.00    -0.06   0.01   0.01
  44   1    -0.11   0.00   0.02     0.01  -0.00  -0.02    -0.05   0.01   0.01
  45   1    -0.03  -0.00   0.01     0.01  -0.03  -0.02    -0.00   0.00  -0.00
  46   1     0.02  -0.01  -0.01    -0.00  -0.03   0.02     0.04  -0.00  -0.01
  47   6    -0.05  -0.02   0.01    -0.02  -0.00   0.13    -0.01   0.01   0.00
  48   6     0.01  -0.03   0.03     0.00  -0.03   0.13     0.04   0.01   0.02
  49   6     0.09  -0.04   0.04     0.02  -0.04   0.10     0.07   0.01   0.03
  50   6     0.11  -0.03   0.04     0.01  -0.02   0.07     0.04   0.01   0.02
  51   6     0.05  -0.01   0.02    -0.01   0.01   0.07    -0.00   0.01   0.00
  52   6    -0.03  -0.01   0.01    -0.03   0.02   0.10    -0.03   0.01  -0.01
  53   1    -0.00  -0.01   0.01     0.00  -0.01   0.04     0.02   0.00   0.01
  54   1     0.04  -0.02   0.02     0.01  -0.02   0.03     0.03   0.00   0.01
  55   1     0.05  -0.01   0.01     0.01  -0.01   0.01     0.02   0.00   0.01
  56   1    -0.02   0.00  -0.00    -0.01   0.01   0.03    -0.02   0.00  -0.01
  57   6     0.07  -0.00   0.01    -0.00   0.04   0.03    -0.02   0.01  -0.00
  58   6     0.13   0.02  -0.01     0.01   0.03  -0.00     0.02   0.02  -0.01
  59   6     0.13   0.02  -0.01     0.02   0.06  -0.04     0.01   0.02  -0.02
  60   6     0.07   0.01  -0.00     0.02   0.10  -0.03    -0.03   0.02  -0.01
  61   7     0.02  -0.01   0.01     0.01   0.11   0.00    -0.07   0.01  -0.00
  62   6     0.01  -0.01   0.02    -0.01   0.08   0.03    -0.06   0.01   0.00
  63   1     0.05   0.01  -0.00     0.00   0.00  -0.00     0.01   0.01  -0.01
  64   1     0.05   0.01  -0.01     0.01   0.02  -0.02     0.01   0.01  -0.01
  65   1     0.02   0.00  -0.00     0.01   0.03  -0.02    -0.01   0.01  -0.00
  66   1    -0.01  -0.01   0.01    -0.01   0.02   0.02    -0.03  -0.00   0.00
  67   6     0.02   0.08   0.00    -0.13  -0.01  -0.03    -0.03  -0.10   0.03
  68   6     0.03   0.08  -0.01    -0.10   0.01  -0.03    -0.09  -0.13   0.02
  69   6     0.02   0.07  -0.02    -0.05   0.03  -0.02    -0.09  -0.13   0.01
  70   6    -0.00   0.08  -0.05    -0.01   0.01  -0.01    -0.08  -0.14  -0.03
  71   6    -0.02   0.07  -0.06     0.04   0.03   0.02    -0.06  -0.14  -0.05
  72   6    -0.02   0.05  -0.03     0.04   0.08   0.03    -0.06  -0.11  -0.03
  73   7     0.00   0.05   0.00    -0.00   0.11   0.01    -0.08  -0.11  -0.00
  74   6     0.02   0.06   0.01    -0.04   0.08  -0.01    -0.09  -0.11   0.01
  75   1    -0.00   0.03  -0.02    -0.00  -0.01  -0.00    -0.02  -0.05  -0.01
  76   1    -0.01   0.02  -0.02     0.02   0.00   0.01    -0.01  -0.04  -0.02
  77   1    -0.01   0.01  -0.01     0.02   0.03   0.01    -0.01  -0.03  -0.01
  78   1     0.01   0.01   0.01    -0.02   0.03  -0.00    -0.03  -0.03   0.01
  79   6     0.02   0.08   0.01    -0.13  -0.01  -0.02     0.01  -0.08   0.02
  80   6     0.01   0.07   0.03    -0.13   0.03   0.00     0.02  -0.05   0.03
  81   6     0.01   0.07   0.03    -0.10   0.04   0.02     0.05  -0.04   0.01
  82   6     0.01   0.08   0.02    -0.07   0.02   0.01     0.08  -0.06   0.01
  83   6     0.01   0.08   0.01    -0.07  -0.01  -0.01     0.08  -0.09   0.01
  84   6     0.02   0.08   0.01    -0.10  -0.03  -0.03     0.05  -0.10   0.01
  85   1     0.00   0.02   0.01    -0.04   0.01   0.00    -0.00  -0.01   0.01
  86   1     0.00   0.02   0.01    -0.03   0.02   0.01     0.02  -0.00   0.00
  87   1     0.00   0.02   0.01    -0.02   0.01   0.01     0.03  -0.01   0.00
  88   1     0.01   0.02  -0.00    -0.03  -0.02  -0.01     0.01  -0.04   0.00
  89   6     0.02   0.08  -0.01    -0.03  -0.04  -0.01     0.09  -0.10   0.01
  90   6     0.03   0.09  -0.03     0.00  -0.03   0.01     0.09  -0.11   0.04
  91   6     0.04   0.09  -0.05     0.04  -0.06   0.02     0.09  -0.11   0.03
  92   6     0.04   0.07  -0.05     0.04  -0.09   0.02     0.08  -0.09  -0.01
  93   7     0.03   0.06  -0.02     0.00  -0.11   0.00     0.09  -0.09  -0.02
  94   6     0.02   0.06  -0.00    -0.03  -0.08  -0.01     0.09  -0.09  -0.01
  95   1     0.01   0.03  -0.01     0.00  -0.00   0.00     0.03  -0.04   0.02
  96   1     0.01   0.03  -0.02     0.02  -0.01   0.01     0.02  -0.03   0.01
  97   1     0.01   0.02  -0.02     0.02  -0.03   0.01     0.02  -0.02  -0.01
  98   1     0.00   0.01   0.00    -0.02  -0.03  -0.01     0.03  -0.02  -0.01
  99   6    -0.11   0.00   0.01     0.03   0.01  -0.13    -0.03  -0.02  -0.00
 100   6    -0.15   0.00   0.00     0.03  -0.00  -0.10    -0.04  -0.02  -0.01
 101   6    -0.16  -0.00   0.01     0.02  -0.03  -0.05    -0.04  -0.02  -0.01
 102   6    -0.29  -0.02   0.03     0.01  -0.00  -0.01    -0.13  -0.03   0.01
 103   6    -0.26  -0.02   0.04    -0.01  -0.03   0.03    -0.12  -0.03   0.01
 104   6    -0.11  -0.00   0.01    -0.02  -0.08   0.04    -0.02  -0.01  -0.01
 105   7    -0.01   0.01  -0.01    -0.01  -0.11  -0.00     0.07   0.00  -0.02
 106   6    -0.03   0.01  -0.02     0.01  -0.08  -0.04     0.06  -0.00  -0.02
 107   1    -0.12  -0.01   0.01     0.00   0.01  -0.00    -0.06  -0.01   0.01
 108   1    -0.10  -0.01   0.02    -0.01  -0.00   0.02    -0.05  -0.01   0.01
 109   1    -0.02   0.00   0.00    -0.01  -0.03   0.02    -0.00  -0.00  -0.00
 110   1     0.02   0.01  -0.01     0.01  -0.03  -0.02     0.04   0.00  -0.01
 111   6    -0.05   0.01   0.01     0.02   0.01  -0.13    -0.01  -0.01  -0.00
 112   6     0.00   0.03   0.03     0.00  -0.03  -0.13     0.04  -0.01   0.02
 113   6     0.08   0.04   0.04    -0.02  -0.04  -0.10     0.06  -0.01   0.03
 114   6     0.10   0.03   0.03    -0.01  -0.02  -0.07     0.04  -0.01   0.02
 115   6     0.05   0.01   0.02     0.01   0.01  -0.07    -0.00  -0.01  -0.00
 116   6    -0.03   0.00   0.01     0.03   0.03  -0.10    -0.03  -0.02  -0.01
 117   1    -0.00   0.01   0.01    -0.00  -0.01  -0.04     0.02  -0.00   0.01
 118   1     0.03   0.02   0.02    -0.01  -0.02  -0.03     0.03  -0.00   0.01
 119   1     0.05   0.01   0.01    -0.01  -0.01  -0.01     0.02  -0.00   0.01
 120   1    -0.02  -0.00  -0.00     0.01   0.02  -0.03    -0.02  -0.01  -0.01
 121   6     0.07   0.01   0.01     0.00   0.04  -0.03    -0.01  -0.02  -0.01
 122   6     0.13  -0.01  -0.01    -0.01   0.03   0.01     0.03  -0.02  -0.02
 123   6     0.13  -0.01  -0.01    -0.03   0.06   0.04     0.02  -0.03  -0.02
 124   6     0.07  -0.00  -0.00    -0.03   0.09   0.03    -0.02  -0.02  -0.01
 125   7     0.02   0.01   0.01    -0.01   0.11   0.00    -0.07  -0.01  -0.00
 126   6     0.01   0.01   0.02     0.01   0.08  -0.03    -0.06  -0.01   0.00
 127   1     0.05  -0.01  -0.00    -0.00   0.00   0.00     0.02  -0.01  -0.01
 128   1     0.05  -0.01  -0.01    -0.01   0.01   0.02     0.01  -0.01  -0.01
 129   1     0.02  -0.00  -0.00    -0.01   0.03   0.02    -0.01  -0.01  -0.00
 130   1    -0.01   0.01   0.01     0.01   0.03  -0.02    -0.03  -0.00   0.00
                     10                     11                     12
                        a                      a                      a 
 Frequencies --    32.4785                33.6364                41.9839
 Red. masses --    22.8585                11.7687                11.4491
 Frc consts  --     0.0000                 0.0000                 0.0000
 IR Inten    --     0.0693                 0.0018                 0.0057
 Raman Activ --     0.0000                 0.0000                 0.0000
 Depolar     --     0.0000                 0.0000                 0.0000
 Atom AN      X      Y      Z        X      Y      Z        X      Y      Z
   1  46     0.00  -0.01   0.22    -0.00  -0.06  -0.00     0.00  -0.03  -0.00
   2  46    -0.08   0.00  -0.26     0.00   0.07   0.00    -0.00   0.03   0.00
   3   6    -0.00  -0.01   0.03     0.01   0.02  -0.12     0.03  -0.10  -0.06
   4   6    -0.01  -0.01   0.04    -0.00   0.03  -0.11     0.07  -0.12  -0.06
   5   6    -0.01  -0.01   0.04    -0.00   0.02  -0.07     0.05  -0.11  -0.02
   6   6     0.01  -0.03   0.13    -0.01   0.02  -0.07     0.01  -0.15   0.03
   7   6     0.01  -0.03   0.12    -0.01   0.01  -0.02    -0.03  -0.14   0.07
   8   6    -0.01  -0.01   0.02     0.00   0.01   0.04    -0.04  -0.08   0.05
   9   7    -0.02   0.00  -0.07     0.00   0.02   0.03    -0.01  -0.04   0.01
  10   6    -0.02   0.00  -0.06     0.00   0.02  -0.02     0.04  -0.06  -0.03
  11   1     0.01  -0.01   0.06    -0.00   0.01  -0.03     0.01  -0.06   0.01
  12   1     0.01  -0.01   0.06    -0.00   0.00  -0.00    -0.02  -0.05   0.03
  13   1    -0.00  -0.00   0.00     0.00   0.00   0.02    -0.02  -0.02   0.02
  14   1    -0.01   0.00  -0.04     0.00   0.01  -0.01     0.02  -0.01  -0.02
  15   6     0.00  -0.01   0.01     0.02   0.01  -0.09     0.01  -0.10  -0.05
  16   6     0.02  -0.01  -0.04     0.03  -0.01  -0.10    -0.00  -0.10  -0.03
  17   6     0.03  -0.01  -0.07     0.03  -0.02  -0.04    -0.02  -0.10   0.01
  18   6     0.02  -0.01  -0.05     0.03  -0.01   0.03    -0.03  -0.11   0.02
  19   6     0.00  -0.01   0.00     0.02   0.01   0.03    -0.02  -0.11  -0.00
  20   6    -0.01  -0.02   0.03     0.02   0.03  -0.04    -0.01  -0.11  -0.03
  21   1     0.01  -0.00  -0.02     0.01  -0.01  -0.04     0.00  -0.03  -0.01
  22   1     0.01  -0.00  -0.03     0.01  -0.01  -0.01    -0.01  -0.03   0.01
  23   1     0.01  -0.00  -0.02     0.01  -0.01   0.02    -0.01  -0.03   0.01
  24   1    -0.01  -0.01   0.02     0.01   0.01  -0.01    -0.00  -0.03  -0.01
  25   6    -0.00  -0.01   0.02     0.02   0.02   0.09    -0.01  -0.10  -0.00
  26   6    -0.01  -0.02  -0.02     0.02   0.06   0.20     0.02  -0.10   0.01
  27   6    -0.02  -0.02  -0.01     0.01   0.06   0.24     0.04  -0.08   0.02
  28   6    -0.01  -0.02   0.03     0.00   0.03   0.17     0.04  -0.05   0.02
  29   7    -0.00  -0.01   0.07     0.01  -0.01   0.07     0.01  -0.05   0.01
  30   6     0.00  -0.01   0.06     0.01  -0.01   0.03    -0.01  -0.07  -0.01
  31   1    -0.01  -0.01  -0.02     0.01   0.03   0.07     0.01  -0.04   0.00
  32   1    -0.01  -0.01  -0.01     0.00   0.03   0.10     0.02  -0.03   0.01
  33   1    -0.00  -0.01   0.01    -0.00   0.01   0.05     0.02  -0.01   0.01
  34   1     0.00   0.00   0.03     0.00  -0.01  -0.02    -0.01  -0.02  -0.01
  35   6     0.02   0.10   0.03     0.12  -0.02   0.01     0.05   0.11   0.03
  36   6     0.02   0.12   0.10     0.11  -0.02  -0.00     0.04   0.12   0.07
  37   6     0.00   0.12   0.10     0.07  -0.02  -0.01     0.02   0.11   0.05
  38   6    -0.03   0.14   0.09     0.08  -0.02  -0.01    -0.04   0.15   0.01
  39   6    -0.04   0.13   0.07     0.02  -0.02  -0.01    -0.07   0.13  -0.03
  40   6    -0.03   0.11   0.07    -0.03  -0.02  -0.00    -0.06   0.07  -0.04
  41   7    -0.01   0.10   0.08    -0.03  -0.02   0.00    -0.01   0.04  -0.01
  42   6     0.01   0.10   0.10     0.02  -0.02  -0.00     0.03   0.06   0.03
  43   1    -0.01   0.05   0.03     0.04  -0.01  -0.01    -0.02   0.06   0.01
  44   1    -0.02   0.04   0.02     0.01  -0.00  -0.00    -0.03   0.05  -0.02
  45   1    -0.01   0.03   0.02    -0.02  -0.00   0.00    -0.02   0.02  -0.02
  46   1     0.01   0.02   0.03     0.01  -0.01   0.00     0.02   0.01   0.02
  47   6     0.02   0.08  -0.01     0.09  -0.01   0.02     0.04   0.10   0.01
  48   6     0.02   0.05  -0.02     0.10   0.01   0.03     0.02   0.10  -0.00
  49   6     0.01   0.04  -0.05     0.04   0.02   0.04    -0.01   0.10  -0.02
  50   6     0.00   0.06  -0.08    -0.03   0.01   0.03    -0.02   0.10  -0.03
  51   6     0.01   0.10  -0.08    -0.02  -0.02   0.03    -0.00   0.11  -0.02
  52   6     0.01   0.11  -0.05     0.04  -0.03   0.03     0.02   0.11  -0.01
  53   1     0.01   0.01   0.00     0.04   0.01   0.01     0.01   0.03   0.00
  54   1     0.00   0.00  -0.02     0.01   0.01   0.01    -0.01   0.03  -0.01
  55   1    -0.00   0.02  -0.03    -0.02   0.01   0.01    -0.01   0.03  -0.01
  56   1     0.00   0.04  -0.01     0.01  -0.01   0.01     0.01   0.03  -0.00
  57   6     0.01   0.11  -0.09    -0.09  -0.03   0.02    -0.01   0.10  -0.01
  58   6     0.04   0.12  -0.09    -0.20  -0.08   0.02    -0.01   0.11   0.02
  59   6     0.03   0.11  -0.08    -0.24  -0.08   0.02    -0.02   0.08   0.04
  60   6    -0.00   0.09  -0.07    -0.17  -0.04   0.01    -0.02   0.05   0.04
  61   7    -0.02   0.09  -0.09    -0.07   0.00   0.01    -0.01   0.05   0.01
  62   6    -0.01   0.09  -0.09    -0.03   0.00   0.02     0.00   0.07  -0.01
  63   1     0.02   0.04  -0.03    -0.07  -0.03   0.01    -0.00   0.04   0.01
  64   1     0.01   0.03  -0.02    -0.09  -0.03   0.01    -0.01   0.03   0.02
  65   1    -0.01   0.02  -0.02    -0.05  -0.01  -0.00    -0.01   0.01   0.02
  66   1    -0.01   0.03  -0.03     0.02   0.01   0.00     0.00   0.02  -0.01
  67   6    -0.00   0.01   0.03    -0.01   0.02   0.12    -0.02  -0.11   0.06
  68   6    -0.01   0.01   0.04     0.00   0.02   0.11    -0.06  -0.13   0.05
  69   6    -0.01   0.01   0.04     0.01   0.02   0.08    -0.04  -0.12   0.02
  70   6     0.01   0.02   0.14     0.01   0.02   0.08    -0.00  -0.15  -0.03
  71   6     0.01   0.02   0.12     0.01   0.02   0.03     0.04  -0.13  -0.07
  72   6    -0.01   0.01   0.02     0.00   0.02  -0.03     0.04  -0.07  -0.05
  73   7    -0.02   0.00  -0.07    -0.00   0.02  -0.03     0.01  -0.04  -0.01
  74   6    -0.02   0.00  -0.06    -0.00   0.03   0.02    -0.03  -0.06   0.03
  75   1     0.01   0.01   0.06     0.01   0.01   0.04    -0.00  -0.06  -0.01
  76   1     0.01   0.01   0.06     0.00   0.00   0.01     0.02  -0.05  -0.03
  77   1    -0.00   0.00   0.00    -0.00   0.00  -0.02     0.02  -0.02  -0.02
  78   1    -0.01  -0.00  -0.04    -0.00   0.01   0.01    -0.02  -0.01   0.02
  79   6     0.00   0.01   0.01    -0.03   0.01   0.09     0.00  -0.10   0.04
  80   6     0.02   0.01  -0.04    -0.03  -0.02   0.10     0.01  -0.10   0.02
  81   6     0.03   0.01  -0.07    -0.03  -0.03   0.04     0.03  -0.10  -0.01
  82   6     0.02   0.01  -0.05    -0.03  -0.01  -0.03     0.04  -0.10  -0.03
  83   6     0.00   0.01   0.00    -0.03   0.02  -0.03     0.03  -0.11  -0.00
  84   6    -0.01   0.01   0.03    -0.03   0.03   0.04     0.01  -0.11   0.03
  85   1     0.01   0.00  -0.02    -0.01  -0.01   0.04     0.00  -0.03   0.01
  86   1     0.01   0.00  -0.03    -0.01  -0.01   0.01     0.01  -0.03  -0.01
  87   1     0.01   0.00  -0.02    -0.01  -0.01  -0.02     0.01  -0.03  -0.01
  88   1    -0.01   0.00   0.02    -0.01   0.01   0.01     0.00  -0.03   0.01
  89   6    -0.01   0.01   0.01    -0.03   0.03  -0.09     0.02  -0.10  -0.00
  90   6    -0.02   0.02  -0.03    -0.03   0.07  -0.20    -0.01  -0.11  -0.01
  91   6    -0.02   0.03  -0.02    -0.02   0.07  -0.24    -0.04  -0.09  -0.02
  92   6    -0.01   0.02   0.02    -0.01   0.03  -0.16    -0.04  -0.06  -0.02
  93   7    -0.00   0.01   0.07    -0.01  -0.00  -0.07    -0.01  -0.05  -0.01
  94   6     0.00   0.00   0.06    -0.02  -0.00  -0.03     0.02  -0.07   0.00
  95   1    -0.01   0.01  -0.02    -0.01   0.03  -0.07    -0.00  -0.04  -0.00
  96   1    -0.01   0.01  -0.02    -0.01   0.03  -0.09    -0.02  -0.03  -0.01
  97   1    -0.00   0.00   0.01    -0.00   0.01  -0.05    -0.02  -0.01  -0.01
  98   1     0.00  -0.00   0.03    -0.00  -0.01   0.01     0.01  -0.02   0.01
  99   6     0.03  -0.10   0.03    -0.12  -0.02  -0.01    -0.07   0.11  -0.02
 100   6     0.03  -0.12   0.09    -0.10  -0.03  -0.00    -0.06   0.12  -0.06
 101   6     0.01  -0.13   0.10    -0.07  -0.02   0.00    -0.03   0.12  -0.04
 102   6    -0.02  -0.14   0.08    -0.07  -0.02   0.01     0.03   0.16  -0.01
 103   6    -0.04  -0.14   0.07    -0.01  -0.01   0.01     0.07   0.14   0.04
 104   6    -0.02  -0.11   0.06     0.04  -0.01  -0.00     0.05   0.08   0.04
 105   7     0.00  -0.11   0.08     0.03  -0.02  -0.01     0.00   0.04   0.01
 106   6     0.02  -0.10   0.09    -0.02  -0.02  -0.00    -0.03   0.06  -0.03
 107   1    -0.01  -0.05   0.02    -0.03  -0.01   0.00     0.01   0.06  -0.00
 108   1    -0.02  -0.04   0.02    -0.00  -0.00   0.00     0.03   0.05   0.02
 109   1    -0.01  -0.03   0.01     0.02  -0.00  -0.00     0.02   0.02   0.02
 110   1     0.01  -0.03   0.03    -0.01  -0.01  -0.00    -0.02   0.01  -0.02
 111   6     0.02  -0.08  -0.02    -0.09  -0.01  -0.03    -0.05   0.10  -0.00
 112   6     0.03  -0.05  -0.02    -0.10   0.01  -0.03    -0.03   0.10   0.00
 113   6     0.01  -0.04  -0.06    -0.05   0.02  -0.04     0.00   0.10   0.02
 114   6     0.01  -0.06  -0.09     0.02   0.01  -0.03     0.02   0.11   0.03
 115   6     0.01  -0.09  -0.08     0.02  -0.01  -0.03    -0.00   0.11   0.02
 116   6     0.02  -0.10  -0.05    -0.04  -0.02  -0.03    -0.03   0.10   0.01
 117   1     0.01  -0.01   0.00    -0.04   0.01  -0.01    -0.01   0.03  -0.00
 118   1     0.00  -0.00  -0.02    -0.01   0.01  -0.01     0.01   0.03   0.01
 119   1     0.00  -0.01  -0.03     0.02   0.01  -0.01     0.01   0.03   0.01
 120   1     0.00  -0.04  -0.01    -0.01  -0.01  -0.01    -0.01   0.03   0.00
 121   6     0.02  -0.10  -0.09     0.09  -0.02  -0.02     0.00   0.10   0.02
 122   6     0.05  -0.11  -0.09     0.20  -0.06  -0.03     0.02   0.10  -0.01
 123   6     0.04  -0.10  -0.09     0.25  -0.06  -0.02     0.03   0.08  -0.04
 124   6     0.00  -0.09  -0.08     0.17  -0.02  -0.01     0.03   0.05  -0.04
 125   7    -0.02  -0.09  -0.09     0.07   0.01  -0.01     0.01   0.05  -0.01
 126   6    -0.01  -0.09  -0.09     0.03   0.01  -0.01    -0.01   0.07   0.02
 127   1     0.02  -0.04  -0.03     0.07  -0.03  -0.01     0.00   0.04  -0.00
 128   1     0.02  -0.03  -0.02     0.10  -0.02  -0.01     0.01   0.03  -0.02
 129   1    -0.00  -0.02  -0.02     0.05  -0.00   0.00     0.01   0.01  -0.02
 130   1    -0.01  -0.02  -0.03    -0.02   0.01  -0.00    -0.01   0.02   0.01
                     13                     14                     15
                        a                      a                      a 
 Frequencies --    44.4123                44.6986                44.8128
 Red. masses --    11.4448                11.9592                12.3079
 Frc consts  --     0.0000                 0.0000                 0.0000
 IR Inten    --     0.0782                 0.1087                 0.1262
 Raman Activ --     0.0000                 0.0000                 0.0000
 Depolar     --     0.0000                 0.0000                 0.0000
 Atom AN      X      Y      Z        X      Y      Z        X      Y      Z
   1  46     0.00   0.02   0.03     0.01   0.02   0.01     0.02  -0.01   0.13
   2  46    -0.08   0.02   0.01     0.11   0.02  -0.02     0.01  -0.01   0.00
   3   6    -0.02  -0.00   0.07     0.03  -0.00  -0.00     0.02   0.00   0.14
   4   6    -0.02   0.00   0.03     0.04  -0.00  -0.03     0.01   0.01   0.10
   5   6    -0.03   0.01  -0.01     0.04  -0.00  -0.05    -0.00   0.02   0.03
   6   6    -0.05   0.03  -0.12     0.02   0.01  -0.14    -0.02   0.05  -0.10
   7   6    -0.06   0.04  -0.16     0.01   0.01  -0.14    -0.03   0.06  -0.18
   8   6    -0.05   0.03  -0.08     0.02   0.01  -0.06    -0.02   0.04  -0.13
   9   7    -0.03   0.01   0.02     0.04  -0.00   0.01    -0.00   0.02  -0.02
  10   6    -0.02   0.01   0.05     0.05  -0.01   0.01     0.01   0.01   0.06
  11   1    -0.02   0.01  -0.05     0.00   0.00  -0.06    -0.01   0.02  -0.04
  12   1    -0.02   0.01  -0.07    -0.00   0.01  -0.06    -0.01   0.02  -0.08
  13   1    -0.01   0.01  -0.03     0.01   0.00  -0.01    -0.01   0.01  -0.05
  14   1    -0.00  -0.00   0.04     0.02  -0.00   0.02     0.01  -0.00   0.04
  15   6    -0.03   0.00   0.07     0.01   0.00   0.02     0.02   0.01   0.12
  16   6    -0.05   0.02   0.13    -0.02   0.01   0.08     0.02   0.04   0.09
  17   6    -0.06   0.03   0.10    -0.04   0.02   0.10     0.02   0.05   0.01
  18   6    -0.05   0.02   0.01    -0.03   0.01   0.05     0.02   0.04  -0.04
  19   6    -0.03  -0.00  -0.03    -0.01  -0.00  -0.00     0.01   0.00   0.00
  20   6    -0.02  -0.01   0.00     0.01  -0.01  -0.01     0.00  -0.01   0.09
  21   1    -0.02   0.01   0.06    -0.01   0.01   0.03     0.01   0.02   0.03
  22   1    -0.02   0.01   0.04    -0.02   0.01   0.04     0.01   0.02  -0.00
  23   1    -0.02   0.01  -0.01    -0.01   0.00   0.01     0.00   0.02  -0.03
  24   1    -0.00  -0.01  -0.01     0.01  -0.00  -0.02    -0.00  -0.01   0.03
  25   6    -0.02  -0.01  -0.09    -0.01  -0.01  -0.04    -0.00  -0.01  -0.05
  26   6    -0.03  -0.05  -0.20    -0.01  -0.03  -0.10    -0.03  -0.06  -0.20
  27   6    -0.02  -0.05  -0.23    -0.01  -0.03  -0.12    -0.03  -0.07  -0.25
  28   6    -0.01  -0.02  -0.15    -0.01  -0.02  -0.09    -0.01  -0.04  -0.13
  29   7    -0.01   0.01  -0.06    -0.00  -0.00  -0.04     0.00  -0.00   0.02
  30   6    -0.01   0.01  -0.03    -0.00  -0.00  -0.02     0.01   0.01   0.06
  31   1    -0.01  -0.02  -0.07    -0.00  -0.01  -0.03    -0.01  -0.03  -0.08
  32   1    -0.01  -0.02  -0.09    -0.00  -0.01  -0.05    -0.02  -0.03  -0.11
  33   1    -0.00  -0.00  -0.04    -0.00  -0.01  -0.03    -0.00  -0.01  -0.04
  34   1    -0.00   0.01   0.01     0.00   0.00   0.01     0.01   0.01   0.05
  35   6    -0.06  -0.01   0.02     0.13   0.01  -0.01     0.04   0.00   0.03
  36   6    -0.06  -0.02   0.01     0.07   0.02  -0.00     0.05   0.01   0.04
  37   6    -0.04  -0.02   0.01    -0.01   0.02   0.01     0.05   0.01   0.04
  38   6    -0.03  -0.02   0.02    -0.20   0.04   0.04     0.07   0.01   0.04
  39   6     0.01  -0.02   0.02    -0.27   0.05   0.05     0.06   0.01   0.03
  40   6     0.04  -0.01   0.01    -0.16   0.04   0.03     0.02   0.01   0.04
  41   7     0.03  -0.01   0.01    -0.00   0.02   0.01    -0.00   0.01   0.05
  42   6    -0.01  -0.01   0.01     0.07   0.02  -0.00     0.01   0.01   0.05
  43   1    -0.02  -0.01   0.01    -0.08   0.02   0.02     0.03   0.00   0.01
  44   1     0.00  -0.01   0.01    -0.12   0.02   0.02     0.02   0.00   0.01
  45   1     0.02  -0.00   0.00    -0.06   0.01   0.01    -0.00   0.00   0.01
  46   1    -0.00  -0.00   0.00     0.06   0.00  -0.01    -0.00   0.00   0.02
  47   6    -0.04  -0.01   0.03     0.13   0.02   0.01     0.01   0.00   0.02
  48   6     0.03  -0.02   0.05     0.17   0.05   0.03    -0.02  -0.00   0.00
  49   6     0.07  -0.02   0.06     0.11   0.07   0.04    -0.05  -0.01  -0.01
  50   6     0.05  -0.02   0.05    -0.00   0.04   0.03    -0.04  -0.00  -0.01
  51   6    -0.02  -0.01   0.02    -0.02   0.00   0.02    -0.01   0.00   0.00
  52   6    -0.06  -0.01   0.01     0.05  -0.01   0.01     0.02   0.00   0.02
  53   1     0.02  -0.01   0.02     0.07   0.02   0.01    -0.01  -0.00   0.00
  54   1     0.04  -0.01   0.02     0.04   0.03   0.02    -0.02  -0.00  -0.01
  55   1     0.02  -0.01   0.02    -0.02   0.02   0.01    -0.02  -0.00  -0.01
  56   1    -0.03  -0.00  -0.00     0.01  -0.01  -0.00     0.01   0.00   0.01
  57   6    -0.03  -0.01   0.01    -0.11  -0.02   0.02     0.00   0.00   0.00
  58   6     0.01   0.00  -0.00    -0.30  -0.10   0.04     0.00   0.00   0.00
  59   6     0.02   0.01  -0.01    -0.36  -0.11   0.04     0.01   0.01   0.00
  60   6    -0.01   0.01  -0.00    -0.21  -0.05   0.02     0.02   0.01  -0.00
  61   7    -0.06   0.00   0.01    -0.04   0.01   0.01     0.02   0.01   0.00
  62   6    -0.06  -0.01   0.02     0.01   0.02   0.00     0.01   0.01   0.00
  63   1     0.01   0.00  -0.00    -0.11  -0.04   0.02    -0.00   0.00   0.00
  64   1     0.01   0.01  -0.01    -0.15  -0.05   0.02     0.00   0.00   0.00
  65   1    -0.00   0.00  -0.00    -0.07  -0.02   0.00     0.01   0.00  -0.00
  66   1    -0.03  -0.01   0.01     0.04   0.02  -0.01     0.00   0.00   0.00
  67   6    -0.01  -0.00   0.03     0.03  -0.00  -0.02     0.02  -0.01   0.15
  68   6    -0.02  -0.01   0.06     0.03   0.00  -0.01     0.01  -0.02   0.09
  69   6    -0.02  -0.01   0.06     0.04   0.00  -0.00    -0.00  -0.03   0.00
  70   6    -0.01  -0.00   0.12     0.05   0.01   0.04    -0.03  -0.05  -0.18
  71   6    -0.00  -0.00   0.10     0.05   0.01   0.04    -0.04  -0.06  -0.26
  72   6    -0.01  -0.00   0.03     0.05   0.01   0.01    -0.02  -0.04  -0.17
  73   7    -0.03  -0.01  -0.01     0.04   0.01  -0.02     0.00  -0.02  -0.01
  74   6    -0.03  -0.01   0.00     0.04   0.01  -0.03     0.01  -0.01   0.07
  75   1     0.00  -0.00   0.05     0.01   0.00   0.02    -0.01  -0.02  -0.07
  76   1     0.00  -0.00   0.04     0.02   0.00   0.02    -0.02  -0.02  -0.11
  77   1    -0.00  -0.00   0.00     0.01   0.00   0.00    -0.01  -0.01  -0.06
  78   1    -0.01  -0.00  -0.01     0.01   0.00  -0.01     0.01   0.00   0.06
  79   6     0.01  -0.00  -0.00     0.03  -0.00  -0.02     0.01  -0.01   0.14
  80   6     0.04   0.01  -0.08     0.05   0.00  -0.06    -0.00  -0.05   0.15
  81   6     0.06   0.01  -0.11     0.05   0.01  -0.05    -0.01  -0.07   0.07
  82   6     0.05   0.01  -0.06     0.04   0.00  -0.01    -0.01  -0.05  -0.02
  83   6     0.02  -0.00   0.01     0.02  -0.00   0.02    -0.01  -0.00  -0.01
  84   6    -0.00  -0.01   0.04     0.02  -0.01   0.01    -0.00   0.01   0.07
  85   1     0.01   0.00  -0.03     0.02   0.00  -0.03    -0.00  -0.02   0.06
  86   1     0.02   0.01  -0.05     0.02   0.00  -0.02    -0.01  -0.03   0.02
  87   1     0.02   0.00  -0.02     0.01   0.00   0.00    -0.01  -0.02  -0.03
  88   1    -0.01  -0.00   0.03     0.00  -0.00   0.01    -0.00   0.01   0.02
  89   6     0.01  -0.01   0.05     0.02  -0.01   0.05    -0.02   0.02  -0.09
  90   6     0.01  -0.02   0.06     0.01  -0.02   0.08    -0.04   0.09  -0.28
  91   6     0.01  -0.02   0.08     0.01  -0.02   0.09    -0.05   0.10  -0.34
  92   6     0.01  -0.01   0.07     0.00  -0.00   0.06    -0.02   0.05  -0.19
  93   7     0.01  -0.00   0.06     0.01   0.01   0.04    -0.00  -0.00  -0.01
  94   6     0.01  -0.00   0.05     0.01   0.00   0.04     0.00  -0.01   0.03
  95   1     0.00  -0.01   0.02     0.00  -0.01   0.03    -0.02   0.04  -0.11
  96   1     0.00  -0.01   0.03     0.00  -0.01   0.03    -0.02   0.04  -0.14
  97   1     0.00  -0.00   0.02    -0.00   0.00   0.02    -0.01   0.02  -0.06
  98   1     0.00  -0.00   0.01     0.00   0.00   0.00     0.01  -0.02   0.05
  99   6    -0.09  -0.01   0.02     0.11  -0.00  -0.02     0.04   0.00   0.03
 100   6    -0.03   0.00   0.02     0.09  -0.01   0.00     0.04  -0.00   0.04
 101   6     0.04   0.01   0.01     0.04  -0.02   0.01     0.02  -0.01   0.04
 102   6     0.21   0.04  -0.03    -0.02  -0.04   0.01     0.00  -0.01   0.05
 103   6     0.26   0.05  -0.04    -0.09  -0.04   0.01    -0.01  -0.01   0.05
 104   6     0.14   0.04  -0.02    -0.09  -0.03   0.01    -0.01  -0.01   0.05
 105   7    -0.01   0.01   0.01    -0.02  -0.02   0.01     0.01  -0.01   0.05
 106   6    -0.06   0.00   0.02     0.04  -0.01   0.00     0.02  -0.01   0.04
 107   1     0.09   0.02  -0.01    -0.01  -0.01   0.00     0.00  -0.00   0.01
 108   1     0.11   0.02  -0.02    -0.04  -0.02   0.00    -0.01  -0.00   0.02
 109   1     0.05   0.01  -0.01    -0.04  -0.01   0.00    -0.01  -0.00   0.02
 110   1    -0.05  -0.01   0.01     0.03   0.00   0.00     0.01  -0.00   0.01
 111   6    -0.11   0.00  -0.01     0.08  -0.01  -0.02     0.03   0.00   0.03
 112   6    -0.17   0.03  -0.03     0.03  -0.03  -0.04     0.03  -0.00   0.03
 113   6    -0.13   0.05  -0.05    -0.04  -0.04  -0.05     0.01  -0.00   0.02
 114   6    -0.03   0.03  -0.04    -0.05  -0.03  -0.04    -0.02  -0.00   0.02
 115   6     0.02  -0.00  -0.02     0.01  -0.01  -0.01    -0.02   0.00   0.02
 116   6    -0.03  -0.02  -0.01     0.08   0.00  -0.01     0.01   0.00   0.02
 117   1    -0.07   0.01  -0.01     0.01  -0.01  -0.01     0.01  -0.00   0.01
 118   1    -0.05   0.02  -0.02    -0.03  -0.02  -0.02     0.00  -0.00   0.01
 119   1     0.01   0.02  -0.02    -0.03  -0.01  -0.01    -0.01  -0.00   0.00
 120   1     0.00  -0.01   0.00     0.04   0.01   0.00     0.00   0.00   0.01
 121   6     0.10  -0.02  -0.02    -0.01   0.00  -0.00    -0.04   0.00   0.01
 122   6     0.26  -0.07  -0.04    -0.12   0.03   0.02    -0.07   0.01   0.01
 123   6     0.32  -0.08  -0.04    -0.14   0.04   0.02    -0.07   0.01   0.01
 124   6     0.20  -0.04  -0.02    -0.06   0.02   0.01    -0.04  -0.00   0.00
 125   7     0.05   0.00  -0.01     0.05   0.00  -0.01    -0.02  -0.01   0.00
 126   6     0.01   0.01  -0.01     0.07  -0.01  -0.02    -0.01  -0.01   0.01
 127   1     0.10  -0.03  -0.01    -0.05   0.01   0.01    -0.03   0.01   0.00
 128   1     0.13  -0.03  -0.02    -0.07   0.02   0.01    -0.03   0.01   0.00
 129   1     0.06  -0.01  -0.00    -0.02   0.01   0.00    -0.01  -0.00  -0.00
 130   1    -0.03   0.01   0.00     0.04  -0.01  -0.01     0.00  -0.00   0.00
                     16                     17                     18
                        a                      a                      a 
 Frequencies --    55.7336                58.1924                61.0467
 Red. masses --    13.4192                11.0487                14.1121
 Frc consts  --     0.0000                 0.0000                 0.0000
 IR Inten    --     0.0022                 0.0491                 0.1543
 Raman Activ --     0.0000                 0.0000                 0.0000
 Depolar     --     0.0000                 0.0000                 0.0000
 Atom AN      X      Y      Z        X      Y      Z        X      Y      Z
   1  46     0.01  -0.12  -0.00     0.00  -0.04  -0.00    -0.16  -0.00  -0.10
   2  46    -0.00   0.12   0.00     0.00  -0.03   0.00    -0.01   0.00  -0.01
   3   6     0.02   0.03  -0.11     0.03  -0.01   0.17     0.09  -0.02   0.14
   4   6     0.01   0.04  -0.10     0.00   0.01   0.15     0.05  -0.01   0.14
   5   6     0.00   0.03  -0.05    -0.00   0.01   0.07     0.02   0.01   0.08
   6   6     0.02   0.00   0.09    -0.01   0.04  -0.02    -0.01   0.02  -0.02
   7   6     0.03  -0.00   0.15    -0.01   0.05  -0.13    -0.03   0.04  -0.11
   8   6     0.01   0.02   0.07    -0.01   0.03  -0.13    -0.03   0.04  -0.10
   9   7    -0.01   0.05  -0.06    -0.00   0.01  -0.05    -0.00   0.03  -0.00
  10   6    -0.01   0.05  -0.13    -0.00   0.00   0.05     0.02   0.02   0.09
  11   1     0.01  -0.00   0.05    -0.00   0.01  -0.00    -0.00   0.00  -0.01
  12   1     0.01  -0.01   0.08    -0.00   0.02  -0.06    -0.01   0.01  -0.06
  13   1     0.00   0.00   0.03    -0.00   0.01  -0.06    -0.01   0.02  -0.05
  14   1    -0.01   0.02  -0.07    -0.00  -0.01   0.03     0.01   0.00   0.04
  15   6     0.00   0.03  -0.07     0.04  -0.00   0.12     0.10  -0.02   0.08
  16   6    -0.05   0.03   0.09     0.09   0.02  -0.02     0.17   0.02  -0.12
  17   6    -0.09   0.02   0.16     0.11   0.04  -0.12     0.16   0.04  -0.20
  18   6    -0.06   0.03   0.08     0.09   0.02  -0.09     0.10   0.01  -0.09
  19   6    -0.01   0.03  -0.07     0.04  -0.00   0.04     0.03  -0.02   0.09
  20   6     0.03   0.03  -0.15     0.02  -0.02   0.15     0.04  -0.04   0.18
  21   1    -0.02   0.01   0.05     0.03   0.01  -0.01     0.06   0.01  -0.06
  22   1    -0.04   0.01   0.08     0.04   0.02  -0.06     0.06   0.02  -0.10
  23   1    -0.03   0.01   0.04     0.03   0.01  -0.05     0.03   0.01  -0.04
  24   1     0.02   0.01  -0.08    -0.01  -0.01   0.07    -0.00  -0.02   0.09
  25   6    -0.01   0.02  -0.08     0.02  -0.01   0.03    -0.00  -0.05   0.11
  26   6    -0.01   0.05  -0.02     0.01  -0.03  -0.03    -0.02  -0.03   0.15
  27   6    -0.03   0.04   0.01     0.00  -0.03  -0.04    -0.03  -0.04   0.13
  28   6    -0.03   0.00  -0.02     0.01  -0.03   0.00    -0.04  -0.08   0.05
  29   7    -0.02  -0.02  -0.09     0.02  -0.02   0.05    -0.03  -0.10   0.00
  30   6    -0.01  -0.01  -0.12     0.03  -0.01   0.07    -0.01  -0.08   0.05
  31   1    -0.00   0.02   0.01    -0.00  -0.01  -0.02    -0.00   0.00   0.05
  32   1    -0.01   0.02   0.02    -0.00  -0.01  -0.02    -0.01  -0.01   0.05
  33   1    -0.01  -0.00   0.00     0.00  -0.01  -0.00    -0.02  -0.03   0.00
  34   1     0.00  -0.01  -0.05     0.01   0.00   0.03    -0.00  -0.02   0.01
  35   6     0.09  -0.03   0.02     0.18   0.00  -0.03    -0.04   0.01  -0.04
  36   6     0.08  -0.03   0.01     0.16   0.01  -0.00    -0.05   0.01  -0.04
  37   6     0.05  -0.03   0.00     0.07   0.02   0.00    -0.04   0.01  -0.04
  38   6    -0.09  -0.01   0.02    -0.03   0.04   0.01     0.02   0.00  -0.05
  39   6    -0.14  -0.01   0.02    -0.14   0.04   0.01     0.03   0.00  -0.06
  40   6    -0.06  -0.03   0.01    -0.14   0.02   0.01    -0.00   0.00  -0.05
  41   7     0.07  -0.05  -0.01    -0.04   0.00   0.00    -0.06   0.01  -0.04
  42   6     0.12  -0.05  -0.01     0.06   0.00   0.00    -0.07   0.01  -0.04
  43   1    -0.05  -0.00   0.01    -0.01   0.02   0.00     0.01  -0.00  -0.02
  44   1    -0.07   0.00   0.01    -0.07   0.02   0.00     0.02  -0.00  -0.02
  45   1    -0.03  -0.01   0.00    -0.06   0.01   0.00     0.00   0.00  -0.02
  46   1     0.07  -0.02  -0.01     0.04  -0.00   0.00    -0.03   0.00  -0.01
  47   6     0.06  -0.03   0.01     0.13   0.00  -0.05    -0.02   0.01  -0.03
  48   6    -0.08  -0.04  -0.04    -0.02   0.02  -0.10     0.03   0.02  -0.01
  49   6    -0.14  -0.04  -0.07    -0.14   0.03  -0.12     0.06   0.03   0.02
  50   6    -0.07  -0.03  -0.05    -0.10   0.02  -0.09     0.03   0.02   0.02
  51   6     0.06  -0.02  -0.00     0.04  -0.00  -0.04    -0.02   0.01  -0.01
  52   6     0.14  -0.02   0.03     0.16  -0.01  -0.02    -0.05   0.01  -0.03
  53   1    -0.04  -0.01  -0.02    -0.02   0.01  -0.04     0.01   0.01  -0.00
  54   1    -0.07  -0.01  -0.03    -0.07   0.01  -0.05     0.03   0.01   0.01
  55   1    -0.03  -0.01  -0.03    -0.06   0.01  -0.03     0.02   0.01   0.01
  56   1     0.07  -0.01   0.02     0.08  -0.01   0.01    -0.02   0.00  -0.01
  57   6     0.08  -0.02  -0.01     0.04  -0.01  -0.02    -0.03   0.00  -0.00
  58   6     0.02  -0.04  -0.01    -0.03  -0.04  -0.00    -0.04  -0.00  -0.00
  59   6    -0.00  -0.03  -0.03    -0.04  -0.04   0.00    -0.04  -0.00   0.00
  60   6     0.02  -0.00  -0.03     0.00  -0.03  -0.01    -0.02  -0.00  -0.00
  61   7     0.09   0.03  -0.02     0.06  -0.02  -0.02    -0.01   0.00  -0.00
  62   6     0.12   0.02  -0.01     0.08  -0.00  -0.03    -0.02  -0.00  -0.00
  63   1    -0.01  -0.02  -0.00    -0.02  -0.01   0.00    -0.01  -0.00   0.00
  64   1    -0.01  -0.02  -0.01    -0.03  -0.02   0.00    -0.01  -0.00   0.00
  65   1    -0.00   0.00  -0.01    -0.00  -0.01  -0.00    -0.00   0.00  -0.00
  66   1     0.05   0.01   0.00     0.04   0.00  -0.01    -0.00   0.00  -0.00
  67   6    -0.02   0.03   0.10    -0.03  -0.00  -0.17     0.09   0.02   0.14
  68   6    -0.01   0.03   0.10    -0.00   0.01  -0.14     0.05   0.01   0.14
  69   6    -0.00   0.03   0.05     0.00   0.02  -0.06     0.02  -0.01   0.08
  70   6    -0.02   0.01  -0.10     0.00   0.04   0.03    -0.00  -0.02  -0.02
  71   6    -0.02   0.00  -0.16     0.00   0.04   0.13    -0.03  -0.03  -0.12
  72   6    -0.01   0.02  -0.07     0.00   0.03   0.13    -0.02  -0.04  -0.10
  73   7     0.01   0.05   0.07     0.00   0.01   0.05    -0.00  -0.03  -0.00
  74   6     0.01   0.05   0.12     0.00   0.00  -0.04     0.02  -0.02   0.09
  75   1    -0.01  -0.00  -0.05     0.00   0.02   0.00    -0.00  -0.00  -0.01
  76   1    -0.01  -0.00  -0.08     0.00   0.02   0.06    -0.01  -0.01  -0.06
  77   1    -0.00   0.01  -0.03     0.00   0.01   0.06    -0.01  -0.02  -0.05
  78   1     0.01   0.02   0.07     0.00  -0.00  -0.03     0.01  -0.00   0.04
  79   6    -0.00   0.03   0.07    -0.05  -0.00  -0.12     0.10   0.02   0.08
  80   6     0.05   0.03  -0.09    -0.09   0.02   0.01     0.17  -0.01  -0.12
  81   6     0.08   0.04  -0.15    -0.11   0.03   0.11     0.17  -0.02  -0.20
  82   6     0.06   0.03  -0.08    -0.08   0.02   0.09     0.10  -0.00  -0.09
  83   6     0.00   0.02   0.07    -0.04  -0.00  -0.03     0.03   0.02   0.09
  84   6    -0.03   0.02   0.15    -0.02  -0.01  -0.14     0.03   0.04   0.18
  85   1     0.02   0.01  -0.04    -0.03   0.01   0.01     0.06  -0.01  -0.06
  86   1     0.04   0.01  -0.08    -0.04   0.01   0.06     0.06  -0.01  -0.10
  87   1     0.03   0.01  -0.04    -0.03   0.01   0.05     0.03  -0.00  -0.04
  88   1    -0.02   0.01   0.08     0.01  -0.01  -0.07    -0.01   0.02   0.09
  89   6     0.01   0.02   0.09    -0.02  -0.01  -0.03    -0.00   0.04   0.12
  90   6     0.01   0.05   0.02    -0.00  -0.03   0.04    -0.02   0.02   0.15
  91   6     0.03   0.04  -0.01     0.00  -0.04   0.05    -0.04   0.03   0.13
  92   6     0.03   0.01   0.02    -0.01  -0.03   0.00    -0.05   0.07   0.05
  93   7     0.02  -0.02   0.09    -0.02  -0.02  -0.05    -0.04   0.10   0.01
  94   6     0.01  -0.02   0.12    -0.03  -0.01  -0.07    -0.02   0.07   0.05
  95   1     0.00   0.02  -0.01     0.00  -0.01   0.02    -0.00  -0.00   0.05
  96   1     0.01   0.02  -0.02     0.00  -0.01   0.03    -0.01   0.01   0.05
  97   1     0.01   0.00  -0.00    -0.00  -0.01   0.00    -0.02   0.03   0.00
  98   1     0.00  -0.01   0.05    -0.01   0.00  -0.03    -0.01   0.02   0.01
  99   6    -0.09  -0.03  -0.02    -0.17  -0.01   0.03    -0.04  -0.01  -0.04
 100   6    -0.09  -0.04  -0.01    -0.15   0.00   0.00    -0.05  -0.01  -0.04
 101   6    -0.05  -0.03  -0.00    -0.07   0.01  -0.00    -0.04  -0.01  -0.04
 102   6     0.09  -0.01  -0.02     0.03   0.04  -0.00     0.02   0.00  -0.05
 103   6     0.14   0.00  -0.02     0.13   0.05  -0.01     0.03   0.00  -0.06
 104   6     0.06  -0.02  -0.01     0.13   0.03  -0.00    -0.00  -0.00  -0.05
 105   7    -0.07  -0.05   0.01     0.04   0.00  -0.00    -0.06  -0.01  -0.04
 106   6    -0.12  -0.05   0.01    -0.06  -0.00  -0.00    -0.07  -0.01  -0.04
 107   1     0.05   0.00  -0.01     0.01   0.02  -0.00     0.01   0.00  -0.02
 108   1     0.07   0.01  -0.01     0.06   0.02  -0.00     0.02   0.00  -0.02
 109   1     0.03  -0.00  -0.00     0.06   0.01  -0.00     0.00   0.00  -0.02
 110   1    -0.06  -0.02   0.01    -0.03  -0.01  -0.00    -0.03  -0.01  -0.01
 111   6    -0.06  -0.03  -0.01    -0.12  -0.01   0.04    -0.02  -0.01  -0.03
 112   6     0.09  -0.03   0.05     0.02   0.02   0.09     0.03  -0.02  -0.01
 113   6     0.15  -0.03   0.08     0.13   0.03   0.11     0.06  -0.02   0.01
 114   6     0.07  -0.03   0.06     0.10   0.02   0.09     0.03  -0.02   0.01
 115   6    -0.06  -0.03   0.00    -0.04  -0.00   0.04    -0.02  -0.01  -0.01
 116   6    -0.14  -0.03  -0.03    -0.15  -0.02   0.02    -0.04  -0.01  -0.03
 117   1     0.05  -0.01   0.02     0.01   0.01   0.03     0.02  -0.01  -0.00
 118   1     0.08  -0.01   0.03     0.07   0.02   0.04     0.03  -0.01   0.01
 119   1     0.04  -0.01   0.03     0.05   0.01   0.03     0.02  -0.01   0.01
 120   1    -0.07  -0.01  -0.02    -0.07  -0.01  -0.01    -0.02  -0.00  -0.01
 121   6    -0.08  -0.02   0.00    -0.03  -0.02   0.02    -0.03  -0.00  -0.00
 122   6    -0.02  -0.04   0.01     0.04  -0.03   0.00    -0.04   0.00  -0.00
 123   6    -0.00  -0.03   0.03     0.05  -0.04   0.00    -0.04   0.00   0.00
 124   6    -0.03  -0.00   0.03    -0.00  -0.03   0.01    -0.02   0.00  -0.00
 125   7    -0.09   0.02   0.02    -0.06  -0.02   0.02    -0.01  -0.00  -0.00
 126   6    -0.12   0.01   0.01    -0.07  -0.01   0.03    -0.02  -0.00  -0.00
 127   1     0.00  -0.02   0.00     0.02  -0.01  -0.00    -0.01   0.00   0.00
 128   1     0.01  -0.02   0.01     0.03  -0.01  -0.00    -0.01   0.00   0.00
 129   1     0.00   0.00   0.01     0.00  -0.01   0.00    -0.00  -0.00  -0.00
 130   1    -0.05   0.01  -0.00    -0.04   0.00   0.01    -0.00  -0.00  -0.00
                     19                     20                     21
                        a                      a                      a 
 Frequencies --    61.3229                71.8497                78.7053
 Red. masses --    14.0963                20.6945                14.3914
 Frc consts  --     0.0000                 0.0000                 0.0000
 IR Inten    --     0.1530                 0.0680                 0.3208
 Raman Activ --     0.0000                 0.0000                 0.0000
 Depolar     --     0.0000                 0.0000                 0.0000
 Atom AN      X      Y      Z        X      Y      Z        X      Y      Z
   1  46    -0.02  -0.00   0.01     0.01  -0.23  -0.00     0.01   0.00  -0.13
   2  46    -0.09  -0.00   0.16     0.01  -0.23  -0.00     0.02   0.00  -0.12
   3   6    -0.04  -0.01   0.04    -0.04   0.02   0.05    -0.08  -0.02   0.09
   4   6    -0.04  -0.01   0.04    -0.06   0.02   0.10    -0.01  -0.04   0.10
   5   6    -0.04  -0.01   0.04    -0.03   0.01   0.09     0.01  -0.05   0.06
   6   6    -0.05  -0.00  -0.01    -0.01   0.06  -0.03     0.02  -0.03   0.02
   7   6    -0.06  -0.00  -0.03     0.02   0.04  -0.08     0.03  -0.02  -0.06
   8   6    -0.05  -0.01   0.01     0.04  -0.01  -0.02     0.02  -0.04  -0.09
   9   7    -0.04  -0.01   0.06     0.02  -0.06   0.10     0.02  -0.07  -0.05
  10   6    -0.04  -0.01   0.07    -0.01  -0.05   0.15     0.01  -0.07   0.03
  11   1    -0.02   0.00  -0.01    -0.01   0.03  -0.03     0.01  -0.01   0.01
  12   1    -0.02   0.00  -0.02     0.01   0.02  -0.05     0.01  -0.00  -0.03
  13   1    -0.02  -0.00  -0.00     0.02  -0.01  -0.02     0.01  -0.01  -0.04
  14   1    -0.01  -0.01   0.03    -0.01  -0.02   0.07     0.00  -0.02   0.02
  15   6    -0.03  -0.01   0.02    -0.02   0.02   0.00    -0.07  -0.01   0.05
  16   6    -0.01  -0.02  -0.03    -0.04   0.02   0.05    -0.06  -0.02   0.01
  17   6     0.01  -0.02  -0.05    -0.02   0.02   0.00    -0.02  -0.02  -0.07
  18   6     0.01  -0.02  -0.03    -0.00   0.03  -0.06    -0.00  -0.01  -0.09
  19   6    -0.01  -0.01   0.01     0.01   0.03  -0.09    -0.02  -0.00  -0.04
  20   6    -0.03  -0.01   0.04     0.01   0.03  -0.08    -0.06  -0.01   0.03
  21   1    -0.00  -0.01  -0.01    -0.02   0.00   0.03    -0.02  -0.01   0.01
  22   1     0.01  -0.01  -0.03    -0.01   0.01   0.01    -0.00  -0.01  -0.03
  23   1     0.01  -0.01  -0.01     0.00   0.01  -0.02     0.01  -0.00  -0.04
  24   1    -0.01  -0.00   0.02     0.01   0.01  -0.03    -0.02  -0.00   0.02
  25   6    -0.00  -0.00   0.03     0.00   0.03  -0.08    -0.01   0.01  -0.03
  26   6    -0.00   0.00   0.04    -0.01   0.08   0.07     0.01   0.03   0.04
  27   6    -0.00   0.00   0.04    -0.04   0.07   0.14     0.02   0.05   0.08
  28   6    -0.00   0.00   0.02    -0.04   0.01   0.06     0.01   0.05   0.04
  29   7    -0.01  -0.00   0.01    -0.03  -0.04  -0.09    -0.00   0.04  -0.03
  30   6    -0.01  -0.00   0.02    -0.00  -0.03  -0.16    -0.01   0.02  -0.06
  31   1    -0.00   0.00   0.01    -0.00   0.04   0.04     0.00   0.01   0.02
  32   1     0.00   0.00   0.01    -0.01   0.03   0.07     0.01   0.02   0.04
  33   1    -0.00  -0.00   0.00    -0.02   0.00   0.03     0.01   0.02   0.02
  34   1    -0.00  -0.00   0.00     0.00  -0.02  -0.08    -0.01   0.00  -0.03
  35   6     0.14  -0.02  -0.09     0.05   0.02   0.04     0.12   0.00   0.18
  36   6     0.14  -0.00  -0.05     0.09   0.03   0.06     0.13  -0.05   0.04
  37   6     0.08   0.01  -0.02     0.08   0.02   0.03     0.08  -0.07  -0.02
  38   6    -0.02   0.02   0.01    -0.04   0.06   0.01    -0.01  -0.03  -0.04
  39   6    -0.12   0.03   0.03    -0.08   0.04  -0.02    -0.10  -0.04  -0.07
  40   6    -0.10   0.04   0.03    -0.01  -0.01  -0.03    -0.08  -0.09  -0.07
  41   7    -0.00   0.03   0.00     0.10  -0.05  -0.02     0.01  -0.14  -0.06
  42   6     0.09   0.02  -0.02     0.15  -0.03   0.01     0.09  -0.12  -0.03
  43   1    -0.01   0.00   0.00    -0.03   0.03   0.01    -0.01   0.00  -0.01
  44   1    -0.06   0.01   0.01    -0.05   0.02  -0.01    -0.05  -0.00  -0.02
  45   1    -0.05   0.01   0.01    -0.01  -0.01  -0.02    -0.04  -0.03  -0.03
  46   1     0.04   0.00  -0.01     0.07  -0.02   0.01     0.05  -0.04  -0.00
  47   6     0.08  -0.01  -0.10     0.00   0.02   0.02     0.07   0.00   0.17
  48   6    -0.12   0.01  -0.16     0.05   0.02   0.04     0.02  -0.04   0.14
  49   6    -0.20   0.02  -0.16     0.01   0.02   0.02    -0.08  -0.05   0.06
  50   6    -0.09   0.00  -0.10    -0.06   0.03   0.00    -0.11  -0.02   0.02
  51   6     0.09  -0.02  -0.03    -0.09   0.03  -0.01    -0.05   0.02   0.05
  52   6     0.18  -0.03  -0.04    -0.08   0.02  -0.01     0.04   0.03   0.12
  53   1    -0.06   0.01  -0.06     0.03   0.01   0.02     0.01  -0.02   0.05
  54   1    -0.10   0.01  -0.06     0.01   0.01   0.01    -0.04  -0.02   0.01
  55   1    -0.04   0.00  -0.03    -0.02   0.01  -0.00    -0.05  -0.01  -0.01
  56   1     0.09  -0.02   0.00    -0.03   0.01  -0.01     0.02   0.02   0.04
  57   6     0.11  -0.04   0.00    -0.08   0.02  -0.00    -0.04   0.06   0.01
[...]
  14   1    -0.00   0.00   0.00    -0.00   0.00  -0.00     0.00  -0.00  -0.00
  15   6     0.00   0.00   0.00     0.00  -0.00  -0.00    -0.00  -0.00  -0.00
  16   6    -0.00   0.00  -0.00    -0.00   0.00  -0.00    -0.00   0.00  -0.00
  17   6    -0.00  -0.00  -0.00    -0.00  -0.00  -0.00     0.00   0.00   0.00
  18   6    -0.00  -0.00  -0.00    -0.00  -0.00  -0.00     0.00   0.00   0.00
  19   6     0.00  -0.00   0.00     0.00  -0.00   0.00    -0.00  -0.00  -0.00
  20   6     0.00   0.00   0.00     0.00   0.00   0.00    -0.00  -0.00  -0.00
  21   1     0.00  -0.00   0.00     0.00  -0.00   0.00     0.00  -0.00   0.00
  22   1     0.00   0.00   0.00     0.00   0.00   0.00    -0.00  -0.00  -0.00
  23   1     0.00   0.00   0.00     0.00   0.00   0.00    -0.00  -0.00  -0.00
  24   1    -0.00  -0.00  -0.00    -0.00  -0.00  -0.00     0.00   0.00   0.00
  25   6     0.00  -0.00   0.00     0.00  -0.00   0.00     0.00  -0.00   0.00
  26   6     0.00   0.00  -0.00     0.00   0.00  -0.00     0.00   0.00  -0.00
  27   6     0.00   0.00  -0.00     0.00   0.00  -0.00     0.00   0.00  -0.00
  28   6    -0.00   0.00  -0.00    -0.00   0.00  -0.00    -0.00   0.00  -0.00
  29   7    -0.00  -0.00   0.00    -0.00  -0.00   0.00     0.00  -0.00   0.00
  30   6    -0.00   0.00  -0.00     0.00   0.00  -0.00    -0.00  -0.00   0.00
  31   1    -0.00  -0.00   0.00    -0.01  -0.00   0.00    -0.00  -0.00   0.00
  32   1    -0.00  -0.01   0.00    -0.00  -0.01   0.00    -0.00  -0.01   0.00
  33   1     0.00  -0.00   0.00     0.00  -0.00   0.00     0.00  -0.00   0.00
  34   1    -0.00  -0.00   0.00    -0.00  -0.00   0.00     0.00   0.00  -0.00
  35   6     0.00   0.00  -0.00    -0.00  -0.00   0.00     0.00  -0.00  -0.00
  36   6    -0.00  -0.00   0.00     0.00   0.00  -0.00    -0.00  -0.00  -0.00
  37   6    -0.00  -0.00  -0.00    -0.00  -0.00  -0.00     0.00   0.00   0.00
  38   6     0.00  -0.00   0.00     0.00  -0.00   0.00    -0.00   0.00  -0.01
  39   6     0.00   0.00   0.00     0.00   0.01   0.00    -0.00  -0.01  -0.01
  40   6    -0.00   0.00  -0.00    -0.00   0.00  -0.00     0.00  -0.00   0.00
  41   7    -0.00  -0.00  -0.00    -0.00  -0.00  -0.00     0.00   0.00   0.00
  42   6    -0.00   0.00  -0.00     0.00   0.00   0.00    -0.00  -0.00  -0.00
  43   1    -0.00   0.00  -0.01    -0.00   0.00  -0.01     0.00  -0.00   0.02
  44   1    -0.00  -0.01  -0.01    -0.00  -0.02  -0.01     0.01   0.04   0.03
  45   1    -0.00  -0.00   0.00    -0.00  -0.00   0.00     0.00   0.00  -0.00
  46   1    -0.00  -0.00  -0.00    -0.00  -0.00  -0.00     0.00   0.00   0.00
  47   6     0.00   0.00  -0.00    -0.00  -0.00   0.00     0.00   0.00  -0.00
  48   6     0.00  -0.00  -0.00     0.00   0.00  -0.00    -0.00   0.00   0.00
  49   6     0.00   0.00  -0.00    -0.00  -0.00   0.00    -0.00  -0.00   0.00
  50   6     0.00   0.01  -0.00    -0.00  -0.00   0.00     0.00   0.00  -0.00
  51   6    -0.00   0.00  -0.00    -0.00  -0.00   0.00     0.00   0.00  -0.00
  52   6     0.00   0.00  -0.00    -0.00  -0.00   0.00     0.00   0.00  -0.00
  53   1    -0.00   0.00   0.00    -0.00   0.00   0.00     0.00  -0.00  -0.00
  54   1    -0.00  -0.00   0.00     0.00   0.00  -0.00     0.00   0.00  -0.00
  55   1    -0.00  -0.02   0.01     0.00   0.01  -0.01    -0.00  -0.01   0.00
  56   1    -0.00  -0.00   0.01     0.01   0.00  -0.01    -0.00  -0.00   0.01
  57   6     0.00  -0.00  -0.00    -0.00   0.00   0.00     0.00  -0.00  -0.00
  58   6    -0.02   0.01  -0.09     0.02  -0.01   0.08    -0.01   0.00  -0.06
  59   6    -0.05   0.14  -0.05     0.05  -0.13   0.05    -0.03   0.09  -0.03
  60   6    -0.00   0.01   0.01     0.00  -0.01  -0.01    -0.00   0.00   0.00
  61   7     0.00  -0.00   0.00    -0.00   0.00  -0.00     0.00  -0.00   0.00
  62   6     0.00  -0.00   0.00    -0.00  -0.00  -0.00     0.00   0.00   0.00
  63   1     0.06  -0.03   0.29    -0.06   0.03  -0.26     0.04  -0.02   0.18
  64   1     0.18  -0.47   0.19    -0.17   0.43  -0.17     0.12  -0.30   0.12
  65   1     0.00  -0.01  -0.01    -0.00   0.01   0.01     0.00  -0.01  -0.01
  66   1     0.00  -0.00   0.00    -0.00   0.00  -0.00     0.00  -0.00   0.00
  67   6     0.00  -0.00   0.00     0.00  -0.00   0.00    -0.00   0.00  -0.00
  68   6    -0.00   0.00   0.00    -0.00   0.00   0.00     0.00  -0.00  -0.00
  69   6     0.00   0.00  -0.00     0.00   0.00  -0.00    -0.00  -0.00   0.00
  70   6    -0.02   0.00   0.00    -0.05   0.00   0.01     0.01  -0.00  -0.00
  71   6    -0.02  -0.03   0.01    -0.05  -0.08   0.02     0.01   0.01  -0.00
  72   6     0.00  -0.00   0.00     0.00  -0.00   0.00    -0.00   0.00  -0.00
  73   7     0.00   0.00  -0.00     0.00   0.00  -0.00    -0.00  -0.00   0.00
  74   6     0.00  -0.00  -0.00     0.00  -0.00  -0.00     0.00   0.00  -0.00
  75   1     0.06  -0.00  -0.01     0.17  -0.01  -0.03    -0.02   0.00   0.00
  76   1     0.05   0.09  -0.02     0.16   0.26  -0.06    -0.02  -0.04   0.01
  77   1    -0.00   0.00  -0.00    -0.01   0.01  -0.00     0.00  -0.00   0.00
  78   1     0.00   0.00  -0.00     0.00   0.00  -0.00    -0.00  -0.00   0.00
  79   6     0.00   0.00  -0.00    -0.00   0.00  -0.00     0.00  -0.00   0.00
  80   6    -0.00  -0.00  -0.00    -0.00  -0.00  -0.00    -0.00  -0.00  -0.00
  81   6    -0.00   0.00  -0.00    -0.00   0.00  -0.00    -0.00   0.00  -0.00
  82   6     0.00  -0.00   0.00    -0.00   0.00   0.00    -0.00   0.00  -0.00
  83   6     0.00   0.00  -0.00     0.00   0.00  -0.00     0.00   0.00   0.00
  84   6     0.00  -0.00   0.00    -0.00  -0.00   0.00     0.00  -0.00   0.00
  85   1     0.00   0.00   0.00     0.00   0.00   0.00     0.00   0.00   0.00
  86   1     0.00  -0.00   0.00     0.00  -0.00   0.00     0.00  -0.00   0.00
  87   1    -0.00   0.00  -0.00     0.00  -0.00   0.00     0.00  -0.00   0.00
  88   1    -0.00   0.00  -0.00    -0.00   0.00  -0.00    -0.00   0.00  -0.00
  89   6     0.00   0.00   0.00     0.00   0.00   0.00    -0.00  -0.00  -0.00
  90   6     0.00  -0.00  -0.00     0.00  -0.00  -0.00    -0.00   0.00   0.00
  91   6     0.00  -0.00  -0.00     0.00  -0.00  -0.00    -0.00   0.00   0.00
  92   6    -0.00  -0.00  -0.00    -0.00  -0.00  -0.00     0.00   0.00   0.00
  93   7    -0.00   0.00   0.00     0.00   0.00   0.00     0.00  -0.00  -0.00
  94   6    -0.00   0.00   0.00    -0.00   0.00   0.00     0.00  -0.00  -0.00
  95   1    -0.01   0.00   0.00    -0.00   0.00   0.00     0.01  -0.00  -0.00
  96   1    -0.00   0.01   0.00    -0.00   0.01   0.00     0.01  -0.01  -0.00
  97   1     0.00   0.00   0.00     0.00   0.00   0.00    -0.00  -0.00  -0.00
  98   1     0.00  -0.00  -0.00     0.00  -0.00  -0.00    -0.00   0.00   0.00
  99   6     0.00   0.00  -0.00    -0.00   0.00   0.00     0.00  -0.00  -0.00
 100   6    -0.00   0.00   0.00    -0.00   0.00  -0.00     0.00   0.00   0.00
 101   6     0.00  -0.00   0.00     0.00  -0.00   0.00    -0.00   0.00  -0.00
 102   6    -0.00  -0.00  -0.00    -0.00  -0.00  -0.01     0.01   0.00   0.05
 103   6    -0.00   0.01  -0.00    -0.01   0.02  -0.01     0.02  -0.08   0.05
 104   6    -0.00   0.00   0.00    -0.00   0.00   0.00     0.00  -0.01  -0.00
 105   7     0.00  -0.00   0.00     0.00  -0.00   0.00    -0.00   0.00  -0.00
 106   6    -0.00   0.00  -0.00    -0.00   0.00   0.00    -0.00  -0.00  -0.00
 107   1     0.00   0.00   0.01     0.01   0.00   0.04    -0.03  -0.01  -0.17
 108   1     0.00  -0.02   0.01     0.02  -0.07   0.04    -0.08   0.27  -0.17
 109   1     0.00  -0.00  -0.00     0.00  -0.00  -0.00    -0.00   0.01   0.01
 110   1     0.00  -0.00   0.00     0.00  -0.00   0.00    -0.00   0.00  -0.00
 111   6     0.00  -0.00  -0.00     0.00  -0.00  -0.00    -0.00   0.00   0.00
 112   6     0.00   0.00  -0.00    -0.00  -0.00   0.00     0.00  -0.00  -0.00
 113   6     0.00  -0.00  -0.00    -0.00   0.00   0.00     0.00   0.00   0.00
 114   6     0.00  -0.01  -0.00     0.00  -0.00  -0.00    -0.00   0.00   0.00
 115   6     0.00  -0.00  -0.00     0.00  -0.00  -0.00    -0.00   0.00   0.00
 116   6     0.00  -0.00  -0.00     0.00  -0.00  -0.00    -0.00   0.00   0.00
 117   1    -0.00  -0.00   0.00     0.00   0.00  -0.00    -0.00  -0.00   0.00
 118   1    -0.00   0.00   0.00     0.00  -0.00  -0.00    -0.00  -0.00   0.00
 119   1    -0.00   0.02   0.01    -0.00   0.01   0.00     0.00  -0.00  -0.00
 120   1    -0.01   0.00   0.01    -0.00   0.00   0.01     0.00  -0.00  -0.01
 121   6     0.00   0.00  -0.00     0.00   0.00  -0.00    -0.00  -0.00   0.00
 122   6    -0.02  -0.01  -0.09    -0.01  -0.00  -0.07     0.01   0.00   0.03
 123   6    -0.05  -0.17  -0.07    -0.04  -0.11  -0.05     0.01   0.04   0.02
 124   6    -0.00  -0.01   0.01    -0.00  -0.01   0.01     0.00   0.00  -0.00
 125   7     0.00   0.00   0.00     0.00   0.00   0.00    -0.00  -0.00  -0.00
 126   6     0.00   0.00   0.00     0.00  -0.00   0.00     0.00   0.00  -0.00
 127   1     0.07   0.02   0.31     0.05   0.02   0.22    -0.02  -0.01  -0.08
 128   1     0.18   0.56   0.24     0.12   0.39   0.17    -0.05  -0.15  -0.06
 129   1     0.00   0.01  -0.01     0.00   0.01  -0.01    -0.00  -0.00   0.00
 130   1     0.00   0.00   0.00     0.00   0.00   0.00    -0.00  -0.00  -0.00
                    382                    383                    384
                        a                      a                      a 
 Frequencies --  3119.4642              3119.6336              3119.8039
 Red. masses --     1.8969                 1.8959                 1.8951
 Frc consts  --     0.0000                 0.0000                 0.0000
 IR Inten    --     0.0211                 0.0185                 0.0188
 Raman Activ --     0.0000                 0.0000                 0.0000
 Depolar     --     0.0000                 0.0000                 0.0000
 Atom AN      X      Y      Z        X      Y      Z        X      Y      Z
   1  46     0.00  -0.00  -0.00     0.00  -0.00   0.00    -0.00  -0.00  -0.00
   2  46     0.00  -0.00  -0.00     0.00  -0.00   0.00    -0.00  -0.00  -0.00
   3   6    -0.00  -0.00  -0.00    -0.00  -0.00  -0.00    -0.00  -0.00  -0.00
   4   6     0.00   0.00   0.00     0.00   0.00   0.00     0.00   0.00   0.00
   5   6    -0.00   0.00   0.00    -0.00   0.00   0.00    -0.00   0.00   0.00
   6   6     0.03   0.01  -0.00     0.01   0.00  -0.00     0.01   0.00  -0.00
   7   6     0.04  -0.06  -0.02     0.01  -0.01  -0.00     0.01  -0.01  -0.00
   8   6    -0.00  -0.00  -0.00    -0.00  -0.00  -0.00    -0.00  -0.00  -0.00
   9   7    -0.00   0.00   0.00    -0.00   0.00   0.00    -0.00   0.00   0.00
  10   6    -0.00  -0.00   0.00    -0.00   0.00   0.00    -0.00   0.00   0.00
  11   1    -0.11  -0.01   0.02    -0.03  -0.00   0.00    -0.02  -0.00   0.00
  12   1    -0.14   0.19   0.05    -0.03   0.05   0.01    -0.02   0.03   0.01
  13   1     0.00   0.01   0.00     0.00   0.00   0.00     0.00   0.00   0.00
  14   1    -0.00   0.00   0.00     0.00   0.00   0.00     0.00  -0.00  -0.00
  15   6     0.00   0.00   0.00    -0.00  -0.00  -0.00    -0.00  -0.00  -0.00
  16   6     0.00  -0.00   0.00     0.00   0.00   0.00     0.00  -0.00   0.00
  17   6     0.00   0.00   0.00    -0.00  -0.00  -0.00    -0.00  -0.00  -0.00
  18   6     0.00   0.00   0.00    -0.00  -0.01  -0.00    -0.00  -0.00  -0.00
  19   6     0.00   0.00  -0.00    -0.00  -0.00  -0.00    -0.00  -0.00  -0.00
  20   6     0.00   0.00   0.00    -0.01  -0.00  -0.00    -0.00  -0.00  -0.00
  21   1    -0.00   0.00  -0.00     0.00  -0.00   0.00    -0.00   0.00  -0.00
  22   1    -0.00  -0.00  -0.00     0.00   0.00   0.00     0.00   0.00   0.00
  23   1    -0.00  -0.01  -0.00     0.01   0.02   0.00     0.00   0.00   0.00
  24   1    -0.00  -0.00  -0.00     0.02   0.00   0.01     0.00   0.00   0.00
  25   6     0.00  -0.00   0.00    -0.00   0.00  -0.00    -0.00   0.00  -0.00
  26   6     0.04   0.00  -0.01    -0.12  -0.01   0.02    -0.02  -0.00   0.00
  27   6     0.02   0.07  -0.02    -0.08  -0.21   0.07    -0.01  -0.04   0.01
  28   6    -0.00   0.00  -0.00     0.01  -0.01   0.00     0.00  -0.00   0.00
  29   7    -0.00  -0.00   0.00     0.00   0.00  -0.00     0.00   0.00  -0.00
  30   6    -0.00  -0.00   0.00     0.00   0.00  -0.00     0.00  -0.00  -0.00
  31   1    -0.12  -0.01   0.03     0.39   0.05  -0.08     0.07   0.01  -0.01
  32   1    -0.08  -0.22   0.07     0.27   0.72  -0.23     0.05   0.13  -0.04
  33   1     0.01  -0.01   0.00    -0.02   0.02  -0.00    -0.00   0.00  -0.00
  34   1    -0.00  -0.00   0.00     0.00   0.00  -0.00     0.00   0.00  -0.00
  35   6    -0.00   0.00   0.00     0.00   0.00  -0.00    -0.00  -0.00   0.00
  36   6     0.00   0.00  -0.00     0.00  -0.00   0.00    -0.00   0.00  -0.00
  37   6    -0.00  -0.00  -0.00    -0.00  -0.00  -0.00     0.00   0.00   0.00
  38   6     0.00  -0.00   0.00     0.00  -0.00   0.02    -0.02   0.02  -0.12
  39   6     0.00   0.00   0.00     0.01   0.04   0.02    -0.04  -0.20  -0.14
  40   6    -0.00  -0.00   0.00    -0.00   0.00  -0.00     0.00  -0.01   0.01
  41   7    -0.00  -0.00  -0.00    -0.00  -0.00  -0.00     0.00   0.00   0.00
  42   6    -0.00  -0.00  -0.00    -0.00  -0.00  -0.00     0.00  -0.00   0.00
  43   1    -0.00   0.00  -0.00    -0.01   0.01  -0.07     0.06  -0.04   0.39
  44   1    -0.00  -0.00  -0.00    -0.03  -0.12  -0.08     0.15   0.70   0.47
  45   1     0.00   0.00  -0.00    -0.00  -0.01   0.00     0.00   0.03  -0.02
  46   1     0.00   0.00   0.00     0.00   0.00   0.00     0.00   0.00   0.00
  47   6    -0.00   0.00   0.00    -0.00  -0.00  -0.00     0.00   0.00  -0.00
  48   6    -0.00   0.00   0.00    -0.00   0.00   0.00     0.00  -0.00  -0.00
  49   6    -0.00  -0.00   0.00    -0.00  -0.00   0.00    -0.00   0.00  -0.00
  50   6    -0.00  -0.00   0.00    -0.00  -0.00   0.00    -0.00  -0.00   0.00
  51   6    -0.00  -0.00   0.00     0.00  -0.00   0.00     0.00   0.00   0.00
  52   6    -0.00  -0.00   0.00     0.00   0.00  -0.00    -0.00  -0.00   0.00
  53   1     0.00  -0.00  -0.00     0.00  -0.00  -0.00    -0.00   0.00   0.00
  54   1     0.00   0.00  -0.00     0.00   0.00  -0.00    -0.00   0.00   0.00
  55   1     0.00   0.01  -0.00     0.00   0.00  -0.00     0.00   0.00  -0.00
  56   1     0.00   0.00  -0.00    -0.00  -0.00   0.00     0.00   0.00  -0.00
  57   6    -0.00   0.00   0.00    -0.00   0.00   0.00    -0.00   0.00   0.00
  58   6     0.01  -0.00   0.03     0.00  -0.00   0.01     0.00  -0.00   0.00
  59   6     0.02  -0.04   0.02     0.00  -0.01   0.00     0.00  -0.01   0.00
  60   6     0.00  -0.00  -0.00     0.00  -0.00  -0.00     0.00  -0.00  -0.00
  61   7    -0.00   0.00  -0.00    -0.00   0.00  -0.00    -0.00   0.00  -0.00
  62   6    -0.00  -0.00  -0.00    -0.00   0.00  -0.00    -0.00   0.00  -0.00
  63   1    -0.02   0.01  -0.09    -0.01   0.00  -0.02    -0.00   0.00  -0.02
  64   1    -0.06   0.15  -0.06    -0.01   0.04  -0.01    -0.01   0.02  -0.01
  65   1    -0.00   0.00   0.00    -0.00   0.00   0.00    -0.00   0.00   0.00
  66   1    -0.00   0.00  -0.00     0.00  -0.00   0.00     0.00   0.00  -0.00
  67   6     0.00  -0.00   0.00     0.00  -0.00   0.00     0.00  -0.00   0.00
  68   6    -0.00   0.00  -0.00    -0.00   0.00  -0.00    -0.00   0.00   0.00
  69   6     0.00   0.00  -0.00     0.00   0.00  -0.00     0.00   0.00  -0.00
  70   6    -0.01   0.00   0.00    -0.01   0.00   0.00    -0.00   0.00   0.00
  71   6    -0.01  -0.02   0.00    -0.01  -0.01   0.00    -0.00  -0.01   0.00
  72   6     0.00  -0.00   0.00     0.00  -0.00   0.00     0.00  -0.00   0.00
  73   7     0.00   0.00  -0.00     0.00   0.00  -0.00     0.00   0.00  -0.00
  74   6    -0.00  -0.00   0.00     0.00  -0.00  -0.00     0.00   0.00  -0.00
  75   1     0.04  -0.00  -0.01     0.02  -0.00  -0.00     0.02  -0.00  -0.00
  76   1     0.03   0.06  -0.01     0.02   0.03  -0.01     0.01   0.02  -0.01
  77   1    -0.00   0.00  -0.00    -0.00   0.00  -0.00    -0.00   0.00  -0.00
  78   1     0.00   0.00  -0.00     0.00   0.00  -0.00    -0.00  -0.00   0.00
  79   6     0.00   0.00   0.00     0.00  -0.00   0.00     0.00  -0.00   0.00
  80   6     0.00   0.00   0.00    -0.00  -0.00  -0.00    -0.00  -0.00  -0.00
  81   6     0.00  -0.00   0.00    -0.00   0.00  -0.00    -0.00   0.00  -0.00
  82   6     0.00  -0.00   0.00    -0.00   0.00  -0.00    -0.00   0.00  -0.00
  83   6     0.00  -0.00  -0.00     0.00   0.00   0.00     0.00   0.00   0.00
  84   6     0.00  -0.00   0.00     0.00  -0.00   0.00     0.00  -0.00   0.00
  85   1    -0.00  -0.00  -0.00     0.00   0.00   0.00     0.00   0.00   0.00
  86   1    -0.00   0.00  -0.00     0.00  -0.00   0.00     0.00  -0.00   0.00
  87   1    -0.00   0.00  -0.00     0.00  -0.00   0.00     0.00  -0.00   0.00
  88   1    -0.00   0.00  -0.00    -0.00   0.00  -0.00    -0.00   0.00  -0.00
  89   6     0.00   0.00   0.00     0.00   0.00   0.00     0.00   0.00   0.00
  90   6     0.01  -0.00  -0.00     0.00  -0.00  -0.00     0.01  -0.00  -0.00
  91   6     0.01  -0.02  -0.01     0.00  -0.00  -0.00     0.01  -0.01  -0.01
  92   6    -0.00  -0.00  -0.00    -0.00  -0.00  -0.00    -0.00  -0.00  -0.00
  93   7    -0.00   0.00   0.00     0.00   0.00   0.00    -0.00   0.00   0.00
  94   6    -0.00   0.00   0.00     0.00  -0.00  -0.00     0.00  -0.00  -0.00
  95   1    -0.04   0.00   0.01    -0.01   0.00   0.00    -0.03   0.00   0.01
  96   1    -0.03   0.06   0.02    -0.01   0.01   0.00    -0.02   0.05   0.02
  97   1     0.00   0.00   0.00     0.00   0.00   0.00     0.00   0.00   0.00
  98   1     0.00  -0.00  -0.00    -0.00   0.00   0.00    -0.00   0.00   0.00
  99   6     0.00  -0.00  -0.00     0.00  -0.00  -0.00    -0.00   0.00   0.00
 100   6    -0.00   0.00   0.00    -0.00   0.00   0.00     0.00   0.00   0.00
 101   6    -0.00   0.00  -0.00    -0.00   0.00  -0.00    -0.00   0.00  -0.00
 102   6     0.02   0.01   0.12     0.01   0.00   0.04     0.00   0.00   0.00
 103   6     0.05  -0.18   0.11     0.02  -0.05   0.03     0.00  -0.00   0.00
 104   6     0.00  -0.01  -0.01     0.00  -0.00  -0.00     0.00  -0.00  -0.00
 105   7    -0.00   0.00  -0.00    -0.00   0.00  -0.00     0.00   0.00   0.00
 106   6    -0.00   0.00  -0.00    -0.00  -0.00  -0.00     0.00  -0.00   0.00
 107   1    -0.06  -0.03  -0.38    -0.02  -0.01  -0.12    -0.00  -0.00  -0.01
 108   1    -0.17   0.61  -0.38    -0.05   0.19  -0.12    -0.00   0.02  -0.01
 109   1    -0.00   0.03   0.02    -0.00   0.01   0.00    -0.00   0.00   0.00
 110   1    -0.00   0.00  -0.00    -0.00   0.00  -0.00    -0.00   0.00  -0.00
 111   6    -0.00   0.00  -0.00    -0.00   0.00  -0.00    -0.00   0.00   0.00
 112   6    -0.00  -0.00   0.00    -0.00  -0.00   0.00     0.00   0.00  -0.00
 113   6    -0.00   0.00   0.00    -0.00   0.00   0.00     0.00  -0.00  -0.00
 114   6     0.00  -0.00  -0.00     0.00  -0.00  -0.00     0.00  -0.00  -0.00
 115   6     0.00   0.00  -0.00    -0.00   0.00  -0.00    -0.00  -0.00   0.00
 116   6     0.00  -0.00  -0.00     0.00  -0.00  -0.00    -0.00   0.00   0.00
 117   1     0.00   0.00  -0.00     0.00   0.00  -0.00    -0.00  -0.00   0.00
 118   1     0.00  -0.00  -0.00     0.00  -0.00  -0.00    -0.00   0.00   0.00
 119   1    -0.00   0.00   0.00    -0.00   0.00   0.00    -0.00   0.00   0.00
 120   1    -0.00   0.00   0.00    -0.00   0.00   0.00     0.00  -0.00  -0.00
 121   6     0.00   0.00  -0.00     0.00   0.00  -0.00     0.00   0.00  -0.00
 122   6    -0.00  -0.00  -0.02    -0.00  -0.00  -0.01    -0.00  -0.00  -0.01
 123   6    -0.01  -0.03  -0.01    -0.00  -0.01  -0.00    -0.00  -0.01  -0.00
 124   6    -0.00  -0.00   0.00    -0.00  -0.00   0.00    -0.00  -0.00   0.00
 125   7     0.00   0.00   0.00     0.00   0.00   0.00     0.00   0.00   0.00
 126   6    -0.00  -0.00   0.00     0.00   0.00   0.00     0.00   0.00   0.00
 127   1     0.01   0.00   0.06     0.00   0.00   0.02     0.00   0.00   0.02
 128   1     0.03   0.10   0.05     0.01   0.03   0.01     0.01   0.03   0.01
 129   1     0.00   0.00  -0.00     0.00   0.00  -0.00     0.00   0.00  -0.00
 130   1     0.00   0.00   0.00    -0.00   0.00  -0.00    -0.00  -0.00  -0.00
