Job execution start: Fri Apr 16 03:40:12 BST 2021
Shared library path: /work/e05/e05/atarzia/orca_4_2_1_linux_x86-64_openmpi314:/work/e05/e05/atarzia/openmpi-3.1.4/lib:/opt/cray/pe/papi/6.0.0.4/lib64:/opt/cray/libfabric/1.11.0.0.233/lib64
Slurm Job ID is: 204306
Slurm Job name is: fe7dd
nid001728

                                 *****************
                                 * O   R   C   A *
                                 *****************

           --- An Ab Initio, DFT and Semiempirical electronic structure package ---

                  #######################################################
                  #                        -***-                        #
                  #          Department of theory and spectroscopy      #
                  #               Directorship: Frank Neese             #
                  #        Max Planck Institute fuer Kohlenforschung    #
                  #                Kaiser Wilhelm Platz 1               #
                  #                 D-45470 Muelheim/Ruhr               #
                  #                      Germany                        #
                  #                                                     #
                  #                  All rights reserved                #
                  #                        -***-                        #
                  #######################################################


                         Program Version 4.2.1 -  RELEASE  -


 With contributions from (in alphabetic order):
   Daniel Aravena         : Magnetic Suceptibility
   Michael Atanasov       : Ab Initio Ligand Field Theory (pilot matlab implementation)
   Alexander A. Auer      : GIAO ZORA, VPT2
   Ute Becker             : Parallelization
   Giovanni Bistoni       : ED, misc. LED, open-shell LED, HFLD
   Martin Brehm           : Molecular dynamics
   Dmytro Bykov           : SCF Hessian
   Vijay G. Chilkuri      : MRCI spin determinant printing, contributions to CSF-ICE
   Dipayan Datta          : RHF DLPNO-CCSD density
   Achintya Kumar Dutta   : EOM-CC, STEOM-CC
   Dmitry Ganyushin       : Spin-Orbit,Spin-Spin,Magnetic field MRCI
   Miquel Garcia          : C-PCM Hessian, Gaussian charge scheme
   Yang Guo               : DLPNO-NEVPT2, CIM, IAO-localization
   Andreas Hansen         : Spin unrestricted coupled pair/coupled cluster methods
   Benjamin Helmich-Paris : CASSCF linear response (MC-RPA)
   Lee Huntington         : MR-EOM, pCC
   Robert Izsak           : Overlap fitted RIJCOSX, COSX-SCS-MP3, EOM
   Christian Kollmar      : KDIIS, OOCD, Brueckner-CCSD(T), CCSD density
   Simone Kossmann        : Meta GGA functionals, TD-DFT gradient, OOMP2, MP2 Hessian
   Martin Krupicka        : AUTO-CI
   Lucas Lang             : DCDCAS
   Dagmar Lenk            : GEPOL surface, SMD
   Dimitrios Liakos       : Extrapolation schemes; Compound Job, initial MDCI parallelization
   Dimitrios Manganas     : Further ROCIS development; embedding schemes
   Dimitrios Pantazis     : SARC Basis sets
   Taras Petrenko         : DFT Hessian,TD-DFT gradient, ASA, ECA, R-Raman, ABS, FL, XAS/XES, NRVS
   Peter Pinski           : DLPNO-MP2, DLPNO-MP2 Gradient
   Christoph Reimann      : Effective Core Potentials
   Marius Retegan         : Local ZFS, SOC
   Christoph Riplinger    : Optimizer, TS searches, QM/MM, DLPNO-CCSD(T), (RO)-DLPNO pert. Triples
   Tobias Risthaus        : Range-separated hybrids, TD-DFT gradient, RPA, STAB
   Michael Roemelt        : Original ROCIS implementation
   Masaaki Saitow         : Open-shell DLPNO-CCSD energy and density
   Barbara Sandhoefer     : DKH picture change effects
   Avijit Sen             : IP-ROCIS
   Kantharuban Sivalingam : CASSCF convergence, NEVPT2, FIC-MRCI
   Bernardo de Souza      : ESD, SOC TD-DFT
   Georgi Stoychev        : AutoAux, RI-MP2 NMR
   Willem Van den Heuvel  : Paramagnetic NMR
   Boris Wezisla          : Elementary symmetry handling
   Frank Wennmohs         : Technical directorship


 We gratefully acknowledge several colleagues who have allowed us to
 interface, adapt or use parts of their codes:
   Stefan Grimme, W. Hujo, H. Kruse,             : VdW corrections, initial TS optimization,
                  C. Bannwarth                     DFT functionals, gCP, sTDA/sTD-DF
   Ed Valeev, F. Pavosevic, A. Kumar             : LibInt (2-el integral package), F12 methods
   Garnet Chan, S. Sharma, J. Yang, R. Olivares  : DMRG
   Ulf Ekstrom                                   : XCFun DFT Library
   Mihaly Kallay                                 : mrcc  (arbitrary order and MRCC methods)
   Andreas Klamt, Michael Diedenhofen            : otool_cosmo (COSMO solvation model)
   Jiri Pittner, Ondrej Demel                    : Mk-CCSD
   Frank Weinhold                                : gennbo (NPA and NBO analysis)
   Christopher J. Cramer and Donald G. Truhlar   : smd solvation model
   Lars Goerigk                                  : TD-DFT with DH, B97 family of functionals
   V. Asgeirsson, H. Jonsson                     : NEB implementation
   FAccTs GmbH                                   : IRC, NEB, NEB-TS, Multilevel, MM, QM/MM, CI optimization
   S Lehtola, MJT Oliveira, MAL Marques          : LibXC Library


 Your calculation uses the libint2 library for the computation of 2-el integrals
 For citations please refer to: http://libint.valeyev.net

 Your ORCA version has been built with support for libXC version: 4.2.3
 For citations please refer to: https://tddft.org/programs/libxc/

 This ORCA versions uses:
   CBLAS   interface :  Fast vector & matrix operations
   LAPACKE interface :  Fast linear algebra routines
   SCALAPACK package :  Parallel linear algebra routines




***************************************
The coordinates will be read from file: fe7dd_xtb_dft.xyz
***************************************


Your calculation utilizes the atom-pairwise dispersion correction
based on tight binding partial charges (D4)
Cite in your paper:
E.Caldeweyher, C.Bannwarth, S.Grimme, J.Chem.Phys., (2017), 147, 034112.
E.Caldeweyher, S.Ehlert, A.Hansen, H.Neugebauer, S.Grimme, J.Chem.Phys., (2018), in progress.
   

----- Orbital basis set information -----
Your calculation utilizes the basis: def2-TZVP
   F. Weigend and R. Ahlrichs, Phys. Chem. Chem. Phys. 7, 3297 (2005).

================================================================================
                                        WARNINGS
                       Please study these warnings very carefully!
================================================================================


INFO   : the flag for use of LIBINT has been found!

================================================================================
                                       INPUT FILE
================================================================================
NAME = fe7dd.in
|  1> # closed shell KS, PBE0/def2-TZVP/D4
|  2> ! DFT SP RKS PBE0 def2-TZVP D4 Grid6 NOFINALGRID SlowConv TightSCF printbasis
|  3> 
|  4> %base "_fe7dd" 
|  5> %maxcore 4000
|  6> %scf
|  7>    MaxIter 2000
|  8> end
|  9> 
| 10> %pal
| 11>    nprocs 128
| 12> end
| 13> 
| 14> * xyzfile 4 1 fe7dd_xtb_dft.xyz
| 15> 
| 16>                          ****END OF INPUT****
================================================================================

                       ****************************
                       * Single Point Calculation *
                       ****************************

---------------------------------
CARTESIAN COORDINATES (ANGSTROEM)
---------------------------------
  Fe    12.080500   15.081000   10.835000
  Fe     7.192100    3.999200   12.692400
  O     13.018400   10.439300   13.254300
  O     10.754400    8.646800   15.638800
  N     10.678400   15.999200    9.824700
  N     11.873400   13.732800    9.458200
  N      8.767000    3.605200   11.606500
  N      7.757600    2.415700   13.684100
  C      9.819600   17.041600   10.249600
  C      8.432100   16.841400   10.204000
  C      7.564900   17.846000   10.621500
  C      8.071300   19.059100   11.086000
  C      9.451500   19.256600   11.141300
  C     10.324100   18.250700   10.740300
  C     10.399400   15.392600    8.723500
  C     11.070100   14.141500    8.457600
  C     10.839900   13.349000    7.332200
  C     11.416200   12.088300    7.268900
  C     12.229700   11.645500    8.323800
  C     12.441900   12.533600    9.387800
  C     14.340200   11.866300   14.666200
  C     14.922800   12.097700   15.897500
  C     14.860800   11.146300   16.939300
  C     15.431000   11.401600   18.212400
  C     15.383100   10.449600   19.202200
  C     14.763500    9.204000   18.956700
  C     14.198900    8.927900   17.731700
  C     14.228300    9.889800   16.692200
  C     13.643000    9.643800   15.412100
  C     13.671000   10.625600   14.441300
  C     13.758300    9.833700   12.210400
  C     13.119700    8.283400   15.102700
  C     14.100800    7.317700   14.687700
  C     15.474000    7.650300   14.557400
  C     16.394800    6.714000   14.143000
  C     16.001800    5.391700   13.843800
  C     14.682100    5.031900   13.975200
  C     13.712800    5.977800   14.394000
  C     12.355500    5.625300   14.542700
  C     11.412600    6.534500   14.964700
  C     11.797400    7.890800   15.246200
  C     10.800900   10.041600   15.823400
  C      9.276400    4.293100   10.589500
  C     10.273900    3.777600    9.744000
  C     10.700600    2.463300    9.981300
  C     10.187400    1.753500   11.058500
  C      9.231700    2.364700   11.866700
  C      8.703000    1.785500   13.080200
  C      7.440100    2.030800   15.010600
  C      8.482100    1.877100   15.936400
  C      8.205000    1.499900   17.246600
  C      6.888800    1.271800   17.645100
  C      5.850200    1.433200   16.727500
  C      6.117900    1.824000   15.419100
  O     10.802200    9.425500    7.812200
  O     11.132800    6.466200   10.093800
  N     13.574000   15.737100    9.764500
  N     13.486800   14.138400   11.809600
  N      8.146900    5.011500   14.040900
  N      5.638900    4.409900   13.811600
  C     13.567500   16.280900    8.455500
  C     12.829700   17.427600    8.142800
  C     12.866700   17.945600    6.852300
  C     13.613300   17.313900    5.857300
  C     14.329400   16.157000    6.160300
  C     14.308500   15.640700    7.452200
  C     14.709500   15.432700   10.287300
  C     14.704200   14.622500   11.483400
  C     15.844500   14.300300   12.215100
  C     15.723600   13.420300   13.282200
  C     14.475500   12.857900   13.584700
  C     13.375700   13.278100   12.816700
  C     12.862100   10.316300    8.366100
  C     14.194600   10.204700    8.690200
  C     14.839800    8.952200    8.755000
  C     16.218100    8.844600    9.068500
  C     16.832400    7.616300    9.116800
  C     16.082800    6.452600    8.840200
  C     14.743800    6.530000    8.528600
  C     14.075000    7.780500    8.482000
  C     12.675200    7.882900    8.169300
  C     12.084300    9.135900    8.105000
  C      9.782500    8.467000    7.663700
  C     11.986300    6.595300    7.871200
  C     12.101500    6.030700    6.563200
  C     12.715600    6.726000    5.492700
  C     12.799600    6.153700    4.243300
  C     12.277200    4.863400    4.002000
  C     11.678600    4.162500    5.021100
  C     11.577900    4.724200    6.319300
  C     10.988400    4.013300    7.387300
  C     10.854300    4.569500    8.645000
  C     11.344900    5.891200    8.871500
  C     12.149700    6.290900   11.063000
  C      9.421300    5.387500   14.042000
  C     10.005400    6.119200   15.086400
  C      9.198400    6.409700   16.197700
  C      7.874100    5.996100   16.207400
  C      7.369900    5.316800   15.097800
  C      5.976200    4.990400   14.910500
  C      4.263800    4.369700   13.476600
  C      3.662300    3.202500   12.994000
  C      2.305200    3.195400   12.689500
  C      1.541300    4.353800   12.835100
  C      2.142900    5.525800   13.291400
  C      3.496800    5.536400   13.611100
  N     12.224100   16.394600   12.284900
  N     10.617600   14.410800   11.909800
  N      6.665500    5.570200   11.689800
  N      6.214300    3.060600   11.274200
  C     13.323100   17.220800   12.624000
  C     13.884500   18.104400   11.694900
  C     14.959100   18.907300   12.061900
  C     15.501800   18.819500   13.344100
  C     14.960600   17.922300   14.264300
  C     13.876100   17.126500   13.909800
  C     11.255000   16.299900   13.127900
  C     10.292600   15.241200   12.920500
  C      9.166300   15.024500   13.715200
  C      8.372400   13.911900   13.465800
  C      8.721200   13.037400   12.427800
  C      9.857800   13.349600   11.671800
  C      6.968900    6.836900   11.943800
  C      6.409600    7.911700   11.241500
  C      5.472200    7.618300   10.242000
  C      5.151400    6.293000    9.977800
  C      5.774600    5.288400   10.718500
  C      5.599700    3.873100   10.486600
  C      6.293300    1.699300   10.892100
  C      6.637700    1.382200    9.569700
  C      6.723200    0.053200    9.168300
  C      6.464300   -0.970900   10.078600
  C      6.134300   -0.657700   11.397500
  C      6.062400    0.668500   11.810600
  C      6.873800    9.274900   11.550200
  C      7.212400   10.157200   10.516400
  C      7.779000   11.391700   10.801100
  C      8.000700   11.788100   12.127900
  C      7.605600   10.930400   13.162700
  C      7.062200    9.685100   12.877500
  H      8.036900   15.881100    9.864500
  H      6.485800   17.680600   10.583000
  H      7.391700   19.851100   11.407900
  H      9.855800   20.206400   11.497900
  H     11.398000   18.417900   10.794000
  H      9.634000   15.767100    8.032500
  H     10.202100   13.719800    6.527300
  H     11.239800   11.441800    6.409100
  H     13.062200   12.237000   10.235000
  H     15.431500   13.046400   16.087600
  H     15.911700   12.365700   18.394200
  H     15.826700   10.649400   20.179500
  H     14.734800    8.454100   19.750200
  H     13.726100    7.961000   17.551400
  H     14.619800   10.457400   11.913700
  H     14.129700    8.839900   12.501200
  H     13.080800    9.728000   11.353200
  H     15.805600    8.660900   14.797800
  H     17.447000    6.995000   14.057400
  H     16.748100    4.660400   13.527000
  H     14.363000    4.006300   13.772300
  H     12.059300    4.591800   14.345900
  H     11.087100   10.555100   14.893400
  H     11.482100   10.330800   16.636500
  H      9.778600   10.330900   16.102100
  H      8.886900    5.298100   10.428200
  H     11.464400    2.016300    9.340800
  H     10.527800    0.741100   11.284400
  H      9.141100    0.866500   13.489700
  H      9.510100    2.081600   15.627900
  H      9.023100    1.383000   17.960500
  H      6.670300    0.968600   18.671400
  H      4.817600    1.250100   17.032400
  H      5.295800    1.946000   14.715800
  H     12.241600   17.932000    8.907300
  H     12.307800   18.855600    6.623400
  H     13.636000   17.724700    4.845600
  H     14.910700   15.652700    5.385500
  H     14.848300   14.720200    7.686600
  H     15.659600   15.729300    9.825400
  H     16.810400   14.727100   11.937600
  H     16.603800   13.133400   13.862000
  H     12.377800   12.897400   13.034100
  H     14.784200   11.107400    8.869900
  H     16.786900    9.758700    9.258000
  H     17.895600    7.535900    9.351500
  H     16.575000    5.477600    8.861400
  H     14.190000    5.617700    8.305300
  H      9.973100    7.783900    6.823900
  H      9.643300    7.891900    8.591400
  H      8.872200    9.042200    7.446400
  H     13.127500    7.721400    5.667900
  H     13.276000    6.699800    3.426300
  H     12.354600    4.426400    3.004600
  H     11.274200    3.163300    4.843100
  H     10.612200    3.005100    7.195800
  H     11.816900    6.801800   11.975500
  H     13.104000    6.727400   10.732700
  H     12.311000    5.222000   11.287500
  H     10.004000    5.139900   13.153300
  H      9.612800    6.957900   17.043700
  H      7.221300    6.209000   17.056400
  H      5.232900    5.292700   15.658500
  H      4.246000    2.292200   12.873000
  H      1.839000    2.272500   12.338000
  H      0.477200    4.342200   12.589400
  H      1.553700    6.439100   13.400200
  H      3.975600    6.461200   13.941600
  H     13.476300   18.181400   10.688700
  H     15.374200   19.611500   11.337600
  H     16.348300   19.450200   13.624100
  H     15.385300   17.843000   15.267300
  H     13.471600   16.401100   14.619700
  H     11.178100   16.955100   14.004000
  H      8.921300   15.725200   14.515800
  H      7.476500   13.730500   14.064000
  H     10.176900   12.689000   10.864800
  H      7.716700    7.018300   12.717400
  H      4.984400    8.423500    9.687800
  H      4.422500    6.029700    9.208700
  H      5.003300    3.521300    9.636100
  H      6.870400    2.184600    8.865500
  H      6.992000   -0.185100    8.137000
  H      6.522200   -2.014700    9.762300
  H      5.926500   -1.455000   12.114400
  H      5.810300    0.896400   12.844900
  H      7.073400    9.855700    9.475700
  H      8.055000   12.055400    9.978500
  H      7.767200   11.221300   14.203200
  H      6.781100    9.022500   13.699500

----------------------------
CARTESIAN COORDINATES (A.U.)
----------------------------
  NO LB      ZA    FRAG     MASS         X           Y           Z
   0 Fe   26.0000    0    55.850   22.828837   28.498960   20.475183
   1 Fe   26.0000    0    55.850   13.591099    7.557393   23.985160
   2 O     8.0000    0    15.999   24.601211   19.727418   25.046997
   3 O     8.0000    0    15.999   20.322871   16.340084   29.553049
   4 N     7.0000    0    14.007   20.179252   30.234106   18.565992
   5 N     7.0000    0    14.007   22.437474   25.951231   17.873408
   6 N     7.0000    0    14.007   16.567229    6.812841   21.933106
   7 N     7.0000    0    14.007   14.659739    4.565011   25.859201
   8 C     6.0000    0    12.011   18.556355   32.203957   19.368937
   9 C     6.0000    0    12.011   15.934360   31.825634   19.282765
  10 C     6.0000    0    12.011   14.295589   33.724053   20.071726
  11 C     6.0000    0    12.011   15.252547   36.016479   20.949504
  12 C     6.0000    0    12.011   17.860747   36.389700   21.054006
  13 C     6.0000    0    12.011   19.509722   34.488825   20.296226
  14 C     6.0000    0    12.011   19.652018   29.087798   16.485026
  15 C     6.0000    0    12.011   20.919457   26.723562   15.982548
  16 C     6.0000    0    12.011   20.484442   25.225954   13.855850
  17 C     6.0000    0    12.011   21.573491   22.843576   13.736230
  18 C     6.0000    0    12.011   23.110784   22.006806   15.729702
  19 C     6.0000    0    12.011   23.511784   23.685071   17.740371
  20 C     6.0000    0    12.011   27.099051   22.424057   27.715101
  21 C     6.0000    0    12.011   28.200005   22.861340   30.041921
  22 C     6.0000    0    12.011   28.082842   21.063454   32.010638
  23 C     6.0000    0    12.011   29.160364   21.545901   34.416448
  24 C     6.0000    0    12.011   29.069846   19.746882   36.286899
  25 C     6.0000    0    12.011   27.898972   17.393039   35.822971
  26 C     6.0000    0    12.011   26.832032   16.871286   33.508057
  27 C     6.0000    0    12.011   26.887590   18.689014   31.543687
  28 C     6.0000    0    12.011   25.781534   18.224141   29.124648
  29 C     6.0000    0    12.011   25.834446   20.079474   27.290102
  30 C     6.0000    0    12.011   25.999419   18.583000   23.074312
  31 C     6.0000    0    12.011   24.792640   15.653357   28.539967
  32 C     6.0000    0    12.011   26.646650   13.828449   27.755731
  33 C     6.0000    0    12.011   29.241622   14.456972   27.509499
  34 C     6.0000    0    12.011   30.981682   12.687621   26.726397
  35 C     6.0000    0    12.011   30.239020   10.188836   26.160991
  36 C     6.0000    0    12.011   27.745148    9.508913   26.409301
  37 C     6.0000    0    12.011   25.913437   11.296405   27.200718
  38 C     6.0000    0    12.011   23.348511   10.630276   27.481720
  39 C     6.0000    0    12.011   21.566688   12.348415   28.279185
  40 C     6.0000    0    12.011   22.293855   14.911451   28.811143
  41 C     6.0000    0    12.011   20.410743   18.975874   29.901893
  42 C     6.0000    0    12.011   17.529856    8.112783   20.011255
  43 C     6.0000    0    12.011   19.414857    7.138629   18.413491
  44 C     6.0000    0    12.011   20.221203    4.654962   18.861923
  45 C     6.0000    0    12.011   19.251396    3.313635   20.897536
  46 C     6.0000    0    12.011   17.445385    4.468635   22.424813
  47 C     6.0000    0    12.011   16.446287    3.374106   24.717996
  48 C     6.0000    0    12.011   14.059751    3.837656   28.365923
  49 C     6.0000    0    12.011   16.028846    3.547205   30.115432
  50 C     6.0000    0    12.011   15.505203    2.834400   32.591351
  51 C     6.0000    0    12.011   13.017945    2.403354   33.344407
  52 C     6.0000    0    12.011   11.055276    2.708355   31.610394
  53 C     6.0000    0    12.011   11.561156    3.446860   29.137876
  54 O     8.0000    0    15.999   20.413200   17.811614   14.762919
  55 O     8.0000    0    15.999   21.037943   12.219347   19.074518
  56 N     7.0000    0    14.007   25.651143   29.738809   18.452231
  57 N     7.0000    0    14.007   25.486358   26.717704   22.316910
  58 N     7.0000    0    14.007   15.395410    9.470363   26.533456
  59 N     7.0000    0    14.007   10.655977    8.333503   26.100141
  60 C     6.0000    0    12.011   25.638859   30.766442   15.978579
  61 C     6.0000    0    12.011   24.244619   32.933391   15.387662
  62 C     6.0000    0    12.011   24.314539   33.912269   12.948970
  63 C     6.0000    0    12.011   25.725409   32.718529   11.068693
  64 C     6.0000    0    12.011   27.078642   30.532305   11.641280
  65 C     6.0000    0    12.011   27.039146   29.556640   14.082617
  66 C     6.0000    0    12.011   27.796927   29.163577   19.440180
  67 C     6.0000    0    12.011   27.786911   27.632520   21.700481
  68 C     6.0000    0    12.011   29.941766   27.023651   23.083194
  69 C     6.0000    0    12.011   29.713298   25.360692   25.099720
  70 C     6.0000    0    12.011   27.354731   24.297910   25.671363
  71 C     6.0000    0    12.011   25.276410   25.091973   24.220053
  72 C     6.0000    0    12.011   24.305847   19.494982   15.809638
  73 C     6.0000    0    12.011   26.823907   19.284088   16.422098
  74 C     6.0000    0    12.011   28.043158   16.917206   16.544552
  75 C     6.0000    0    12.011   30.647767   16.713872   17.136981
  76 C     6.0000    0    12.011   31.808626   14.392721   17.228255
  77 C     6.0000    0    12.011   30.392087   12.193647   16.705557
  78 C     6.0000    0    12.011   27.861744   12.339912   16.116718
  79 C     6.0000    0    12.011   26.597895   14.703014   16.028657
  80 C     6.0000    0    12.011   23.952657   14.896522   15.437740
  81 C     6.0000    0    12.011   22.836018   17.264349   15.316230
  82 C     6.0000    0    12.011   18.486246   16.000311   14.482294
  83 C     6.0000    0    12.011   22.650824   12.463311   14.874412
  84 C     6.0000    0    12.011   22.868521   11.396371   12.402651
  85 C     6.0000    0    12.011   24.029002   12.710298   10.379699
  86 C     6.0000    0    12.011   24.187739   11.628808    8.018675
  87 C     6.0000    0    12.011   23.200546    9.190494    7.562684
  88 C     6.0000    0    12.011   22.069356    7.865985    9.488504
  89 C     6.0000    0    12.011   21.879060    8.927444   11.941746
  90 C     6.0000    0    12.011   20.765067    7.584038   13.959974
  91 C     6.0000    0    12.011   20.511654    8.635104   16.336682
  92 C     6.0000    0    12.011   21.438754   11.132755   16.764705
  93 C     6.0000    0    12.011   22.959606   11.888078   20.906040
  94 C     6.0000    0    12.011   17.803677   10.180900   26.535534
  95 C     6.0000    0    12.011   18.907466   11.563612   28.509164
  96 C     6.0000    0    12.011   17.382457   12.112578   30.609217
  97 C     6.0000    0    12.011   14.879893   11.330987   30.627547
  98 C     6.0000    0    12.011   13.927093   10.047296   28.530707
  99 C     6.0000    0    12.011   11.293381    9.430489   28.176762
 100 C     6.0000    0    12.011    8.057414    8.257536   25.467083
 101 C     6.0000    0    12.011    6.920744    6.051848   24.555101
 102 C     6.0000    0    12.011    4.356197    6.038431   23.979680
 103 C     6.0000    0    12.011    2.912635    8.227490   24.254824
 104 C     6.0000    0    12.011    4.049494   10.442249   25.117106
 105 C     6.0000    0    12.011    6.607994   10.462280   25.721251
 106 N     7.0000    0    14.007   23.100201   30.981304   23.215097
 107 N     7.0000    0    14.007   20.064356   27.232465   22.506260
 108 N     7.0000    0    14.007   12.595970   10.526153   22.090521
 109 N     7.0000    0    14.007   11.743325    5.783696   21.305150
 110 C     6.0000    0    12.011   25.177010   32.542596   23.855903
 111 C     6.0000    0    12.011   26.237903   34.212358   22.100158
 112 C     6.0000    0    12.011   28.268602   35.729619   22.793688
 113 C     6.0000    0    12.011   29.294157   35.563701   25.216695
 114 C     6.0000    0    12.011   28.271437   33.868239   26.955620
 115 C     6.0000    0    12.011   26.222029   32.364395   26.285713
 116 C     6.0000    0    12.011   21.268868   30.802347   24.808136
 117 C     6.0000    0    12.011   19.450195   28.801694   24.416207
 118 C     6.0000    0    12.011   17.321797   28.392190   25.917972
 119 C     6.0000    0    12.011   15.821543   26.289681   25.446674
 120 C     6.0000    0    12.011   16.480680   24.637115   23.485138
 121 C     6.0000    0    12.011   18.628542   25.227088   22.056505
 122 C     6.0000    0    12.011   13.169312   12.919869   22.570511
 123 C     6.0000    0    12.011   12.112389   14.950946   21.243356
 124 C     6.0000    0    12.011   10.340959   14.396501   19.354575
 125 C     6.0000    0    12.011    9.734735   11.892047   18.855309
 126 C     6.0000    0    12.011   10.912413    9.993628   20.255030
 127 C     6.0000    0    12.011   10.581899    7.319098   19.816802
 128 C     6.0000    0    12.011   11.892613    3.211212   20.583086
 129 C     6.0000    0    12.011   12.543435    2.611979   18.084112
 130 C     6.0000    0    12.011   12.705007    0.100533   17.325576
 131 C     6.0000    0    12.011   12.215757   -1.834735   19.045794
 132 C     6.0000    0    12.011   11.592147   -1.242873   21.538154
 133 C     6.0000    0    12.011   11.456276    1.263282   22.318799
 134 C     6.0000    0    12.011   12.989599   17.527021   21.826715
 135 C     6.0000    0    12.011   13.629461   19.194326   19.873116
 136 C     6.0000    0    12.011   14.700180   21.527193   20.411121
 137 C     6.0000    0    12.011   15.119132   22.276281   22.918410
 138 C     6.0000    0    12.011   14.372501   20.655463   24.873898
 139 C     6.0000    0    12.011   13.345624   18.302187   24.334948
 140 H     1.0000    0     1.008   15.187540   30.010930   18.641203
 141 H     1.0000    0     1.008   12.256386   33.411492   19.998972
 142 H     1.0000    0     1.008   13.968289   37.513142   21.557807
 143 H     1.0000    0     1.008   18.624763   38.184562   21.727882
 144 H     1.0000    0     1.008   21.539098   34.804787   20.397704
 145 H     1.0000    0     1.008   18.205622   29.795501   15.179225
 146 H     1.0000    0     1.008   19.279175   25.926665   12.334809
 147 H     1.0000    0     1.008   21.240144   21.621868   12.111444
 148 H     1.0000    0     1.008   24.683981   23.124579   19.341347
 149 H     1.0000    0     1.008   29.161309   24.654123   30.401158
 150 H     1.0000    0     1.008   30.068755   23.367786   34.760000
 151 H     1.0000    0     1.008   29.908129   20.124449   38.133729
 152 H     1.0000    0     1.008   27.844737   15.975934   37.322469
 153 H     1.0000    0     1.008   25.938570   15.044110   33.167339
 154 H     1.0000    0     1.008   27.627418   19.761622   22.513630
 155 H     1.0000    0     1.008   26.701263   16.704990   23.623844
 156 H     1.0000    0     1.008   24.719130   18.383256   21.454439
 157 H     1.0000    0     1.008   29.868255   16.366729   27.963789
 158 H     1.0000    0     1.008   32.970052   13.218634   26.564636
 159 H     1.0000    0     1.008   31.649322    8.806880   25.562325
 160 H     1.0000    0     1.008   27.142136    7.570810   26.025875
 161 H     1.0000    0     1.008   22.788774    8.677244   27.109822
 162 H     1.0000    0     1.008   20.951583   19.946248   28.144447
 163 H     1.0000    0     1.008   21.698024   19.522383   31.438429
 164 H     1.0000    0     1.008   18.478876   19.522572   30.428559
 165 H     1.0000    0     1.008   16.793807   10.011958   19.706442
 166 H     1.0000    0     1.008   21.664576    3.810255   17.651554
 167 H     1.0000    0     1.008   19.894659    1.400476   21.324426
 168 H     1.0000    0     1.008   17.274176    1.637448   25.491839
 169 H     1.0000    0     1.008   17.971485    3.933654   29.532451
 170 H     1.0000    0     1.008   17.051188    2.613491   33.940426
 171 H     1.0000    0     1.008   12.605040    1.830389   35.283833
 172 H     1.0000    0     1.008    9.103945    2.362347   32.186571
 173 H     1.0000    0     1.008   10.007612    3.677407   27.808832
 174 H     1.0000    0     1.008   23.133271   33.886569   16.832358
 175 H     1.0000    0     1.008   23.258371   35.631920   12.516412
 176 H     1.0000    0     1.008   25.768306   33.494829    9.156857
 177 H     1.0000    0     1.008   28.177139   29.579316   10.177120
 178 H     1.0000    0     1.008   28.059221   27.817147   14.525569
 179 H     1.0000    0     1.008   29.592355   29.724069   18.567315
 180 H     1.0000    0     1.008   31.767052   27.830186   22.558795
 181 H     1.0000    0     1.008   31.376635   24.818529   26.195384
 182 H     1.0000    0     1.008   23.390652   24.372554   24.630879
 183 H     1.0000    0     1.008   27.938089   20.989944   16.761682
 184 H     1.0000    0     1.008   31.722644   18.441270   17.495085
 185 H     1.0000    0     1.008   33.817783   14.240787   17.671774
 186 H     1.0000    0     1.008   31.322211   10.351164   16.745619
 187 H     1.0000    0     1.008   26.815214   10.615915   15.694742
 188 H     1.0000    0     1.008   18.846428   14.709439   12.895302
 189 H     1.0000    0     1.008   18.223196   14.913530   16.235393
 190 H     1.0000    0     1.008   16.766028   17.087282   14.071657
 191 H     1.0000    0     1.008   24.807380   14.591331   10.710779
 192 H     1.0000    0     1.008   25.088004   12.660787    6.474769
 193 H     1.0000    0     1.008   23.346810    8.364684    5.677871
 194 H     1.0000    0     1.008   21.305150    5.977771    9.152133
 195 H     1.0000    0     1.008   20.054152    5.678816   13.598091
 196 H     1.0000    0     1.008   22.330705   12.853539   22.630415
 197 H     1.0000    0     1.008   24.762971   12.712944   20.281864
 198 H     1.0000    0     1.008   23.264418    9.868150   21.330284
 199 H     1.0000    0     1.008   18.904820    9.713003   24.856135
 200 H     1.0000    0     1.008   18.165559   13.148525   32.207925
 201 H     1.0000    0     1.008   13.646279   11.733310   32.231925
 202 H     1.0000    0     1.008    9.888748   10.001754   29.590277
 203 H     1.0000    0     1.008    8.023777    4.331630   24.326445
 204 H     1.0000    0     1.008    3.475206    4.294403   23.315441
 205 H     1.0000    0     1.008    0.901777    8.205569   23.790518
 206 H     1.0000    0     1.008    2.936067   12.168136   25.322708
 207 H     1.0000    0     1.008    7.512795   12.209898   26.345806
 208 H     1.0000    0     1.008   25.466516   34.357867   20.198716
 209 H     1.0000    0     1.008   29.053028   37.060364   21.424959
 210 H     1.0000    0     1.008   30.893810   36.755551   25.745818
 211 H     1.0000    0     1.008   29.074003   33.718383   28.851016
 212 H     1.0000    0     1.008   25.457635   30.993587   27.627229
 213 H     1.0000    0     1.008   21.123548   32.040496   26.463725
 214 H     1.0000    0     1.008   16.858814   29.716321   27.430887
 215 H     1.0000    0     1.008   14.128537   25.946885   26.577108
 216 H     1.0000    0     1.008   19.231554   23.978735   20.531496
 217 H     1.0000    0     1.008   14.582450   13.262665   24.032403
 218 H     1.0000    0     1.008    9.419151   15.918108   18.307289
 219 H     1.0000    0     1.008    8.357314   11.394482   17.401921
 220 H     1.0000    0     1.008    9.454867    6.654293   18.209590
 221 H     1.0000    0     1.008   12.983174    4.128296   16.753367
 222 H     1.0000    0     1.008   13.212965   -0.349788   15.376702
 223 H     1.0000    0     1.008   12.325172   -3.807231   18.448073
 224 H     1.0000    0     1.008   11.199462   -2.749552   22.892898
 225 H     1.0000    0     1.008   10.979876    1.693951   24.273343
 226 H     1.0000    0     1.008   13.366789   18.624574   17.906478
 227 H     1.0000    0     1.008   15.221744   22.781404   18.856632
 228 H     1.0000    0     1.008   14.677881   21.205184   26.840158
 229 H     1.0000    0     1.008   12.814422   17.050054   25.888303

--------------------------------
INTERNAL COORDINATES (ANGSTROEM)
--------------------------------
 Fe     0   0   0     0.000000000000     0.00000000     0.00000000
 Fe     1   0   0    12.253680286347     0.00000000     0.00000000
 O      1   2   0     5.317710765922    38.00116530     0.00000000
 O      3   1   2     3.744942255897   126.93088259   307.13233205
 N      1   2   3     1.956957265757   102.51861959   183.39304145
 N      1   2   3     1.938069113835    55.66285671   110.65346301
 N      2   1   3     1.953132053907    77.08426854   293.72914136
 N      2   1   3     1.952109471828   134.03007742     1.05626532
 C      5   1   2     1.415865533870   128.68843864   108.58549230
 C      9   5   1     1.402610298693   119.02421474   238.63132787
 C     10   9   5     1.391245215625   120.25099259   179.68496087
 C     11  10   9     1.394206878480   120.12345048     0.09771689
 C     12  11  10     1.395355288090   119.71136520   359.43714860
 C     13  12  11     1.390707219367   120.45300358   359.80390806
 C      5   1   2     1.287806662508   112.06551164   300.87162965
 C      6   1   2     1.346672543717   112.36219563   118.44463713
 C     16   6   1     1.395554889641   121.68395321   176.76541923
 C     17  16   6     1.387621371268   118.96088830     2.39130110
 C     18  17  16     1.403804865357   119.53605002   359.11946933
 C      6   1   2     1.328995504131   128.28855410   296.36841711
 C      3   1   2     2.403527792641    81.14180786   206.17798093
 C     21   3   1     1.381690417568   148.73860608   155.14164580
 C     22  21   3     1.412215705903   121.74036424     3.59228943
 C     23  22  21     1.418128957465   121.55574261   181.61213189
 C     24  23  22     1.374155176827   120.52393522   181.37909541
 C     25  24  23     1.412690259753   120.06362612     0.04739441
 C     26  25  24     1.376818568294   120.74998190   359.82746822
 C     27  26  25     1.416571996052   120.54514555     0.00000000
 C     28  27  26     1.428897512070   122.14029454   180.55272990
 C      3   1   2     1.367319805313   111.11261165   215.79293806
 C      3   1   2     1.415602550153    97.47610979    93.37415915
 C     29  28  27     1.490053492328   119.14730936   352.97796276
 C     32  29  28     1.437831248791   115.68927763   278.50736937
 C     33  32  29     1.418900662485   121.96754727   358.81696549
 C     34  33  32     1.377046727602   121.02382909   180.78313850
 C     35  34  33     1.411540622866   120.96817872   359.56529712
 C     36  35  34     1.374165233878   119.49802072   359.63725154
 C     37  36  35     1.417625740455   120.67662509     0.65410985
 C     38  37  36     1.410188366850   121.49797380   180.40343976
 C     39  38  37     1.376150082658   121.78019761   179.18439721
 C      4   3   1     1.346669877884    67.34709667   169.52628306
 C      4   3   1     1.407730957960    65.74976839   319.30503186
 C      7   2   1     1.329279417579   129.04839108   321.94423119
 C     43   7   2     1.405566344930   122.84616668   191.66438651
 C     44  43   7     1.402058725589   117.25627207     2.05661697
 C     45  44  43     1.388362387851   119.87243936   356.78945906
 C      7   2   1     1.349996437032   110.84053884   151.74972982
 C      8   2   1     1.286712248329   111.82100346   285.61563509
 C      8   2   1     1.417235516772   129.11617297    93.94355172
 C     49   8   2     1.402317128898   118.76559389   240.39960352
 C     50  49   8     1.391290153059   120.22764852   180.01602360
 C     51  50  49     1.393992216621   120.10748606     0.04922211
 C     52  51  50     1.395252550616   119.72962930   359.51457239
 C     53  52  51     1.391509428642   120.50823462   359.80182820
 O     19  18  17     2.688473695240    79.03384736   137.73937251
 O     44  43   7     2.844053306462    78.09012638   220.74735625
 N      1   2   3     1.951148305486   133.83874241    71.94017540
 N      1   2   3     1.953463490829    77.00813088     4.60032430
 N      2   1   3     1.937742650612    55.69937441    39.65506712
 N      2   1   3     1.957987070948   102.32206695   112.59590150
 C     57   1   2     1.417477227330   129.20949744    94.84949178
 C     61  57   1     1.398946396400   121.55403390    59.38723335
 C     62  61  57     1.391072697597   119.90530495   178.86624006
 C     63  62  61     1.395163592558   120.48060386     1.33789680
 C     64  63  62     1.393924610587   119.71439300   359.85702426
 C     65  64  63     1.391405084797   120.13755693   359.47188245
 C     57   1   2     1.286599957252   111.90408662   285.76885320
 C     58   1   2     1.350119257695   110.82882487   151.52511621
 C     68  58   1     1.392652799516   121.89816494   167.71168035
 C     69  68  58     1.388423285601   118.62957767     2.16424108
 C     70  69  68     1.401982032695   119.84149649     1.22797033
 C     58   1   2     1.329176327656   129.06163504   321.47030707
 C     19  18  17     1.472579943501   123.72221615   178.61027336
 C     73  19  18     1.375882124312   119.72846146   132.56041781
 C     74  73  19     1.410403605356   121.72797941   179.41873981
 C     75  74  73     1.417593347896   121.48959586   178.97536209
 C     76  75  74     1.374197318437   120.68057891   180.51623413
 C     77  76  75     1.411596758993   119.51100558     0.51775312
 C     78  77  76     1.376955453165   120.95702475   359.70731850
 C     79  78  77     1.418878166017   121.02005361   359.70438642
 C     80  79  78     1.437952394900   121.92142010   180.50572321
 C     55  19  18     1.346618138152    68.32604978   141.36957106
 C     55  19  18     1.407324621400   165.28529037   293.73065058
 C     81  80  79     1.490422953393   115.58992555   358.76899881
 C     84  81  80     1.429303396764   119.14644345   278.61187635
 C     85  84  81     1.416520790529   122.18362757   352.40872475
 C     86  85  84     1.376801964699   120.54470287   180.47897655
 C     87  86  85     1.412799186013   120.80136649   359.96607130
 C     88  87  86     1.374098824685   120.01732173   359.87114626
 C     89  88  87     1.418086957841   120.52027646     0.06296392
 C     90  89  88     1.411918220011   121.51239094   181.13794803
 C     91  90  89     1.381720138089   121.76018715   181.81610583
 C     56  44  43     1.367343665652    62.57163965   215.50747517
 C     56  44  43     1.415685113293   100.60708860   100.86880906
 C     59   2   1     1.328710867721   128.38967200   296.45546837
 C     95  59   2     1.402615079058   123.20617206   180.27193230
 C     96  95  59     1.403790205123   117.25944424     2.63560216
 C     97  96  95     1.387418300297   119.50922812   358.62783291
 C     59   2   1     1.346838780255   112.34960924   117.97361601
 C     60   2   1     1.287762691648   111.99667432   300.72009167
 C     60   2   1     1.415888784474   128.99211101   108.66218150
 C    101  60   2     1.398949909754   121.52619906    57.07228721
 C    102 101  60     1.390859831184   119.95454450   179.26133085
 C    103 102 101     1.395217950716   120.47341097     1.34597520
 C    104 103 102     1.394172245456   119.72599370   359.88597306
 C    105 104 103     1.391174201888   120.10376255   359.44224874
 N      1   2   3     1.961727792024   121.51666434   289.66161596
 N      1   2   3     1.935055422979    45.65241953   252.94327544
 N      2   1   3     1.936635050803    45.28195544   182.36246206
 N      2   1   3     1.961722212751   121.46395755   218.58856037
 C    107   1   2     1.416120139677   128.64249932   135.44897483
 C    111 107   1     1.399694870320   121.37423557    56.95479886
 C    112 111 107     1.390720162362   119.94737555   179.66379575
 C    113 112 111     1.395087441704   120.45012160     1.32925264
 C    114 113 112     1.394501100753   119.73577000   359.86242909
 C    115 114 113     1.391081643902   120.16315096   359.41119136
 C    107   1   2     1.287933189261   112.29953007   327.36925294
 C    108   1   2     1.347851494045   112.66907699   159.16556501
 C    118 108   1     1.395370441854   121.73657178   172.25368939
 C    119 118 108     1.389372638999   118.90463580     0.89999339
 C    120 119 118     1.401376355588   119.37052679     0.06824533
 C    108   1   2     1.326682132238   127.61573395   331.54479919
 C    109   2   1     1.327063091944   127.81018940   331.65282301
 C    123 109   2     1.400441651766   123.04322632   187.55658793
 C    124 123 109     1.401357402664   117.65479781     1.03546556
 C    125 124 123     1.388932816950   119.33710719   359.17138530
 C    109   2   1     1.347789946542   112.53312305   159.10975182
 C    110   2   1     1.287712378600   112.22060977   328.09362796
 C    110   2   1     1.416114084387   128.84354030   136.11719429
 C    129 110   2     1.402820562296   119.03510606   237.80077215
 C    130 129 110     1.390925307125   120.20616922   179.95959114
 C    131 130 129     1.394437560452   120.12694824     0.12114617
 C    132 131 130     1.395167176363   119.74686178   359.26035245
 C    133 132 131     1.390908933036   120.46665053   359.97077605
 C    124 123 109     1.472783612755   118.64479835   183.51640045
 C    135 124 123     1.400659019890   120.30069825   132.83560092
 C    136 135 124     1.387832806933   120.50456020   186.63754453
 C    137 136 135     1.402384430176   120.66761735   358.85263140
 C    138 137 136     1.400915536355   118.76415519   358.25221336
 C    139 138 137     1.388306410703   120.51897133     2.97160130
 H     10   9   5     1.092528892066   119.56390907     1.37222819
 H     11  10   9     1.092380986653   119.72508069   180.04455581
 H     12  11  10     1.092126261016   120.20979728   179.59666668
 H     13  12  11     1.092127323163   120.14630700   179.60661748
 H     14  13  12     1.088163930665   119.59451894   180.30822946
 H     15   5   1     1.097072654841   121.93426545   179.85247185
 H     17  16   6     1.091854152348   119.86661149   181.46935971
 H     18  17  16     1.090107907503   120.50338930   178.99421002
 H     20   6   1     1.091096462280   116.57356952     3.80576319
 H     22  21   3     1.093135577136   119.77162861   184.76874870
 H     24  23  22     1.092525761710   119.02297608     1.21128571
 H     25  24  23     1.091703389204   120.25561352   179.77449381
 H     26  25  24     1.092161137379   119.38488951   179.78800775
 H     27  26  25     1.091303596622   120.15458275   179.76603042
 H     31   3   1     1.104180614755   111.36474171    55.34267933
 H     31   3   1     1.100064107223   111.59266959   176.80605195
 H     31   3   1     1.097711519480   107.12487072   296.20293340
 H     34  33  32     1.090441690326   119.42611492     1.32496998
 H     35  34  33     1.092434528931   119.52052113   180.39339979
 H     36  35  34     1.091845053110   119.90975661   180.65927132
 H     37  36  35     1.093091295364   120.54865475   181.54143422
 H     39  38  37     1.092971605304   118.56914205     1.16334067
 H     42   4   3     1.100223927208   111.11150348    24.99047534
 H     42   4   3     1.099455178714   112.21407549   261.43565190
 H     42   4   3     1.098392220475   105.27754493   143.42982060
 H     43   7   2     1.089840786537   116.96773189    11.77335046
 H     45  44  43     1.092446653160   119.80916661   179.18252046
 H     46  45  44     1.091721910561   121.29158027   182.06513416
 H     48   8   2     1.097352659814   121.89491731   180.41168936
 H     50  49   8     1.092600796265   119.48526652     1.63456410
 H     51  50  49     1.092065213254   119.69831418   180.01685841
 H     52  51  50     1.092228996136   120.19358944   179.55622651
 H     53  52  51     1.092132034142   120.05340812   179.63384273
 H     54  53  52     1.088743909283   119.57731963   180.03994843
 H     62  61  57     1.088458184773   120.51793095     0.15888089
 H     63  62  61     1.092183327102   119.41138204   181.54364535
 H     64  63  62     1.092157873203   120.09632918   179.85397251
 H     65  64  63     1.092036272291   120.16621357   179.57829085
 H     66  65  64     1.092541829863   120.29243996   178.45216328
 H     67  57   1     1.097275343749   121.95006703   180.57387856
 H     69  68  58     1.091845822449   120.02493383   181.37774736
 H     70  69  68     1.092351449855   120.28120908   178.77533947
 H     72  58   1     1.089953971505   116.98276966    11.94269744
 H     74  73  19     1.093063374192   119.61267481   357.26587685
 H     76  75  74     1.093170846666   118.73538595   359.69674695
 H     77  76  75     1.091761187257   120.57793587   179.56607825
 H     78  77  76     1.092398864884   119.51964751   178.93426612
 H     79  78  77     1.090343349592   119.55281773   179.15062887
 H     83  55  82     1.099189706102   112.22474849   297.03812918
 H     83  55  82     1.100338102585   111.01853241    60.53810960
 H     83  55  82     1.098508270338   105.34750365   179.11219244
 H     86  85  84     1.091410926278   119.33865735     0.75712428
 H     87  86  85     1.092094853939   119.84370897   180.03507046
 H     88  87  86     1.091680594313   119.69749574   180.06777066
 H     89  88  87     1.092531006425   120.45897416   180.13797458
 H     91  90  89     1.093007744712   118.39899300     0.45887039
 H     94  56  44     1.097465671445   107.08339091   245.02528442
 H     94  56  44     1.100144913182   111.61755453   125.62852742
 H     94  56  44     1.104067547752   111.34814679     4.11738823
 H     95  59   2     1.091161188826   116.57082015     3.12586030
 H     97  96  95     1.089938805622   119.99863320   178.73576911
 H     98  97  96     1.091913572587   121.19569395   180.12856256
 H    100  60   2     1.096988687271   121.91160878   180.01310231
 H    102 101  60     1.088114323038   120.37852264     0.45107665
 H    103 102 101     1.092080171050   119.42666178   181.58035695
 H    104 103 102     1.092159264943   120.07620619   179.69713075
 H    105 104 103     1.092296191516   120.18027652   179.48915830
 H    106 105 104     1.092581681157   120.16228436   178.25656698
 H    112 111 107     1.088574609294   120.51798228     0.66940142
 H    113 112 111     1.092161224362   119.40092771   181.52278758
 H    114 113 112     1.092128536391   120.05336727   179.74951289
 H    115 114 113     1.092093210308   120.12164062   179.53836584
 H    116 115 114     1.092603963017   120.18924206   178.07438392
 H    117 107   1     1.096700442236   122.12109235   179.79629815
 H    119 118 108     1.091771885515   119.94032695   181.01621624
 H    120 119 118     1.092422084178   120.21813997   181.01758108
 H    122 108   1     1.090626503437   116.72288627     9.95496364
 H    123 109   2     1.091131412800   116.81265795     9.67868043
 H    125 124 123     1.092443829220   120.41092241   178.06855271
 H    126 125 124     1.091850223245   121.21711512   179.75697335
 H    128 110   2     1.096725330245   122.10417516   179.93423607
 H    130 129 110     1.092653966267   119.59235170     1.95963786
 H    131 130 129     1.092071435392   119.74561701   180.00431392
 H    132 131 130     1.092207187305   120.19697895   179.44119108
 H    133 132 131     1.092160125623   120.10887077   179.75705228
 H    134 133 132     1.088700744006   119.58556405   180.41870902
 H    136 135 124     1.092373443471   119.90385645     3.79677983
 H    137 136 135     1.092403062061   119.28204312   178.70007340
 H    139 138 137     1.092418244081   119.92063722   180.13833683
 H    140 139 138     1.092584079144   119.34919600   178.65048812

---------------------------
INTERNAL COORDINATES (A.U.)
---------------------------
 Fe     0   0   0     0.000000000000     0.00000000     0.00000000
 Fe     1   0   0    23.156099873825     0.00000000     0.00000000
 O      1   2   0    10.049017006997    38.00116530     0.00000000
 O      3   1   2     7.076915250994   126.93088259   307.13233205
 N      1   2   3     3.698113288069   102.51861959   183.39304145
 N      1   2   3     3.662419853759    55.66285671   110.65346301
 N      2   1   3     3.690884685268    77.08426854   293.72914136
 N      2   1   3     3.688952285188   134.03007742     1.05626532
 C      5   1   2     2.675598101472   128.68843864   108.58549230
 C      9   5   1     2.650549337147   119.02421474   238.63132787
 C     10   9   5     2.629072442660   120.25099259   179.68496087
 C     11  10   9     2.634669174356   120.12345048     0.09771689
 C     12  11  10     2.636839354008   119.71136520   359.43714860
 C     13  12  11     2.628055777071   120.45300358   359.80390806
 C      5   1   2     2.433601905579   112.06551164   300.87162965
 C      6   1   2     2.544842299695   112.36219563   118.44463713
 C     16   6   1     2.637216546276   121.68395321   176.76541923
 C     17  16   6     2.622224369273   118.96088830     2.39130110
 C     18  17  16     2.652806740991   119.53605002   359.11946933
 C      6   1   2     2.511437536020   128.28855410   296.36841711
 C      3   1   2     4.542009283361    81.14180786   206.17798093
 C     21   3   1     2.611016491067   148.73860608   155.14164580
 C     22  21   3     2.668700926180   121.74036424     3.59228943
 C     23  22  21     2.679875352192   121.55574261   181.61213189
 C     24  23  22     2.596776949713   120.52393522   181.37909541
 C     25  24  23     2.669597702991   120.06362612     0.04739441
 C     26  25  24     2.601810030174   120.74998190   359.82746822
 C     27  26  25     2.676933121521   120.54514555     0.00000000
 C     28  27  26     2.700224971254   122.14029454   180.55272990
 C      3   1   2     2.583859969527   111.11261165   215.79293806
 C      3   1   2     2.675101134270    97.47610979    93.37415915
 C     29  28  27     2.815793025394   119.14730936   352.97796276
 C     32  29  28     2.717107287009   115.68927763   278.50736937
 C     33  32  29     2.681333663336   121.96754727   358.81696549
 C     34  33  32     2.602241188781   121.02382909   180.78313850
 C     35  34  33     2.667425204121   120.96817872   359.56529712
 C     36  35  34     2.596795954786   119.49802072   359.63725154
 C     37  36  35     2.678924409857   120.67662509     0.65410985
 C     38  37  36     2.664869810589   121.49797380   180.40343976
 C     39  38  37     2.600546775397   121.78019761   179.18439721
 C      4   3   1     2.544837262002    67.34709667   169.52628306
 C      4   3   1     2.660225980788    65.74976839   319.30503186
 C      7   2   1     2.511974054683   129.04839108   321.94423119
 C     43   7   2     2.656135454974   122.84616668   191.66438651
 C     44  43   7     2.649507015038   117.25627207     2.05661697
 C     45  44  43     2.623624687676   119.87243936   356.78945906
 C      7   2   1     2.551123547761   110.84053884   151.74972982
 C      8   2   1     2.431533762504   111.82100346   285.61563509
 C      8   2   1     2.678186993965   129.11617297    93.94355172
 C     49   8   2     2.649995326523   118.76559389   240.39960352
 C     50  49   8     2.629157362104   120.22764852   180.01602360
 C     51  50  49     2.634263522232   120.10748606     0.04922211
 C     52  51  50     2.636645208319   119.72962930   359.51457239
 C     53  52  51     2.629571732903   120.50823462   359.80182820
 O     19  18  17     5.080479002256    79.03384736   137.73937251
 O     44  43   7     5.374481859487    78.09012638   220.74735625
 N      1   2   3     3.687135944033   133.83874241    71.94017540
 N      1   2   3     3.691511010280    77.00813088     4.60032430
 N      2   1   3     3.661802927675    55.69937441    39.65506712
 N      2   1   3     3.700059337851   102.32206695   112.59590150
 C     57   1   2     2.678643760724   129.20949744    94.84949178
 C     61  57   1     2.643625565232   121.55403390    59.38723335
 C     62  61  57     2.628746430834   119.90530495   178.86624006
 C     63  62  61     2.636477101953   120.48060386     1.33789680
 C     64  63  62     2.634135765342   119.71439300   359.85702426
 C     65  64  63     2.629374551613   120.13755693   359.47188245
 C     57   1   2     2.431321563120   111.90408662   285.76885320
 C     58   1   2     2.551355645177   110.82882487   151.52511621
 C     68  58   1     2.631732390724   121.89816494   167.71168035
 C     69  68  58     2.623739767746   118.62957767     2.16424108
 C     70  69  68     2.649362086472   119.84149649     1.22797033
 C     58   1   2     2.511779242960   129.06163504   321.47030707
 C     19  18  17     2.782772803521   123.72221615   178.61027336
 C     73  19  18     2.600040407507   119.72846146   132.56041781
 C     74  73  19     2.665276552417   121.72797941   179.41873981
 C     75  74  73     2.678863196793   121.48959586   178.97536209
 C     76  75  74     2.596856585815   120.68057891   180.51623413
 C     77  76  75     2.667531286028   119.51100558     0.51775312
 C     78  77  76     2.602068705091   120.95702475   359.70731850
 C     79  78  77     2.681291151173   121.02005361   359.70438642
 C     80  79  78     2.717336219978   121.92142010   180.50572321
 C     55  19  18     2.544739488078    68.32604978   141.36957106
 C     55  19  18     2.659458115971   165.28529037   293.73065058
 C     81  80  79     2.816491205622   115.58992555   358.76899881
 C     84  81  80     2.700991982167   119.14644345   278.61187635
 C     85  84  81     2.676836357105   122.18362757   352.40872475
 C     86  85  84     2.601778653926   120.54470287   180.47897655
 C     87  86  85     2.669803543792   120.80136649   359.96607130
 C     88  87  86     2.596670459597   120.01732173   359.87114626
 C     89  88  87     2.679795984406   120.52027646     0.06296392
 C     90  89  88     2.668138759315   121.51239094   181.13794803
 C     91  90  89     2.611072654712   121.76018715   181.81610583
 C     56  44  43     2.583905059035    62.57163965   215.50747517
 C     56  44  43     2.675257155993   100.60708860   100.86880906
 C     59   2   1     2.510899651158   128.38967200   296.45546837
 C     95  59   2     2.650558370727   123.20617206   180.27193230
 C     96  95  59     2.652779037164   117.25944424     2.63560216
 C     97  96  95     2.621840620753   119.50922812   358.62783291
 C     59   2   1     2.545156441227   112.34960924   117.97361601
 C     60   2   1     2.433518812696   111.99667432   300.72009167
 C     60   2   1     2.675642038747   128.99211101   108.66218150
 C    101  60   2     2.643632204508   121.52619906    57.07228721
 C    102 101  60     2.628344171609   119.95454450   179.26133085
 C    103 102 101     2.636579823984   120.47341097     1.34597520
 C    104 103 102     2.634603727426   119.72599370   359.88597306
 C    105 104 103     2.628938246146   120.10376255   359.44224874
 N      1   2   3     3.707128276228   121.51666434   289.66161596
 N      1   2   3     3.656724803389    45.65241953   252.94327544
 N      2   1   3     3.659709867371    45.28195544   182.36246206
 N      2   1   3     3.707117732929   121.46395755   218.58856037
 C    107   1   2     2.676079236721   128.64249932   135.44897483
 C    111 107   1     2.645039975959   121.37423557    56.95479886
 C    112 111 107     2.628080235787   119.94737555   179.66379575
 C    113 112 111     2.636333197693   120.45012160     1.32925264
 C    114 113 112     2.635225173874   119.73577000   359.86242909
 C    115 114 113     2.628763336899   120.16315096   359.41119136
 C    107   1   2     2.433841006491   112.29953007   327.36925294
 C    108   1   2     2.547070192942   112.66907699   159.16556501
 C    118 108   1     2.636867990473   121.73657178   172.25368939
 C    119 118 108     2.625533785672   118.90463580     0.89999339
 C    120 119 118     2.648217522613   119.37052679     0.06824533
 C    108   1   2     2.507065896697   127.61573395   331.54479919
 C    109   2   1     2.507785806209   127.81018940   331.65282301
 C    123 109   2     2.646451188373   123.04322632   187.55658793
 C    124 123 109     2.648181706777   117.65479781     1.03546556
 C    125 124 123     2.624702642451   119.33710719   359.17138530
 C    109   2   1     2.546953885017   112.53312305   159.10975182
 C    110   2   1     2.433423734815   112.22060977   328.09362796
 C    110   2   1     2.676067793881   128.84354030   136.11719429
 C    129 110   2     2.650946677773   119.03510606   237.80077215
 C    130 129 110     2.628467903206   120.20616922   179.95959114
 C    131 130 129     2.635105100108   120.12694824     0.12114617
 C    132 131 130     2.636483874362   119.74686178   359.26035245
 C    133 132 131     2.628436960663   120.46665053   359.97077605
 C    124 123 109     2.783157682634   118.64479835   183.51640045
 C    135 124 123     2.646861954599   120.30069825   132.83560092
 C    136 135 124     2.622623924775   120.50456020   186.63754453
 C    137 136 135     2.650122507508   120.66761735   358.85263140
 C    138 137 136     2.647346700466   118.76415519   358.25221336
 C    139 138 137     2.623518906197   120.51897133     2.97160130
 H     10   9   5     2.064580399402   119.56390907     1.37222819
 H     11  10   9     2.064300898676   119.72508069   180.04455581
 H     12  11  10     2.063819536983   120.20979728   179.59666668
 H     13  12  11     2.063821544151   120.14630700   179.60661748
 H     14  13  12     2.056331817768   119.59451894   180.30822946
 H     15   5   1     2.073166866664   121.93426545   179.85247185
 H     17  16   6     2.063305326123   119.86661149   181.46935971
 H     18  17  16     2.060005401602   120.50338930   178.99421002
 H     20   6   1     2.061873499400   116.57356952     3.80576319
 H     22  21   3     2.065726868033   119.77162861   184.76874870
 H     24  23  22     2.064574483886   119.02297608     1.21128571
 H     25  24  23     2.063020425070   120.25561352   179.77449381
 H     26  25  24     2.063885443757   119.38488951   179.78800775
 H     27  26  25     2.062264926579   120.15458275   179.76603042
 H     31   3   1     2.086598964271   111.36474171    55.34267933
 H     31   3   1     2.078819892408   111.59266959   176.80605195
 H     31   3   1     2.074374145869   107.12487072   296.20293340
 H     34  33  32     2.060636159725   119.42611492     1.32496998
 H     35  34  33     2.064402078918   119.52052113   180.39339979
 H     36  35  34     2.063288131054   119.90975661   180.65927132
 H     37  36  35     2.065643187611   120.54865475   181.54143422
 H     39  38  37     2.065417006176   118.56914205     1.16334067
 H     42   4   3     2.079121908410   111.11150348    24.99047534
 H     42   4   3     2.077669184290   112.21407549   261.43565190
 H     42   4   3     2.075660484327   105.27754493   143.42982060
 H     43   7   2     2.059500616133   116.96773189    11.77335046
 H     45  44  43     2.064424990391   119.80916661   179.18252046
 H     46  45  44     2.063055425362   121.29158027   182.06513416
 H     48   8   2     2.073695999378   121.89491731   180.41168936
 H     50  49   8     2.064716278646   119.48526652     1.63456410
 H     51  50  49     2.063704173433   119.69831418   180.01685841
 H     52  51  50     2.064013678225   120.19358944   179.55622651
 H     53  52  51     2.063830446611   120.05340812   179.63384273
 H     54  53  52     2.057427818519   119.57731963   180.03994843
 H     62  61  57     2.056887877447   120.51793095     0.15888089
 H     63  62  61     2.063927376258   119.41138204   181.54364535
 H     64  63  62     2.063879275360   120.09632918   179.85397251
 H     65  64  63     2.063649482939   120.16621357   179.57829085
 H     66  65  64     2.064604848294   120.29243996   178.45216328
 H     67  57   1     2.073549893190   121.95006703   180.57387856
 H     69  68  58     2.063289584895   120.02493383   181.37774736
 H     70  69  68     2.064245082217   120.28120908   178.77533947
 H     72  58   1     2.059714504725   116.98276966    11.94269744
 H     74  73  19     2.065590424243   119.61267481   357.26587685
 H     76  75  74     2.065793517785   118.73538595   359.69674695
 H     77  76  75     2.063129647560   120.57793587   179.56607825
 H     78  77  76     2.064334683637   119.51964751   178.93426612
 H     79  78  77     2.060450322672   119.55281773   179.15062887
 H     83  55  82     2.077167513758   112.22474849   297.03812918
 H     83  55  82     2.079337668604   111.01853241    60.53810960
 H     83  55  82     2.075879786786   105.34750365   179.11219244
 H     86  85  84     2.062467750236   119.33865735     0.75712428
 H     87  86  85     2.063760186209   119.84370897   180.03507046
 H     88  87  86     2.062977348968   119.69749574   180.06777066
 H     89  88  87     2.064584394961   120.45897416   180.13797458
 H     91  90  89     2.065485299760   118.39899300     0.45887039
 H     94  56  44     2.073909560411   107.08339091   245.02528442
 H     94  56  44     2.078972593540   111.61755453   125.62852742
 H     94  56  44     2.086385298602   111.34814679     4.11738823
 H     95  59   2     2.061995814845   116.57082015     3.12586030
 H     97  96  95     2.059685845358   119.99863320   178.73576911
 H     98  97  96     2.063417614101   121.19569395   180.12856256
 H    100  60   2     2.073008190952   121.91160878   180.01310231
 H    102 101  60     2.056238072939   120.37852264     0.45107665
 H    103 102 101     2.063732439570   119.42666178   181.58035695
 H    104 103 102     2.063881905366   120.07620619   179.69713075
 H    105 104 103     2.064140659090   120.18027652   179.48915830
 H    106 105 104     2.064680156326   120.16228436   178.25656698
 H    112 111 107     2.057107887906   120.51798228     0.66940142
 H    113 112 111     2.063885608132   119.40092771   181.52278758
 H    114 113 112     2.063823836820   120.05336727   179.74951289
 H    115 114 113     2.063757080196   120.12164062   179.53836584
 H    116 115 114     2.064722262939   120.18924206   178.07438392
 H    117 107   1     2.072463486776   122.12109235   179.79629815
 H    119 118 108     2.063149864337   119.94032695   181.01621624
 H    120 119 118     2.064378561744   120.21813997   181.01758108
 H    122 108   1     2.060985405893   116.72288627     9.95496364
 H    123 109   2     2.061939546312   116.81265795     9.67868043
 H    125 124 123     2.064419653917   120.41092241   178.06855271
 H    126 125 124     2.063297901194   121.21711512   179.75697335
 H    128 110   2     2.072510518297   122.10417516   179.93423607
 H    130 129 110     2.064816755388   119.59235170     1.95963786
 H    131 130 129     2.063715931570   119.74561701   180.00431392
 H    132 131 130     2.063972465506   120.19697895   179.44119108
 H    133 132 131     2.063883531816   120.10887077   179.75705228
 H    134 133 132     2.057346247968   119.58556405   180.41870902
 H    136 135 124     2.064286644128   119.90385645     3.79677983
 H    137 136 135     2.064342615152   119.28204312   178.70007340
 H    139 138 137     2.064371305011   119.92063722   180.13833683
 H    140 139 138     2.064684687866   119.34919600   178.65048812

---------------------
BASIS SET INFORMATION
---------------------
There are 5 groups of distinct atoms

 Group   1 Type Fe  : 17s11p7d1f contracted to 6s4p4d1f pattern {842111/6311/4111/1}
 Group   2 Type O   : 11s6p2d1f contracted to 5s3p2d1f pattern {62111/411/11/1}
 Group   3 Type N   : 11s6p2d1f contracted to 5s3p2d1f pattern {62111/411/11/1}
 Group   4 Type C   : 11s6p2d1f contracted to 5s3p2d1f pattern {62111/411/11/1}
 Group   5 Type H   : 5s1p contracted to 3s1p pattern {311/1}

Atom   0Fe   basis set group =>   1
Atom   1Fe   basis set group =>   1
Atom   2O    basis set group =>   2
Atom   3O    basis set group =>   2
Atom   4N    basis set group =>   3
Atom   5N    basis set group =>   3
Atom   6N    basis set group =>   3
Atom   7N    basis set group =>   3
Atom   8C    basis set group =>   4
Atom   9C    basis set group =>   4
Atom  10C    basis set group =>   4
Atom  11C    basis set group =>   4
Atom  12C    basis set group =>   4
Atom  13C    basis set group =>   4
Atom  14C    basis set group =>   4
Atom  15C    basis set group =>   4
Atom  16C    basis set group =>   4
Atom  17C    basis set group =>   4
Atom  18C    basis set group =>   4
Atom  19C    basis set group =>   4
Atom  20C    basis set group =>   4
Atom  21C    basis set group =>   4
Atom  22C    basis set group =>   4
Atom  23C    basis set group =>   4
Atom  24C    basis set group =>   4
Atom  25C    basis set group =>   4
Atom  26C    basis set group =>   4
Atom  27C    basis set group =>   4
Atom  28C    basis set group =>   4
Atom  29C    basis set group =>   4
Atom  30C    basis set group =>   4
Atom  31C    basis set group =>   4
Atom  32C    basis set group =>   4
Atom  33C    basis set group =>   4
Atom  34C    basis set group =>   4
Atom  35C    basis set group =>   4
Atom  36C    basis set group =>   4
Atom  37C    basis set group =>   4
Atom  38C    basis set group =>   4
Atom  39C    basis set group =>   4
Atom  40C    basis set group =>   4
Atom  41C    basis set group =>   4
Atom  42C    basis set group =>   4
Atom  43C    basis set group =>   4
Atom  44C    basis set group =>   4
Atom  45C    basis set group =>   4
Atom  46C    basis set group =>   4
Atom  47C    basis set group =>   4
Atom  48C    basis set group =>   4
Atom  49C    basis set group =>   4
Atom  50C    basis set group =>   4
Atom  51C    basis set group =>   4
Atom  52C    basis set group =>   4
Atom  53C    basis set group =>   4
Atom  54O    basis set group =>   2
Atom  55O    basis set group =>   2
Atom  56N    basis set group =>   3
Atom  57N    basis set group =>   3
Atom  58N    basis set group =>   3
Atom  59N    basis set group =>   3
Atom  60C    basis set group =>   4
Atom  61C    basis set group =>   4
Atom  62C    basis set group =>   4
Atom  63C    basis set group =>   4
Atom  64C    basis set group =>   4
Atom  65C    basis set group =>   4
Atom  66C    basis set group =>   4
Atom  67C    basis set group =>   4
Atom  68C    basis set group =>   4
Atom  69C    basis set group =>   4
Atom  70C    basis set group =>   4
Atom  71C    basis set group =>   4
Atom  72C    basis set group =>   4
Atom  73C    basis set group =>   4
Atom  74C    basis set group =>   4
Atom  75C    basis set group =>   4
Atom  76C    basis set group =>   4
Atom  77C    basis set group =>   4
Atom  78C    basis set group =>   4
Atom  79C    basis set group =>   4
Atom  80C    basis set group =>   4
Atom  81C    basis set group =>   4
Atom  82C    basis set group =>   4
Atom  83C    basis set group =>   4
Atom  84C    basis set group =>   4
Atom  85C    basis set group =>   4
Atom  86C    basis set group =>   4
Atom  87C    basis set group =>   4
Atom  88C    basis set group =>   4
Atom  89C    basis set group =>   4
Atom  90C    basis set group =>   4
Atom  91C    basis set group =>   4
Atom  92C    basis set group =>   4
Atom  93C    basis set group =>   4
Atom  94C    basis set group =>   4
Atom  95C    basis set group =>   4
Atom  96C    basis set group =>   4
Atom  97C    basis set group =>   4
Atom  98C    basis set group =>   4
Atom  99C    basis set group =>   4
Atom 100C    basis set group =>   4
Atom 101C    basis set group =>   4
Atom 102C    basis set group =>   4
Atom 103C    basis set group =>   4
Atom 104C    basis set group =>   4
Atom 105C    basis set group =>   4
Atom 106N    basis set group =>   3
Atom 107N    basis set group =>   3
Atom 108N    basis set group =>   3
Atom 109N    basis set group =>   3
Atom 110C    basis set group =>   4
Atom 111C    basis set group =>   4
Atom 112C    basis set group =>   4
Atom 113C    basis set group =>   4
Atom 114C    basis set group =>   4
Atom 115C    basis set group =>   4
Atom 116C    basis set group =>   4
Atom 117C    basis set group =>   4
Atom 118C    basis set group =>   4
Atom 119C    basis set group =>   4
Atom 120C    basis set group =>   4
Atom 121C    basis set group =>   4
Atom 122C    basis set group =>   4
Atom 123C    basis set group =>   4
Atom 124C    basis set group =>   4
Atom 125C    basis set group =>   4
Atom 126C    basis set group =>   4
Atom 127C    basis set group =>   4
Atom 128C    basis set group =>   4
Atom 129C    basis set group =>   4
Atom 130C    basis set group =>   4
Atom 131C    basis set group =>   4
Atom 132C    basis set group =>   4
Atom 133C    basis set group =>   4
Atom 134C    basis set group =>   4
Atom 135C    basis set group =>   4
Atom 136C    basis set group =>   4
Atom 137C    basis set group =>   4
Atom 138C    basis set group =>   4
Atom 139C    basis set group =>   4
Atom 140H    basis set group =>   5
Atom 141H    basis set group =>   5
Atom 142H    basis set group =>   5
Atom 143H    basis set group =>   5
Atom 144H    basis set group =>   5
Atom 145H    basis set group =>   5
Atom 146H    basis set group =>   5
Atom 147H    basis set group =>   5
Atom 148H    basis set group =>   5
Atom 149H    basis set group =>   5
Atom 150H    basis set group =>   5
Atom 151H    basis set group =>   5
Atom 152H    basis set group =>   5
Atom 153H    basis set group =>   5
Atom 154H    basis set group =>   5
Atom 155H    basis set group =>   5
Atom 156H    basis set group =>   5
Atom 157H    basis set group =>   5
Atom 158H    basis set group =>   5
Atom 159H    basis set group =>   5
Atom 160H    basis set group =>   5
Atom 161H    basis set group =>   5
Atom 162H    basis set group =>   5
Atom 163H    basis set group =>   5
Atom 164H    basis set group =>   5
Atom 165H    basis set group =>   5
Atom 166H    basis set group =>   5
Atom 167H    basis set group =>   5
Atom 168H    basis set group =>   5
Atom 169H    basis set group =>   5
Atom 170H    basis set group =>   5
Atom 171H    basis set group =>   5
Atom 172H    basis set group =>   5
Atom 173H    basis set group =>   5
Atom 174H    basis set group =>   5
Atom 175H    basis set group =>   5
Atom 176H    basis set group =>   5
Atom 177H    basis set group =>   5
Atom 178H    basis set group =>   5
Atom 179H    basis set group =>   5
Atom 180H    basis set group =>   5
Atom 181H    basis set group =>   5
Atom 182H    basis set group =>   5
Atom 183H    basis set group =>   5
Atom 184H    basis set group =>   5
Atom 185H    basis set group =>   5
Atom 186H    basis set group =>   5
Atom 187H    basis set group =>   5
Atom 188H    basis set group =>   5
Atom 189H    basis set group =>   5
Atom 190H    basis set group =>   5
Atom 191H    basis set group =>   5
Atom 192H    basis set group =>   5
Atom 193H    basis set group =>   5
Atom 194H    basis set group =>   5
Atom 195H    basis set group =>   5
Atom 196H    basis set group =>   5
Atom 197H    basis set group =>   5
Atom 198H    basis set group =>   5
Atom 199H    basis set group =>   5
Atom 200H    basis set group =>   5
Atom 201H    basis set group =>   5
Atom 202H    basis set group =>   5
Atom 203H    basis set group =>   5
Atom 204H    basis set group =>   5
Atom 205H    basis set group =>   5
Atom 206H    basis set group =>   5
Atom 207H    basis set group =>   5
Atom 208H    basis set group =>   5
Atom 209H    basis set group =>   5
Atom 210H    basis set group =>   5
Atom 211H    basis set group =>   5
Atom 212H    basis set group =>   5
Atom 213H    basis set group =>   5
Atom 214H    basis set group =>   5
Atom 215H    basis set group =>   5
Atom 216H    basis set group =>   5
Atom 217H    basis set group =>   5
Atom 218H    basis set group =>   5
Atom 219H    basis set group =>   5
Atom 220H    basis set group =>   5
Atom 221H    basis set group =>   5
Atom 222H    basis set group =>   5
Atom 223H    basis set group =>   5
Atom 224H    basis set group =>   5
Atom 225H    basis set group =>   5
Atom 226H    basis set group =>   5
Atom 227H    basis set group =>   5
Atom 228H    basis set group =>   5
Atom 229H    basis set group =>   5

-------------------------
BASIS SET IN INPUT FORMAT
-------------------------

 # Basis set for element : H 
 NewGTO H 
 S 3 
   1      34.0613410000      0.0254393072
   2       5.1235746000      0.1900859489
   3       1.1646626000      0.8524411301
 S 1 
   1       0.3272304100      1.0000000000
 S 1 
   1       0.1030724100      1.0000000000
 P 1 
   1       0.8000000000      1.0000000000
  end;

 # Basis set for element : C 
 NewGTO C 
 S 6 
   1   13575.3496820000      0.0006064549
   2    2035.2333680000      0.0046979088
   3     463.2256235900      0.0243324776
   4     131.2001959800      0.0973999683
   5      42.8530158910      0.3019558425
   6      15.5841857660      0.6623360915
 S 2 
   1       6.2067138508      0.6559530854
   2       2.5764896527      0.3758563329
 S 1 
   1       0.5769633942      1.0000000000
 S 1 
   1       0.2297283136      1.0000000000
 S 1 
   1       0.0951644400      1.0000000000
 P 4 
   1      34.6972322440      0.0113272200
   2       7.9582622826      0.0761696592
   3       2.3780826883      0.3019225220
   4       0.8143320818      0.7278502735
 P 1 
   1       0.2888754725      1.0000000000
 P 1 
   1       0.1005682367      1.0000000000
 D 1 
   1       1.0970000000      1.0000000000
 D 1 
   1       0.3180000000      1.0000000000
 F 1 
   1       0.7610000000      1.0000000000
  end;

 # Basis set for element : N 
 NewGTO N 
 S 6 
   1   19730.8006470000      0.0005862639
   2    2957.8958745000      0.0045428821
   3     673.2213359500      0.0235584136
   4     190.6824949400      0.0947091933
   5      62.2954418980      0.2971978492
   6      22.6541611820      0.6691624689
 S 2 
   1       8.9791477428      0.6459668363
   2       3.6863002370      0.3870057440
 S 1 
   1       0.8466007680      1.0000000000
 S 1 
   1       0.3364713377      1.0000000000
 S 1 
   1       0.1364765367      1.0000000000
 P 4 
   1      49.2003805100      0.0114488252
   2      11.3467905370      0.0784223379
   3       3.4273972411      0.3081809474
   4       1.1785525134      0.7202719637
 P 1 
   1       0.4164220497      1.0000000000
 P 1 
   1       0.1426082601      1.0000000000
 D 1 
   1       1.6540000000      1.0000000000
 D 1 
   1       0.4690000000      1.0000000000
 F 1 
   1       1.0930000000      1.0000000000
  end;

 # Basis set for element : O 
 NewGTO O 
 S 6 
   1   27032.3826310000      0.0005722733
   2    4052.3871392000      0.0044353233
   3     922.3272271000      0.0230201076
   4     261.2407098900      0.0928224906
   5      85.3546413510      0.2937850002
   6      31.0350352450      0.6740160450
 S 2 
   1      12.2608607280      0.6383993702
   2       4.9987076005      0.3953458713
 S 1 
   1       1.1703108158      1.0000000000
 S 1 
   1       0.4647474099      1.0000000000
 S 1 
   1       0.1850453636      1.0000000000
 P 4 
   1      63.2749548010      0.0120183321
   2      14.6270493790      0.0830054217
   3       4.4501223456      0.3199174393
   4       1.5275799647      0.7071554292
 P 1 
   1       0.5293511794      1.0000000000
 P 1 
   1       0.1747842127      1.0000000000
 D 1 
   1       2.3140000000      1.0000000000
 D 1 
   1       0.6450000000      1.0000000000
 F 1 
   1       1.4280000000      1.0000000000
  end;

 # Basis set for element : Fe
 NewGTO Fe
 S 8 
   1  300784.8463700000      0.0002410330
   2   45088.9705570000      0.0018687383
   3   10262.5163170000      0.0097155134
   4    2905.2897293000      0.0394799670
   5     946.1148713700      0.1284216284
   6     339.8783289400      0.3045786076
   7     131.9442558800      0.4346555378
   8      52.1114940770      0.2274238238
 S 4 
   1     329.4883926700     -0.0247166458
   2     101.9233273900     -0.1166959982
   3      16.2404627450      0.5522977944
   4       6.8840675801      0.5353975203
 S 2 
   1      10.4706937820     -0.3774586978
   2       1.7360039648      1.1722622910
 S 1 
   1       0.7257728898      1.0000000000
 S 1 
   1       0.1159552820      1.0000000000
 S 1 
   1       0.0419682277      1.0000000000
 P 6 
   1    1585.3959970000      0.0027395642
   2     375.3800649900      0.0221674966
   3     120.3181650100      0.1036484034
   4      44.7887490310      0.2970323067
   5      17.8292785840      0.4777337438
   6       7.2247153786      0.2787174988
 P 3 
   1      28.1432197560     -0.0202687424
   2       3.8743241412      0.3860338153
   3       1.5410752281      0.6753824729
 P 1 
   1       0.5828561525      1.0000000000
 D 4 
   1      61.9966750340      0.0194973341
   2      17.8737325520      0.1192286810
   3       6.2744782934      0.3762527479
   4       2.3552337175      0.6499784308
 D 1 
   1       0.8543223990      1.0000000000
 D 1 
   1       0.2786925441      1.0000000000
 P 1 
   1       0.1349150000      1.0000000000
 D 1 
   1       0.0910000000      1.0000000000
 F 1 
   1       1.5980000000      1.0000000000
  end;


Checking for AutoStart:
The File: _fe7dd.gbw exists
Trying to determine its content:
     ... Fine, the file contains calculation information
     ... Fine, the calculation information was read
     ... Fine, the file contains a basis set
     ... Fine, the basis set was read
     ... Fine, the file contains a geometry
     ... Fine, the geometry was read
     ... Fine, the file contains a set of orbitals
     ... Fine, the orbitals can be read
     => possible old guess file was deleted
     => GBW file was renamed to GES file
     => GES file is set as startup file
     => Guess is set to MORead
     ... now leaving AutoStart



           ************************************************************
           *        Program running with 128 parallel MPI-processes   *
           *              working on a common directory               *
           ************************************************************
------------------------------------------------------------------------------
                           ORCA GTO INTEGRAL CALCULATION
------------------------------------------------------------------------------

                         BASIS SET STATISTICS AND STARTUP INFO

 # of primitive gaussian shells          ... 3372
 # of primitive gaussian functions       ... 7252
 # of contracted shells                  ... 1908
 # of contracted basis functions         ... 4908
 Highest angular momentum                ...    3
 Maximum contraction depth               ...    8
 Integral package used                   ... LIBINT
 Integral threshhold            Thresh   ...  2.500e-11
 Primitive cut-off              TCut     ...  2.500e-12


------------------------------ INTEGRAL EVALUATION ----------------------------


 * One electron integrals 
 Pre-screening matrix                    ... done
 Shell pair data                         ... done (   0.296 sec)



           ************************************************************
[...]
115 C      6.2839     6.0000    -0.2839     4.0515     4.0515    -0.0000
116 C      6.2017     6.0000    -0.2017     3.8135     3.8135    -0.0000
117 C      5.6632     6.0000     0.3368     3.7188     3.7188    -0.0000
118 C      6.2019     6.0000    -0.2019     3.8636     3.8636    -0.0000
119 C      6.1891     6.0000    -0.1891     3.9394     3.9394    -0.0000
120 C      5.7992     6.0000     0.2008     3.5903     3.5903    -0.0000
121 C      6.2145     6.0000    -0.2145     3.9976     3.9976    -0.0000
122 C      6.2166     6.0000    -0.2166     3.9981     3.9981    -0.0000
123 C      5.7972     6.0000     0.2028     3.5843     3.5843    -0.0000
124 C      6.1918     6.0000    -0.1918     3.9403     3.9403    -0.0000
125 C      6.2001     6.0000    -0.2001     3.8631     3.8631    -0.0000
126 C      5.6650     6.0000     0.3350     3.7202     3.7202    -0.0000
127 C      6.2042     6.0000    -0.2042     3.8196     3.8196    -0.0000
128 C      5.6937     6.0000     0.3063     3.6043     3.6043    -0.0000
129 C      6.2883     6.0000    -0.2883     4.0529     4.0529    -0.0000
130 C      6.1081     6.0000    -0.1081     3.9472     3.9472    -0.0000
131 C      6.1105     6.0000    -0.1105     3.9521     3.9521    -0.0000
132 C      6.1371     6.0000    -0.1371     3.9785     3.9785    -0.0000
133 C      6.2403     6.0000    -0.2403     4.1075     4.1075    -0.0000
134 C      5.8614     6.0000     0.1386     3.6837     3.6837    -0.0000
135 C      6.2023     6.0000    -0.2023     3.9857     3.9857    -0.0000
136 C      6.2141     6.0000    -0.2141     4.0004     4.0004    -0.0000
137 C      5.8614     6.0000     0.1386     3.6870     3.6870    -0.0000
138 C      6.2052     6.0000    -0.2052     3.9837     3.9837    -0.0000
139 C      6.2138     6.0000    -0.2138     3.9964     3.9964    -0.0000
140 H      0.8573     1.0000     0.1427     0.9673     0.9673    -0.0000
141 H      0.8435     1.0000     0.1565     0.9639     0.9639    -0.0000
142 H      0.8310     1.0000     0.1690     0.9609     0.9609    -0.0000
143 H      0.8367     1.0000     0.1633     0.9626     0.9626    -0.0000
144 H      0.8911     1.0000     0.1089     1.0092     1.0092    -0.0000
145 H      0.8130     1.0000     0.1870     0.9556     0.9556    -0.0000
146 H      0.8306     1.0000     0.1694     0.9619     0.9619    -0.0000
147 H      0.8317     1.0000     0.1683     0.9728     0.9728    -0.0000
148 H      0.7948     1.0000     0.2052     0.9398     0.9398    -0.0000
149 H      0.8521     1.0000     0.1479     0.9659     0.9659    -0.0000
150 H      0.8575     1.0000     0.1425     0.9677     0.9677    -0.0000
151 H      0.8385     1.0000     0.1615     0.9619     0.9619    -0.0000
152 H      0.8473     1.0000     0.1527     0.9659     0.9659    -0.0000
153 H      0.8608     1.0000     0.1392     0.9717     0.9717    -0.0000
154 H      0.8792     1.0000     0.1208     0.9653     0.9653    -0.0000
155 H      0.8288     1.0000     0.1712     0.9557     0.9557    -0.0000
156 H      0.8436     1.0000     0.1564     0.9717     0.9717    -0.0000
157 H      0.8591     1.0000     0.1409     0.9769     0.9769    -0.0000
158 H      0.8511     1.0000     0.1489     0.9646     0.9646    -0.0000
159 H      0.8478     1.0000     0.1522     0.9638     0.9638    -0.0000
160 H      0.8741     1.0000     0.1259     0.9701     0.9701    -0.0000
161 H      0.8702     1.0000     0.1298     0.9682     0.9682    -0.0000
162 H      0.8838     1.0000     0.1162     0.9660     0.9660    -0.0000
163 H      0.8401     1.0000     0.1599     0.9522     0.9522    -0.0000
164 H      0.8567     1.0000     0.1433     0.9567     0.9567    -0.0000
165 H      0.8112     1.0000     0.1888     0.9481     0.9481    -0.0000
166 H      0.8120     1.0000     0.1880     0.9554     0.9554    -0.0000
167 H      0.8271     1.0000     0.1729     0.9624     0.9624    -0.0000
168 H      0.8131     1.0000     0.1869     0.9579     0.9579    -0.0000
169 H      0.8537     1.0000     0.1463     0.9668     0.9668    -0.0000
170 H      0.8421     1.0000     0.1579     0.9637     0.9637    -0.0000
171 H      0.8319     1.0000     0.1681     0.9611     0.9611    -0.0000
172 H      0.8379     1.0000     0.1621     0.9626     0.9626    -0.0000
173 H      0.8803     1.0000     0.1197     1.0021     1.0021    -0.0000
174 H      0.8847     1.0000     0.1153     1.0046     1.0046    -0.0000
175 H      0.8380     1.0000     0.1620     0.9627     0.9627    -0.0000
176 H      0.8318     1.0000     0.1682     0.9611     0.9611    -0.0000
177 H      0.8420     1.0000     0.1580     0.9636     0.9636    -0.0000
178 H      0.8540     1.0000     0.1460     0.9669     0.9669    -0.0000
179 H      0.8137     1.0000     0.1863     0.9583     0.9583    -0.0000
180 H      0.8272     1.0000     0.1728     0.9624     0.9624    -0.0000
181 H      0.8121     1.0000     0.1879     0.9554     0.9554    -0.0000
182 H      0.8115     1.0000     0.1885     0.9484     0.9484    -0.0000
183 H      0.8707     1.0000     0.1293     0.9682     0.9682    -0.0000
184 H      0.8740     1.0000     0.1260     0.9699     0.9699    -0.0000
185 H      0.8477     1.0000     0.1523     0.9638     0.9638    -0.0000
186 H      0.8513     1.0000     0.1487     0.9648     0.9648    -0.0000
187 H      0.8595     1.0000     0.1405     0.9770     0.9770    -0.0000
188 H      0.8397     1.0000     0.1603     0.9521     0.9521    -0.0000
189 H      0.8837     1.0000     0.1163     0.9652     0.9652    -0.0000
190 H      0.8552     1.0000     0.1448     0.9560     0.9560    -0.0000
191 H      0.8613     1.0000     0.1387     0.9721     0.9721    -0.0000
192 H      0.8474     1.0000     0.1526     0.9659     0.9659    -0.0000
193 H      0.8384     1.0000     0.1616     0.9619     0.9619    -0.0000
194 H      0.8575     1.0000     0.1425     0.9678     0.9678    -0.0000
195 H      0.8519     1.0000     0.1481     0.9657     0.9657    -0.0000
196 H      0.8433     1.0000     0.1567     0.9713     0.9713    -0.0000
197 H      0.8305     1.0000     0.1695     0.9564     0.9564    -0.0000
198 H      0.8789     1.0000     0.1211     0.9663     0.9663    -0.0000
199 H      0.7937     1.0000     0.2063     0.9379     0.9379    -0.0000
200 H      0.8315     1.0000     0.1685     0.9733     0.9733    -0.0000
201 H      0.8310     1.0000     0.1690     0.9620     0.9620    -0.0000
202 H      0.8124     1.0000     0.1876     0.9552     0.9552    -0.0000
203 H      0.8917     1.0000     0.1083     1.0102     1.0102    -0.0000
204 H      0.8369     1.0000     0.1631     0.9626     0.9626    -0.0000
205 H      0.8312     1.0000     0.1688     0.9609     0.9609    -0.0000
206 H      0.8436     1.0000     0.1564     0.9639     0.9639    -0.0000
207 H      0.8575     1.0000     0.1425     0.9673     0.9673    -0.0000
208 H      0.8770     1.0000     0.1230     1.0031     1.0031    -0.0000
209 H      0.8357     1.0000     0.1643     0.9625     0.9625    -0.0000
210 H      0.8297     1.0000     0.1703     0.9606     0.9606    -0.0000
211 H      0.8422     1.0000     0.1578     0.9640     0.9640    -0.0000
212 H      0.8485     1.0000     0.1515     0.9640     0.9640    -0.0000
213 H      0.8119     1.0000     0.1881     0.9563     0.9563    -0.0000
214 H      0.8241     1.0000     0.1759     0.9596     0.9596    -0.0000
215 H      0.8163     1.0000     0.1837     0.9568     0.9568    -0.0000
216 H      0.7904     1.0000     0.2096     0.9316     0.9316    -0.0000
217 H      0.7889     1.0000     0.2111     0.9302     0.9302    -0.0000
218 H      0.8160     1.0000     0.1840     0.9567     0.9567    -0.0000
219 H      0.8240     1.0000     0.1760     0.9595     0.9595    -0.0000
220 H      0.8111     1.0000     0.1889     0.9555     0.9555    -0.0000
221 H      0.8478     1.0000     0.1522     0.9637     0.9637    -0.0000
222 H      0.8420     1.0000     0.1580     0.9640     0.9640    -0.0000
223 H      0.8296     1.0000     0.1704     0.9605     0.9605    -0.0000
224 H      0.8357     1.0000     0.1643     0.9626     0.9626    -0.0000
225 H      0.8732     1.0000     0.1268     1.0002     1.0002    -0.0000
226 H      0.8569     1.0000     0.1431     0.9730     0.9730    -0.0000
227 H      0.8504     1.0000     0.1496     0.9612     0.9612    -0.0000
228 H      0.8555     1.0000     0.1445     0.9722     0.9722    -0.0000
229 H      0.8510     1.0000     0.1490     0.9617     0.9617    -0.0000

  Mayer bond orders larger than 0.100000
B(  0-Fe,  4-N ) :   0.6765 B(  0-Fe,  5-N ) :   0.7149 B(  0-Fe, 56-N ) :   0.6859 
B(  0-Fe, 57-N ) :   0.6746 B(  0-Fe,106-N ) :   0.6678 B(  0-Fe,107-N ) :   0.6831 
B(  1-Fe,  6-N ) :   0.6738 B(  1-Fe,  7-N ) :   0.6858 B(  1-Fe, 58-N ) :   0.7165 
B(  1-Fe, 59-N ) :   0.6757 B(  1-Fe,108-N ) :   0.6806 B(  1-Fe,109-N ) :   0.6676 
B(  2-O , 29-C ) :   0.9522 B(  2-O , 30-C ) :   0.9068 B(  3-O , 40-C ) :   1.1535 
B(  3-O , 41-C ) :   0.9320 B(  4-N ,  8-C ) :   0.8569 B(  4-N , 14-C ) :   1.5893 
B(  5-N , 15-C ) :   1.1690 B(  5-N , 19-C ) :   1.3422 B(  6-N , 42-C ) :   1.3832 
B(  6-N , 46-C ) :   1.1304 B(  7-N , 47-C ) :   1.5923 B(  7-N , 48-C ) :   0.8497 
B(  8-C ,  9-C ) :   1.3301 B(  8-C , 13-C ) :   1.3774 B(  9-C , 10-C ) :   1.4411 
B(  9-C ,140-H ) :   0.9722 B( 10-C , 11-C ) :   1.4040 B( 10-C ,141-H ) :   0.9541 
B( 11-C , 12-C ) :   1.3905 B( 11-C ,142-H ) :   0.9519 B( 12-C , 13-C ) :   1.4769 
B( 12-C ,143-H ) :   0.9561 B( 13-C ,144-H ) :   0.9460 B( 14-C , 15-C ) :   0.9966 
B( 14-C ,145-H ) :   0.9680 B( 15-C , 16-C ) :   1.2839 B( 16-C , 17-C ) :   1.3904 
B( 16-C ,146-H ) :   0.9861 B( 17-C , 18-C ) :   1.3013 B( 17-C ,147-H ) :   0.9542 
B( 18-C , 19-C ) :   1.3062 B( 18-C , 72-C ) :   0.8403 B( 19-C ,148-H ) :   0.9210 
B( 20-C , 21-C ) :   1.3873 B( 20-C , 28-C ) :   0.1118 B( 20-C , 29-C ) :   1.2482 
B( 20-C , 70-C ) :   0.8359 B( 21-C , 22-C ) :   1.2334 B( 21-C ,149-H ) :   0.9806 
B( 22-C , 23-C ) :   1.2106 B( 22-C , 27-C ) :   1.2646 B( 23-C , 24-C ) :   1.5355 
B( 23-C ,150-H ) :   0.9816 B( 24-C , 25-C ) :   1.2744 B( 24-C ,151-H ) :   0.9527 
B( 25-C , 26-C ) :   1.5377 B( 25-C ,152-H ) :   0.9583 B( 26-C , 27-C ) :   1.3050 
B( 26-C ,153-H ) :   0.9614 B( 27-C , 28-C ) :   1.0865 B( 28-C , 29-C ) :   1.3826 
B( 28-C , 31-C ) :   0.4954 B( 30-C ,154-H ) :   0.9557 B( 30-C ,155-H ) :   0.9543 
B( 30-C ,156-H ) :   0.9652 B( 31-C , 32-C ) :   1.0258 B( 31-C , 33-C ) :  -0.1230 
B( 31-C , 40-C ) :   1.3231 B( 32-C , 33-C ) :   1.2930 B( 32-C , 37-C ) :   1.2826 
B( 33-C , 34-C ) :   1.5293 B( 33-C ,157-H ) :   0.9597 B( 34-C , 35-C ) :   1.2718 
B( 34-C ,158-H ) :   0.9617 B( 35-C , 36-C ) :   1.5248 B( 35-C ,159-H ) :   0.9606 
B( 36-C , 37-C ) :   1.2002 B( 36-C ,160-H ) :   0.9925 B( 37-C , 38-C ) :   1.1432 
B( 38-C , 39-C ) :   1.3994 B( 38-C ,161-H ) :   1.0162 B( 39-C , 40-C ) :   1.2072 
B( 39-C , 95-C ) :   0.8436 B( 41-C ,162-H ) :   0.9648 B( 41-C ,163-H ) :   0.9539 
B( 41-C ,164-H ) :   0.9618 B( 42-C , 43-C ) :   1.2550 B( 42-C ,165-H ) :   0.9298 
B( 43-C , 44-C ) :   1.3702 B( 43-C , 91-C ) :   0.8351 B( 44-C , 45-C ) :   1.3901 
B( 44-C ,166-H ) :   0.9465 B( 45-C , 46-C ) :   1.3066 B( 45-C ,167-H ) :   0.9801 
B( 46-C , 47-C ) :   0.9821 B( 47-C ,168-H ) :   0.9706 B( 48-C , 49-C ) :   1.3329 
B( 48-C , 53-C ) :   1.3798 B( 49-C , 50-C ) :   1.4387 B( 49-C ,169-H ) :   0.9703 
B( 50-C , 51-C ) :   1.4034 B( 50-C ,170-H ) :   0.9534 B( 51-C , 52-C ) :   1.3911 
B( 51-C ,171-H ) :   0.9520 B( 52-C , 53-C ) :   1.4729 B( 52-C ,172-H ) :   0.9571 
B( 53-C ,173-H ) :   0.9454 B( 54-O , 81-C ) :   1.1549 B( 54-O , 82-C ) :   0.9318 
B( 55-O , 92-C ) :   0.9528 B( 55-O , 93-C ) :   0.9063 B( 56-N , 60-C ) :   0.8470 
B( 56-N , 66-C ) :   1.5933 B( 57-N , 67-C ) :   1.1318 B( 57-N , 71-C ) :   1.3831 
B( 58-N , 94-C ) :   1.3431 B( 58-N , 98-C ) :   1.1684 B( 59-N , 99-C ) :   1.5892 
B( 59-N ,100-C ) :   0.8565 B( 60-C , 61-C ) :   1.3796 B( 60-C , 65-C ) :   1.3361 
B( 61-C , 62-C ) :   1.4741 B( 61-C ,174-H ) :   0.9469 B( 62-C , 63-C ) :   1.3908 
B( 62-C ,175-H ) :   0.9569 B( 63-C , 64-C ) :   1.4035 B( 63-C ,176-H ) :   0.9520 
B( 64-C , 65-C ) :   1.4366 B( 64-C ,177-H ) :   0.9534 B( 65-C ,178-H ) :   0.9710 
B( 66-C , 67-C ) :   0.9821 B( 66-C ,179-H ) :   0.9712 B( 67-C , 68-C ) :   1.3071 
B( 68-C , 69-C ) :   1.3887 B( 68-C ,180-H ) :   0.9803 B( 69-C , 70-C ) :   1.3722 
B( 69-C ,181-H ) :   0.9467 B( 70-C , 71-C ) :   1.2524 B( 71-C ,182-H ) :   0.9306 
B( 72-C , 73-C ) :   1.4018 B( 72-C , 81-C ) :   1.2047 B( 73-C , 74-C ) :   1.1434 
B( 73-C ,183-H ) :   1.0172 B( 74-C , 75-C ) :   1.2025 B( 74-C , 79-C ) :   1.2805 
B( 75-C , 76-C ) :   1.5241 B( 75-C ,184-H ) :   0.9930 B( 76-C , 77-C ) :   1.2715 
B( 76-C ,185-H ) :   0.9605 B( 77-C , 78-C ) :   1.5304 B( 77-C ,186-H ) :   0.9620 
B( 78-C , 79-C ) :   1.2964 B( 78-C , 80-C ) :  -0.1227 B( 78-C ,187-H ) :   0.9577 
B( 79-C , 80-C ) :   1.0248 B( 80-C , 81-C ) :   1.3200 B( 80-C , 83-C ) :   0.4957 
B( 82-C ,188-H ) :   0.9531 B( 82-C ,189-H ) :   0.9647 B( 82-C ,190-H ) :   0.9617 
B( 83-C , 84-C ) :   1.0823 B( 83-C , 91-C ) :   0.1125 B( 83-C , 92-C ) :   1.3831 
B( 84-C , 85-C ) :   1.3054 B( 84-C , 89-C ) :   1.2643 B( 85-C , 86-C ) :   1.5377 
B( 85-C ,191-H ) :   0.9615 B( 86-C , 87-C ) :   1.2746 B( 86-C ,192-H ) :   0.9583 
B( 87-C , 88-C ) :   1.5357 B( 87-C ,193-H ) :   0.9527 B( 88-C , 89-C ) :   1.2100 
B( 88-C ,194-H ) :   0.9815 B( 89-C , 90-C ) :   1.2352 B( 90-C , 91-C ) :   1.3890 
B( 90-C ,195-H ) :   0.9795 B( 91-C , 92-C ) :   1.2467 B( 93-C ,196-H ) :   0.9652 
B( 93-C ,197-H ) :   0.9550 B( 93-C ,198-H ) :   0.9563 B( 94-C , 95-C ) :   1.3036 
B( 94-C ,199-H ) :   0.9210 B( 95-C , 96-C ) :   1.3020 B( 96-C , 97-C ) :   1.3895 
B( 96-C ,200-H ) :   0.9540 B( 97-C , 98-C ) :   1.2831 B( 97-C ,201-H ) :   0.9864 
B( 98-C , 99-C ) :   0.9980 B( 99-C ,202-H ) :   0.9668 B(100-C ,101-C ) :   1.3777 
B(100-C ,105-C ) :   1.3304 B(101-C ,102-C ) :   1.4766 B(101-C ,203-H ) :   0.9470 
B(102-C ,103-C ) :   1.3910 B(102-C ,204-H ) :   0.9559 B(103-C ,104-C ) :   1.4041 
B(103-C ,205-H ) :   0.9518 B(104-C ,105-C ) :   1.4412 B(104-C ,206-H ) :   0.9539 
B(105-C ,207-H ) :   0.9722 B(106-N ,110-C ) :   0.8583 B(106-N ,116-C ) :   1.5917 
B(107-N ,117-C ) :   1.1812 B(107-N ,121-C ) :   1.3542 B(108-N ,122-C ) :   1.3548 
B(108-N ,126-C ) :   1.1825 B(109-N ,127-C ) :   1.5932 B(109-N ,128-C ) :   0.8591 
B(110-C ,111-C ) :   1.3757 B(110-C ,115-C ) :   1.3237 B(111-C ,112-C ) :   1.4757 
B(111-C ,208-H ) :   0.9375 B(112-C ,113-C ) :   1.3926 B(112-C ,209-H ) :   0.9561 
B(113-C ,114-C ) :   1.4037 B(113-C ,210-H ) :   0.9515 B(114-C ,115-C ) :   1.4401 
B(114-C ,211-H ) :   0.9540 B(115-C ,212-H ) :   0.9684 B(116-C ,117-C ) :   0.9928 
B(116-C ,213-H ) :   0.9695 B(117-C ,118-C ) :   1.3019 B(118-C ,119-C ) :   1.3970 
B(118-C ,214-H ) :   0.9741 B(119-C ,120-C ) :   1.3302 B(119-C ,215-H ) :   0.9468 
B(120-C ,121-C ) :   1.3187 B(120-C ,137-C ) :   0.8821 B(121-C ,216-H ) :   0.9183 
B(122-C ,123-C ) :   1.3176 B(122-C ,217-H ) :   0.9180 B(123-C ,124-C ) :   1.3311 
B(123-C ,134-C ) :   0.8766 B(124-C ,125-C ) :   1.3966 B(124-C ,218-H ) :   0.9469 
B(125-C ,126-C ) :   1.3022 B(125-C ,219-H ) :   0.9735 B(126-C ,127-C ) :   0.9946 
B(127-C ,220-H ) :   0.9684 B(128-C ,129-C ) :   1.3227 B(128-C ,133-C ) :   1.3770 
B(129-C ,130-C ) :   1.4415 B(129-C ,221-H ) :   0.9683 B(130-C ,131-C ) :   1.4041 
B(130-C ,222-H ) :   0.9535 B(131-C ,132-C ) :   1.3932 B(131-C ,223-H ) :   0.9513 
B(132-C ,133-C ) :   1.4757 B(132-C ,224-H ) :   0.9558 B(133-C ,225-H ) :   0.9358 
B(134-C ,135-C ) :   1.3637 B(134-C ,139-C ) :   1.3432 B(135-C ,136-C ) :   1.4637 
B(135-C ,226-H ) :   0.9441 B(136-C ,137-C ) :   1.3433 B(136-C ,227-H ) :   0.9509 
B(137-C ,138-C ) :   1.3636 B(138-C ,139-C ) :   1.4620 B(138-C ,228-H ) :   0.9450 
B(139-C ,229-H ) :   0.9526 

-------
TIMINGS
-------

Total SCF time: 0 days 10 hours 10 min 12 sec 

Total time                  ....   36612.477 sec
Sum of individual times     ....   36558.025 sec  ( 99.9%)

Fock matrix formation       ....   34037.675 sec  ( 93.0%)
  XC integration            ....     239.418 sec  (  0.7% of F)
    Basis function eval.    ....      27.614 sec  ( 11.5% of XC)
    Density eval.           ....     121.074 sec  ( 50.6% of XC)
    XC-Functional eval.     ....       1.594 sec  (  0.7% of XC)
    XC-Potential eval.      ....      27.050 sec  ( 11.3% of XC)
Diagonalization             ....     258.004 sec  (  0.7%)
Density matrix formation    ....      20.372 sec  (  0.1%)
Population analysis         ....      95.558 sec  (  0.3%)
Initial guess               ....     102.411 sec  (  0.3%)
Orbital Transformation      ....       0.000 sec  (  0.0%)
Orbital Orthonormalization  ....     100.846 sec  (  0.3%)
DIIS solution               ....    2004.427 sec  (  5.5%)
Grid generation             ....      39.578 sec  (  0.1%)


-------------------------------------------------------------------------------
                          DFT DISPERSION CORRECTION                            
                                                                               
                                 DFTD4 V2.0                                    
-------------------------------------------------------------------------------
The PBE0 functional is recognized
Active option DFTDOPT                   ...         5   

-------------------------   ----------------
Dispersion correction           -0.443250855
-------------------------   ----------------


-------------------------   --------------------
FINAL SINGLE POINT ENERGY     -8183.019977427179
-------------------------   --------------------


                            ***************************************
                            *     ORCA property calculations      *
                            ***************************************

                                    ---------------------
                                    Active property flags
                                    ---------------------
   (+) Dipole Moment


------------------------------------------------------------------------------
                       ORCA ELECTRIC PROPERTIES CALCULATION
------------------------------------------------------------------------------

Dipole Moment Calculation                       ... on
Quadrupole Moment Calculation                   ... off
Polarizability Calculation                      ... off
GBWName                                         ... _fe7dd.gbw
Electron density file                           ... _fe7dd.scfp
The origin for moment calculation is the CENTER OF MASS  = (20.114829, 17.180882 22.155245)

-------------
DIPOLE MOMENT
-------------
                                X             Y             Z
Electronic contribution:    -16.51918       7.30141       0.65438
Nuclear contribution   :     13.57327      -5.97360      -0.54530
                        -----------------------------------------
Total Dipole Moment    :     -2.94590       1.32782       0.10908
                        -----------------------------------------
Magnitude (a.u.)       :      3.23316
Magnitude (Debye)      :      8.21805



--------------------
Rotational spectrum 
--------------------
 
Rotational constants in cm-1:     0.000508     0.000222     0.000216 
Rotational constants in MHz :    15.236179     6.665299     6.488282 

 Dipole components along the rotational axes: 
x,y,z [a.u.] :    -0.007728     0.011128    -3.233134 
x,y,z [Debye]:    -0.019643     0.028286    -8.217973 

 

Timings for individual modules:

Sum of individual times         ...    36663.933 sec (= 611.066 min)
GTO integral calculation        ...       41.113 sec (=   0.685 min)   0.1 %
SCF iterations                  ...    36622.820 sec (= 610.380 min)  99.9 %
                             ****ORCA TERMINATED NORMALLY****
TOTAL RUN TIME: 0 days 10 hours 12 minutes 1 seconds 710 msec
