Job execution start: Fri Apr 16 04:02:16 BST 2021
Shared library path: /work/e05/e05/atarzia/orca_4_2_1_linux_x86-64_openmpi314:/work/e05/e05/atarzia/openmpi-3.1.4/lib:/opt/cray/pe/papi/6.0.0.4/lib64:/opt/cray/libfabric/1.11.0.0.233/lib64
Slurm Job ID is: 204314
Slurm Job name is: zn1ld
nid001728

                                 *****************
                                 * O   R   C   A *
                                 *****************

           --- An Ab Initio, DFT and Semiempirical electronic structure package ---

                  #######################################################
                  #                        -***-                        #
                  #          Department of theory and spectroscopy      #
                  #               Directorship: Frank Neese             #
                  #        Max Planck Institute fuer Kohlenforschung    #
                  #                Kaiser Wilhelm Platz 1               #
                  #                 D-45470 Muelheim/Ruhr               #
                  #                      Germany                        #
                  #                                                     #
                  #                  All rights reserved                #
                  #                        -***-                        #
                  #######################################################


                         Program Version 4.2.1 -  RELEASE  -


 With contributions from (in alphabetic order):
   Daniel Aravena         : Magnetic Suceptibility
   Michael Atanasov       : Ab Initio Ligand Field Theory (pilot matlab implementation)
   Alexander A. Auer      : GIAO ZORA, VPT2
   Ute Becker             : Parallelization
   Giovanni Bistoni       : ED, misc. LED, open-shell LED, HFLD
   Martin Brehm           : Molecular dynamics
   Dmytro Bykov           : SCF Hessian
   Vijay G. Chilkuri      : MRCI spin determinant printing, contributions to CSF-ICE
   Dipayan Datta          : RHF DLPNO-CCSD density
   Achintya Kumar Dutta   : EOM-CC, STEOM-CC
   Dmitry Ganyushin       : Spin-Orbit,Spin-Spin,Magnetic field MRCI
   Miquel Garcia          : C-PCM Hessian, Gaussian charge scheme
   Yang Guo               : DLPNO-NEVPT2, CIM, IAO-localization
   Andreas Hansen         : Spin unrestricted coupled pair/coupled cluster methods
   Benjamin Helmich-Paris : CASSCF linear response (MC-RPA)
   Lee Huntington         : MR-EOM, pCC
   Robert Izsak           : Overlap fitted RIJCOSX, COSX-SCS-MP3, EOM
   Christian Kollmar      : KDIIS, OOCD, Brueckner-CCSD(T), CCSD density
   Simone Kossmann        : Meta GGA functionals, TD-DFT gradient, OOMP2, MP2 Hessian
   Martin Krupicka        : AUTO-CI
   Lucas Lang             : DCDCAS
   Dagmar Lenk            : GEPOL surface, SMD
   Dimitrios Liakos       : Extrapolation schemes; Compound Job, initial MDCI parallelization
   Dimitrios Manganas     : Further ROCIS development; embedding schemes
   Dimitrios Pantazis     : SARC Basis sets
   Taras Petrenko         : DFT Hessian,TD-DFT gradient, ASA, ECA, R-Raman, ABS, FL, XAS/XES, NRVS
   Peter Pinski           : DLPNO-MP2, DLPNO-MP2 Gradient
   Christoph Reimann      : Effective Core Potentials
   Marius Retegan         : Local ZFS, SOC
   Christoph Riplinger    : Optimizer, TS searches, QM/MM, DLPNO-CCSD(T), (RO)-DLPNO pert. Triples
   Tobias Risthaus        : Range-separated hybrids, TD-DFT gradient, RPA, STAB
   Michael Roemelt        : Original ROCIS implementation
   Masaaki Saitow         : Open-shell DLPNO-CCSD energy and density
   Barbara Sandhoefer     : DKH picture change effects
   Avijit Sen             : IP-ROCIS
   Kantharuban Sivalingam : CASSCF convergence, NEVPT2, FIC-MRCI
   Bernardo de Souza      : ESD, SOC TD-DFT
   Georgi Stoychev        : AutoAux, RI-MP2 NMR
   Willem Van den Heuvel  : Paramagnetic NMR
   Boris Wezisla          : Elementary symmetry handling
   Frank Wennmohs         : Technical directorship


 We gratefully acknowledge several colleagues who have allowed us to
 interface, adapt or use parts of their codes:
   Stefan Grimme, W. Hujo, H. Kruse,             : VdW corrections, initial TS optimization,
                  C. Bannwarth                     DFT functionals, gCP, sTDA/sTD-DF
   Ed Valeev, F. Pavosevic, A. Kumar             : LibInt (2-el integral package), F12 methods
   Garnet Chan, S. Sharma, J. Yang, R. Olivares  : DMRG
   Ulf Ekstrom                                   : XCFun DFT Library
   Mihaly Kallay                                 : mrcc  (arbitrary order and MRCC methods)
   Andreas Klamt, Michael Diedenhofen            : otool_cosmo (COSMO solvation model)
   Jiri Pittner, Ondrej Demel                    : Mk-CCSD
   Frank Weinhold                                : gennbo (NPA and NBO analysis)
   Christopher J. Cramer and Donald G. Truhlar   : smd solvation model
   Lars Goerigk                                  : TD-DFT with DH, B97 family of functionals
   V. Asgeirsson, H. Jonsson                     : NEB implementation
   FAccTs GmbH                                   : IRC, NEB, NEB-TS, Multilevel, MM, QM/MM, CI optimization
   S Lehtola, MJT Oliveira, MAL Marques          : LibXC Library


 Your calculation uses the libint2 library for the computation of 2-el integrals
 For citations please refer to: http://libint.valeyev.net

 Your ORCA version has been built with support for libXC version: 4.2.3
 For citations please refer to: https://tddft.org/programs/libxc/

 This ORCA versions uses:
   CBLAS   interface :  Fast vector & matrix operations
   LAPACKE interface :  Fast linear algebra routines
   SCALAPACK package :  Parallel linear algebra routines




***************************************
The coordinates will be read from file: zn1ld_xtb_dft.xyz
***************************************


Your calculation utilizes the atom-pairwise dispersion correction
based on tight binding partial charges (D4)
Cite in your paper:
E.Caldeweyher, C.Bannwarth, S.Grimme, J.Chem.Phys., (2017), 147, 034112.
E.Caldeweyher, S.Ehlert, A.Hansen, H.Neugebauer, S.Grimme, J.Chem.Phys., (2018), in progress.
   

----- Orbital basis set information -----
Your calculation utilizes the basis: def2-TZVP
   F. Weigend and R. Ahlrichs, Phys. Chem. Chem. Phys. 7, 3297 (2005).

================================================================================
                                        WARNINGS
                       Please study these warnings very carefully!
================================================================================


INFO   : the flag for use of LIBINT has been found!

================================================================================
                                       INPUT FILE
================================================================================
NAME = zn1ld.in
|  1> # closed shell KS, PBE0/def2-TZVP/D4
|  2> ! DFT SP RKS PBE0 def2-TZVP D4 Grid6 NOFINALGRID SlowConv TightSCF printbasis
|  3> 
|  4> %base "_zn1ld" 
|  5> %maxcore 4000
|  6> %scf
|  7>    MaxIter 2000
|  8> end
|  9> 
| 10> %pal
| 11>    nprocs 128
| 12> end
| 13> 
| 14> * xyzfile 4 1 zn1ld_xtb_dft.xyz
| 15> 
| 16>                          ****END OF INPUT****
================================================================================

                       ****************************
                       * Single Point Calculation *
                       ****************************

---------------------------------
CARTESIAN COORDINATES (ANGSTROEM)
---------------------------------
  Zn     6.953200    0.127100   -0.094300
  N      5.745800    1.821100   -0.665400
  C      4.614000    2.208500   -0.101900
  H      4.204900    1.559300    0.673600
  C      3.958500    3.407500   -0.444100
  C      4.558600    4.180300   -1.447500
  H      4.101900    5.121300   -1.760700
  C      5.739100    3.761200   -2.050100
  H      6.212300    4.356700   -2.833800
  C      6.315700    2.565900   -1.628600
  C      7.583600    2.071200   -2.168500
  N      8.068600    0.970700   -1.737400
  C      9.334100    0.523600   -2.170300
  C      9.461400   -0.776700   -2.671100
  H      8.573400   -1.401500   -2.778800
  C     10.710400   -1.241400   -3.066100
  H     10.809400   -2.246900   -3.480400
  C     11.837700   -0.427500   -2.937900
  H     12.818500   -0.801600   -3.238600
  C     11.709000    0.863500   -2.428300
  H     12.589100    1.501700   -2.323500
  C     10.459100    1.348100   -2.048700
  H     10.358800    2.344400   -1.612800
  H      8.095600    2.667500   -2.938500
  C      2.779000    3.877400    0.298800
  C      2.657000    5.226700    0.575300
  H      3.411100    5.923500    0.202100
  C      1.638900    5.743900    1.401300
  C      1.562300    7.128200    1.703000
  H      2.282800    7.810500    1.245300
  C      0.608600    7.602300    2.570800
  H      0.555900    8.667500    2.804300
  C     -0.291100    6.701400    3.182200
  H     -1.023500    7.079500    3.899300
  C     -0.244900    5.353400    2.902700
  H     -0.930200    4.669900    3.407000
  C      0.708500    4.835900    1.990500
  C      0.776300    3.445200    1.645100
  C      1.786800    2.985900    0.813000
  O      1.874800    1.687200    0.445600
  H      1.317100    1.138400    1.019000
  C     -0.253300    2.511500    2.165800
  C     -1.571300    2.703500    1.772600
  C     -2.631100    1.918500    2.317300
  C     -2.319800    0.891400    3.184100
  H     -3.119700    0.279500    3.608300
  C     -0.991000    0.644200    3.599300
  C     -0.687300   -0.373000    4.540500
  H     -1.503500   -0.987200    4.928900
  C      0.600300   -0.564300    4.982900
  H      0.821400   -1.340200    5.719000
  C      1.630400    0.283500    4.518700
  H      2.641200    0.170400    4.913900
  C      1.369900    1.282500    3.609700
  H      2.168700    1.958000    3.296000
  C      0.056700    1.483100    3.107900
  C     -4.023800    2.225200    1.942300
  C     -4.542600    3.527000    1.952800
  H     -3.922300    4.363000    2.277900
  C     -5.847500    3.747500    1.531300
  H     -6.272200    4.753600    1.525600
  C     -6.598500    2.666900    1.063900
  N     -6.120400    1.414300    1.087500
  C     -4.888400    1.201900    1.532100
  H     -4.524400    0.172200    1.519900
  Zn    -7.484300   -0.003000    0.021700
  N     -8.545400   -1.286000   -1.354100
  C     -7.977300   -1.391600   -2.495200
  H     -8.422700   -1.983700   -3.308200
  C     -6.671000   -0.768300   -2.720600
  N     -6.225300    0.056000   -1.759300
  C     -5.004000    0.562100   -1.846600
  H     -4.682900    1.212600   -1.029900
  C     -4.110300    0.255800   -2.884200
  C     -4.595000   -0.572700   -3.907400
  H     -3.956200   -0.830300   -4.752100
  C     -5.889200   -1.073500   -3.835000
  H     -6.282200   -1.721800   -4.621100
  C     -2.740300    0.795400   -2.860400
  C     -2.489800    2.090900   -2.454100
  H     -3.318100    2.734800   -2.149100
  C     -1.193400    2.648400   -2.495000
  C     -0.109400    1.849100   -2.973800
  C      1.159000    2.466200   -3.130500
  H      1.981100    1.890600   -3.561800
  C      1.340300    3.790500   -2.804200
  H      2.310900    4.255700   -2.981400
  C      0.279400    4.568700   -2.290800
  H      0.440900    5.620900   -2.048000
  C     -0.965900    4.005200   -2.148400
  H     -1.811800    4.605200   -1.803300
  C     -0.347000    0.486100   -3.328500
  C     -1.638400   -0.021400   -3.258200
  O     -1.918700   -1.293100   -3.572100
  H     -1.099200   -1.768700   -3.785100
  C      0.728900   -0.395900   -3.849400
  C      1.774500   -0.794200   -3.028800
  C      2.798600   -1.665400   -3.511400
  C      2.693600   -2.167600   -4.793300
  H      3.473600   -2.830100   -5.177000
  C      1.650600   -1.793800   -5.665700
  C      1.587000   -2.287000   -6.994100
  H      2.342900   -3.001300   -7.329800
  C      0.601300   -1.861300   -7.851500
  H      0.559300   -2.238600   -8.875200
  C     -0.346600   -0.911600   -7.411300
  H     -1.106600   -0.550900   -8.108200
  C     -0.314100   -0.421200   -6.124500
  H     -1.039700    0.331800   -5.811600
  C      0.674000   -0.858600   -5.207300
  C      3.979700   -2.004500   -2.701600
  C      4.527700   -3.292200   -2.692000
  H      4.052700   -4.093100   -3.260600
  C      5.672200   -3.560400   -1.950100
  H      6.100600   -4.564500   -1.921400
  C      6.267900   -2.520700   -1.240000
  N      5.769200   -1.272800   -1.276500
  C      4.670000   -1.020900   -1.967400
  H      4.303700    0.006900   -1.952200
  C      7.465100   -2.730000   -0.428500
  N      8.056300   -1.741500    0.128400
  C      9.172100   -1.980700    0.957600
  C      9.119400   -2.964300    1.955100
  H      8.192600   -3.518800    2.123700
  C     10.238400   -3.208900    2.745300
  H     10.194500   -3.970500    3.527200
  C     11.414000   -2.488000    2.535400
  H     12.296400   -2.692700    3.145500
  C     11.459700   -1.505900    1.545300
  H     12.381000   -0.945100    1.372700
  C     10.338500   -1.232100    0.768400
  H     10.377400   -0.470000   -0.010600
  H      7.849900   -3.756200   -0.334000
  O      1.870500   -0.406600   -1.735100
  H      1.336800    0.386700   -1.570200
  C     -9.810400   -1.870400   -1.130900
  C    -10.881800   -1.619800   -1.996800
  H    -10.749300   -0.954400   -2.851700
  C    -12.128700   -2.178400   -1.728600
  H    -12.968100   -1.968700   -2.395100
  C    -12.305800   -2.998800   -0.615500
  H    -13.283700   -3.440100   -0.411900
  C    -11.231100   -3.258700    0.236900
  H    -11.366400   -3.913700    1.100100
  C     -9.988600   -2.685500   -0.007100
  H     -9.141700   -2.890300    0.648500
  N     -6.164700   -1.567500    0.846600
  C     -4.992900   -1.969800    0.377900
  H     -4.754000   -1.688500   -0.650000
  C     -4.039000   -2.659700    1.145400
  C     -4.423100   -3.007900    2.450000
  H     -3.745300   -3.573100    3.088500
  C     -5.665900   -2.616000    2.931300
  H     -5.977500   -2.874800    3.945500
  C     -6.504000   -1.856800    2.113100
  C     -7.756100   -1.292700    2.613800
  N     -8.451700   -0.496400    1.889800
  C     -9.610200    0.111900    2.411000
  C    -10.726200    0.267500    1.580000
  H    -10.690300   -0.081900    0.548000
  C    -11.895600    0.819200    2.092400
  H    -12.772200    0.912700    1.448100
  C    -11.950500    1.252300    3.416900
  H    -12.868600    1.691700    3.812800
  C    -10.826100    1.131300    4.235500
  H    -10.858800    1.488700    5.266900
  C     -9.659500    0.560600    3.740100
  H     -8.773400    0.492600    4.375900
  H     -8.073500   -1.573100    3.628400
  C     -2.714600   -2.965200    0.575700
  C     -2.568600   -3.307600   -0.755600
  H     -3.449000   -3.372400   -1.399200
  C     -1.317900   -3.652800   -1.311500
  C     -0.159600   -3.649800   -0.474900
  C      1.073000   -4.085800   -1.027400
  H      1.955100   -4.136600   -0.385100
  C      1.146900   -4.485000   -2.341700
  H      2.090200   -4.858800   -2.741900
  C      0.007400   -4.466200   -3.177300
  H      0.085700   -4.802800   -4.213100
  C     -1.202900   -4.066400   -2.664200
  H     -2.101700   -4.082900   -3.285400
  C     -0.292900   -3.267500    0.892300
  C     -1.541700   -2.917900    1.390500
  O     -1.698900   -2.551900    2.670500
  H     -0.829300   -2.529300    3.102700
  C      0.824400   -3.388600    1.866900
  C      1.863800   -2.469800    1.894200
  C      2.920300   -2.581900    2.855200
  C      2.850800   -3.602700    3.786300
  H      3.655600   -3.721900    4.515200
  C      1.814100   -4.557400    3.800000
  C      1.788900   -5.609700    4.751600
  H      2.577800   -5.661100    5.506300
  C      0.793200   -6.556000    4.719500
  H      0.777400   -7.366400    5.451200
  C     -0.204400   -6.488700    3.721700
  H     -0.978300   -7.259100    3.685400
  C     -0.206300   -5.476800    2.786500
  H     -0.974200   -5.456400    2.011200
  C      0.795400   -4.474600    2.804700
  C      4.096400   -1.694900    2.865100
  C      4.768400   -1.383100    4.056200
  H      4.378500   -1.733700    5.014000
  C      5.924500   -0.613700    4.032300
  H      6.446900   -0.357600    4.956400
  C      6.403400   -0.160800    2.804400
  N      5.772700   -0.462500    1.657700
  C      4.664700   -1.187900    1.680200
  H      4.190000   -1.391100    0.720900
  C      7.576100    0.706600    2.703900
  N      7.966000    1.143300    1.566400
  C      9.067300    2.022900    1.495000
  C     10.258200    1.762300    2.183400
  H     10.365100    0.839400    2.756400
  C     11.317400    2.661400    2.096900
  H     12.249100    2.450000    2.626300
  C     11.191600    3.828700    1.344900
  H     12.022100    4.535700    1.288300
  C      9.997100    4.096300    0.674800
  H      9.886600    5.023500    0.107900
  C      8.941600    3.192100    0.735800
  H      7.994000    3.411500    0.242300
  H      8.070600    1.011900    3.638000
  O      1.922100   -1.429700    1.034400
  H      1.340900   -1.574400    0.271600
  N     -8.439000    1.926500   -0.257700
  C     -7.885500    2.874000    0.400700
  H     -8.309000    3.888800    0.407800
  C     -9.626500    2.183300   -0.976200
  C     -9.710800    1.732800   -2.297900
  H     -8.860200    1.212200   -2.739500
  C    -10.844200    2.013000   -3.053700
  H    -10.895900    1.691500   -4.096500
  C    -11.908700    2.715000   -2.487700
  H    -12.801900    2.925900   -3.079500
  C    -11.827000    3.155700   -1.166700
  H    -12.660000    3.704000   -0.721400
  C    -10.687600    2.900800   -0.410100
  H    -10.635600    3.222700    0.632300
  O     -1.917200    3.638500    0.875400
  H     -1.120000    4.102600    0.573700

----------------------------
CARTESIAN COORDINATES (A.U.)
----------------------------
  NO LB      ZA    FRAG     MASS         X           Y           Z
   0 Zn   30.0000    0    65.380   13.139644    0.240184   -0.178201
   1 N     7.0000    0    14.007   10.857988    3.441380   -1.257424
   2 C     6.0000    0    12.011    8.719196    4.173460   -0.192563
   3 H     1.0000    0     1.008    7.946109    2.946650    1.272920
   4 C     6.0000    0    12.011    7.480481    6.439242   -0.839227
   5 C     6.0000    0    12.011    8.614506    7.899622   -2.735379
   6 H     1.0000    0     1.008    7.751468    9.677854   -3.327241
   7 C     6.0000    0    12.011   10.845327    7.107638   -3.874128
   8 H     1.0000    0     1.008   11.739546    8.232970   -5.355106
   9 C     6.0000    0    12.011   11.934943    4.848848   -3.077608
  10 C     6.0000    0    12.011   14.330927    3.914001   -4.097871
  11 N     7.0000    0    14.007   15.247444    1.834357   -3.283210
  12 C     6.0000    0    12.011   17.638893    0.989461   -4.101273
  13 C     6.0000    0    12.011   17.879455   -1.467750   -5.047647
  14 H     1.0000    0     1.008   16.201378   -2.648451   -5.251171
  15 C     6.0000    0    12.011   20.239723   -2.345906   -5.794089
  16 H     1.0000    0     1.008   20.426806   -4.246026   -6.577003
  17 C     6.0000    0    12.011   22.370011   -0.807858   -5.551826
  18 H     1.0000    0     1.008   24.223454   -1.514804   -6.120067
  19 C     6.0000    0    12.011   22.126803    1.631779   -4.588822
  20 H     1.0000    0     1.008   23.789951    2.837802   -4.390779
  21 C     6.0000    0    12.011   19.764835    2.547540   -3.871482
  22 H     1.0000    0     1.008   19.575295    4.430274   -3.047750
  23 H     1.0000    0     1.008   15.298467    5.040844   -5.552960
  24 C     6.0000    0    12.011    5.251549    7.327224    0.564650
  25 C     6.0000    0    12.011    5.021002    9.877032    1.087159
  26 H     1.0000    0     1.008    6.446045   11.193793    0.381914
  27 C     6.0000    0    12.011    3.097072   10.854398    2.648073
  28 C     6.0000    0    12.011    2.952319   13.470346    3.218204
  29 H     1.0000    0     1.008    4.313867   14.759706    2.353276
  30 C     6.0000    0    12.011    1.150087   14.366265    4.858108
  31 H     1.0000    0     1.008    1.050499   16.379201    5.299359
  32 C     6.0000    0    12.011   -0.550099   12.663811    6.013487
  33 H     1.0000    0     1.008   -1.934135   13.378316    7.368609
  34 C     6.0000    0    12.011   -0.462794   10.116460    5.485308
  35 H     1.0000    0     1.008   -1.757823    8.824832    6.438297
  36 C     6.0000    0    12.011    1.338871    9.138527    3.761500
  37 C     6.0000    0    12.011    1.466994    6.510484    3.108788
  38 C     6.0000    0    12.011    3.376563    5.642533    1.536347
  39 O     8.0000    0    15.999    3.542859    3.188346    0.842062
  40 H     1.0000    0     1.008    2.488958    2.151264    1.925631
  41 C     6.0000    0    12.011   -0.478668    4.746047    4.092769
  42 C     6.0000    0    12.011   -2.969327    5.108875    3.349729
  43 C     6.0000    0    12.011   -4.972058    3.625440    4.379062
  44 C     6.0000    0    12.011   -4.383787    1.684502    6.017077
  45 H     1.0000    0     1.008   -5.895379    0.528178    6.818699
  46 C     6.0000    0    12.011   -1.872719    1.217362    6.801691
  47 C     6.0000    0    12.011   -1.298809   -0.704868    8.580302
  48 H     1.0000    0     1.008   -2.841203   -1.865538    9.314271
  49 C     6.0000    0    12.011    1.134403   -1.066372    9.416316
  50 H     1.0000    0     1.008    1.552221   -2.532611   10.807344
  51 C     6.0000    0    12.011    3.081009    0.535737    8.539105
  52 H     1.0000    0     1.008    4.991145    0.322009    9.285925
  53 C     6.0000    0    12.011    2.588736    2.423574    6.821344
  54 H     1.0000    0     1.008    4.098249    3.700084    6.228537
  55 C     6.0000    0    12.011    0.107147    2.802653    5.873080
  56 C     6.0000    0    12.011   -7.603880    4.205019    3.670415
  57 C     6.0000    0    12.011   -8.584270    6.665064    3.690257
  58 H     1.0000    0     1.008   -7.412073    8.244875    4.304607
  59 C     6.0000    0    12.011  -11.050174    7.081749    2.893738
  60 H     1.0000    0     1.008  -11.852740    8.983002    2.882966
  61 C     6.0000    0    12.011  -12.469358    5.039711    2.010480
  62 N     7.0000    0    14.007  -11.565880    2.672640    2.055077
  63 C     6.0000    0    12.011   -9.237737    2.271262    2.895249
  64 H     1.0000    0     1.008   -8.549877    0.325411    2.872195
  65 Zn   30.0000    0    65.380  -14.143277   -0.005669    0.041007
  66 N     7.0000    0    14.007  -16.148466   -2.430188   -2.558878
  67 C     6.0000    0    12.011  -15.074912   -2.629743   -4.715245
  68 H     1.0000    0     1.008  -15.916596   -3.748650   -6.251592
  69 C     6.0000    0    12.011  -12.606363   -1.451877   -5.141189
  70 N     7.0000    0    14.007  -11.764112    0.105825   -3.324595
  71 C     6.0000    0    12.011   -9.456190    1.062215   -3.489568
  72 H     1.0000    0     1.008   -8.849399    2.291482   -1.946229
  73 C     6.0000    0    12.011   -7.767341    0.483392   -5.450348
  74 C     6.0000    0    12.011   -8.683292   -1.082246   -7.383916
  75 H     1.0000    0     1.008   -7.476135   -1.569040   -8.980168
  76 C     6.0000    0    12.011  -11.128975   -2.028621   -7.247100
  77 H     1.0000    0     1.008  -11.871638   -3.253730   -8.732613
  78 C     6.0000    0    12.011   -5.178417    1.503088   -5.405373
  79 C     6.0000    0    12.011   -4.705040    3.951228   -4.637577
  80 H     1.0000    0     1.008   -6.270300    5.168023   -4.061210
  81 C     6.0000    0    12.011   -2.255199    5.004751   -4.714867
  82 C     6.0000    0    12.011   -0.206736    3.494293   -5.619668
  83 C     6.0000    0    12.011    2.190193    4.660443   -5.915788
  84 H     1.0000    0     1.008    3.743736    3.572716   -6.730827
  85 C     6.0000    0    12.011    2.532800    7.163007   -5.299170
  86 H     1.0000    0     1.008    4.366968    8.042108   -5.634029
  87 C     6.0000    0    12.011    0.527989    8.633592   -4.328985
  88 H     1.0000    0     1.008    0.833180   10.621962   -3.870159
  89 C     6.0000    0    12.011   -1.825286    7.568731   -4.059888
  90 H     1.0000    0     1.008   -3.423806    8.702567   -3.407743
  91 C     6.0000    0    12.011   -0.655735    0.918596   -6.289953
  92 C     6.0000    0    12.011   -3.096127   -0.040440   -6.157106
  93 O     8.0000    0    15.999   -3.625818   -2.443605   -6.750291
  94 H     1.0000    0     1.008   -2.077187   -3.342359   -7.152802
  95 C     6.0000    0    12.011    1.377421   -0.748143   -7.274312
  96 C     6.0000    0    12.011    3.353319   -1.500820   -5.723603
  97 C     6.0000    0    12.011    5.288588   -3.147150   -6.635584
  98 C     6.0000    0    12.011    5.090166   -4.096170   -9.058024
  99 H     1.0000    0     1.008    6.564153   -5.348114   -9.783112
 100 C     6.0000    0    12.011    3.119182   -3.389791  -10.706621
 101 C     6.0000    0    12.011    2.998995   -4.321804  -13.216934
 102 H     1.0000    0     1.008    4.427439   -5.671635  -13.851315
 103 C     6.0000    0    12.011    1.136292   -3.517347  -14.837185
 104 H     1.0000    0     1.008    1.056924   -4.230341  -16.771697
 105 C     6.0000    0    12.011   -0.654979   -1.722674  -14.005327
 106 H     1.0000    0     1.008   -2.091171   -1.041050  -15.322277
 107 C     6.0000    0    12.011   -0.593563   -0.795953  -11.573628
 108 H     1.0000    0     1.008   -1.964748    0.627011  -10.982332
 109 C     6.0000    0    12.011    1.273675   -1.622519   -9.840371
 110 C     6.0000    0    12.011    7.520543   -3.787956   -5.105284
 111 C     6.0000    0    12.011    8.556113   -6.221356   -5.087143
 112 H     1.0000    0     1.008    7.658493   -7.734838   -6.161641
 113 C     6.0000    0    12.011   10.718905   -6.728181   -3.685155
 114 H     1.0000    0     1.008   11.528463   -8.625655   -3.630920
 115 C     6.0000    0    12.011   11.844614   -4.763433   -2.343260
 116 N     7.0000    0    14.007   10.902208   -2.405243   -2.412235
 117 C     6.0000    0    12.011    8.825021   -1.929221   -3.717847
 118 H     1.0000    0     1.008    8.132814    0.013039   -3.689123
 119 C     6.0000    0    12.011   14.106995   -5.158952   -0.809748
 120 N     7.0000    0    14.007   15.224201   -3.290958    0.242641
 121 C     6.0000    0    12.011   17.332757   -3.742981    1.809602
 122 C     6.0000    0    12.011   17.233169   -5.601715    3.694604
 123 H     1.0000    0     1.008   15.481770   -6.649568    4.013211
 124 C     6.0000    0    12.011   19.347772   -6.063942    5.187865
 125 H     1.0000    0     1.008   19.264813   -7.503158    6.665442
 126 C     6.0000    0    12.011   21.569334   -4.701639    4.791212
 127 H     1.0000    0     1.008   23.236828   -5.088466    5.944134
 128 C     6.0000    0    12.011   21.655695   -2.845739    2.920194
 129 H     1.0000    0     1.008   23.396699   -1.785980    2.594027
 130 C     6.0000    0    12.011   19.536934   -2.328332    1.452066
 131 H     1.0000    0     1.008   19.610444   -0.888171   -0.020031
 132 H     1.0000    0     1.008   14.834161   -7.098189   -0.631169
 133 O     8.0000    0    15.999    3.534733   -0.768363   -3.278864
 134 H     1.0000    0     1.008    2.526186    0.730757   -2.967248
 135 C     6.0000    0    12.011  -18.538969   -3.534544   -2.137091
 136 C     6.0000    0    12.011  -20.563622   -3.060978   -3.773405
 137 H     1.0000    0     1.008  -20.313233   -1.803555   -5.388932
 138 C     6.0000    0    12.011  -22.919921   -4.116579   -3.266581
 139 H     1.0000    0     1.008  -24.506157   -3.720304   -4.526083
 140 C     6.0000    0    12.011  -23.254592   -5.666911   -1.163126
 141 H     1.0000    0     1.008  -25.102555   -6.500847   -0.778378
 142 C     6.0000    0    12.011  -21.223703   -6.158051    0.447676
 143 H     1.0000    0     1.008  -21.479383   -7.395821    2.078888
 144 C     6.0000    0    12.011  -18.875718   -5.074860   -0.013417
 145 H     1.0000    0     1.008  -17.275309   -5.461875    1.225487
 146 N     7.0000    0    14.007  -11.649595   -2.962146    1.599842
 147 C     6.0000    0    12.011   -9.435214   -3.722383    0.714128
 148 H     1.0000    0     1.008   -8.983758   -3.190803   -1.228322
 149 C     6.0000    0    12.011   -7.632604   -5.026105    2.164492
 150 C     6.0000    0    12.011   -8.358448   -5.684107    4.629829
 151 H     1.0000    0     1.008   -7.077591   -6.752180    5.836419
 152 C     6.0000    0    12.011  -10.706999   -4.943524    5.539354
 153 H     1.0000    0     1.008  -11.295838   -5.432585    7.455914
 154 C     6.0000    0    12.011  -12.290779   -3.508843    3.993180
 155 C     6.0000    0    12.011  -14.656905   -2.442849    4.939366
 156 N     7.0000    0    14.007  -15.971398   -0.938060    3.571204
 157 C     6.0000    0    12.011  -18.160646    0.211460    4.556130
 158 C     6.0000    0    12.011  -20.269580    0.505502    2.985767
 159 H     1.0000    0     1.008  -20.201739   -0.154769    1.035570
 160 C     6.0000    0    12.011  -22.479426    1.548064    3.954063
 161 H     1.0000    0     1.008  -24.135960    1.724753    2.736512
 162 C     6.0000    0    12.011  -22.583172    2.366504    6.457005
 163 H     1.0000    0     1.008  -24.318130    3.196850    7.205148
 164 C     6.0000    0    12.011  -20.458364    2.137847    8.003935
 165 H     1.0000    0     1.008  -20.520158    2.813235    9.952999
 166 C     6.0000    0    12.011  -18.253810    1.059380    7.067765
 167 H     1.0000    0     1.008  -16.579323    0.930879    8.269253
 168 H     1.0000    0     1.008  -15.256704   -2.972728    6.856682
 169 C     6.0000    0    12.011   -5.129851   -5.603416    1.087915
 170 C     6.0000    0    12.011   -4.853951   -6.250458   -1.427877
 171 H     1.0000    0     1.008   -6.517665   -6.372912   -2.644105
 172 C     6.0000    0    12.011   -2.490470   -6.902792   -2.478376
 173 C     6.0000    0    12.011   -0.301600   -6.897122   -0.897431
 174 C     6.0000    0    12.011    2.027676   -7.721043   -1.941505
 175 H     1.0000    0     1.008    3.694604   -7.817041   -0.727734
 176 C     6.0000    0    12.011    2.167327   -8.475422   -4.425172
 177 H     1.0000    0     1.008    3.949906   -9.181801   -5.181440
 178 C     6.0000    0    12.011    0.013984   -8.439895   -6.004227
 179 H     1.0000    0     1.008    0.161950   -9.075977   -7.961605
 180 C     6.0000    0    12.011   -2.273152   -7.684382   -5.034608
 181 H     1.0000    0     1.008   -3.971637   -7.715563   -6.208506
 182 C     6.0000    0    12.011   -0.553501   -6.174680    1.686203
 183 C     6.0000    0    12.011   -2.913391   -5.514032    2.627664
 184 O     8.0000    0    15.999   -3.210456   -4.822392    5.046514
 185 H     1.0000    0     1.008   -1.567150   -4.779684    5.863253
 186 C     6.0000    0    12.011    1.557890   -6.403526    3.527930
 187 C     6.0000    0    12.011    3.522072   -4.667246    3.579519
 188 C     6.0000    0    12.011    5.518567   -4.879084    5.395546
 189 C     6.0000    0    12.011    5.387231   -6.808116    7.155070
 190 H     1.0000    0     1.008    6.908083   -7.033372    8.532491
 191 C     6.0000    0    12.011    3.428152   -8.612238    7.180959
 192 C     6.0000    0    12.011    3.380531  -10.600797    8.979223
 193 H     1.0000    0     1.008    4.871336  -10.697929   10.405399
 194 C     6.0000    0    12.011    1.498931  -12.389045    8.918562
 195 H     1.0000    0     1.008    1.469073  -13.920479   10.301275
 196 C     6.0000    0    12.011   -0.386260  -12.261866    7.032994
 197 H     1.0000    0     1.008   -1.848719  -13.717711    6.964397
 198 C     6.0000    0    12.011   -0.389851  -10.349652    5.265722
 199 H     1.0000    0     1.008   -1.840971  -10.311102    3.800617
 200 C     6.0000    0    12.011    1.503088   -8.455769    5.300115
 201 C     6.0000    0    12.011    7.741074   -3.202897    5.414254
 202 C     6.0000    0    12.011    9.010970   -2.613680    7.665107
 203 H     1.0000    0     1.008    8.274166   -3.276218    9.475087
 204 C     6.0000    0    12.011   11.195682   -1.159725    7.619943
 205 H     1.0000    0     1.008   12.182875   -0.675766    9.366239
 206 C     6.0000    0    12.011   12.100672   -0.303868    5.299548
 207 N     7.0000    0    14.007   10.908822   -0.873998    3.132599
 208 C     6.0000    0    12.011    8.815005   -2.244806    3.175118
 209 H     1.0000    0     1.008    7.917953   -2.628798    1.362304
 210 C     6.0000    0    12.011   14.316754    1.335280    5.109630
 211 N     7.0000    0    14.007   15.053558    2.160524    2.960067
 212 C     6.0000    0    12.011   17.134714    3.822727    2.825141
 213 C     6.0000    0    12.011   19.385189    3.330264    4.126028
 214 H     1.0000    0     1.008   19.587200    1.586236    5.208841
 215 C     6.0000    0    12.011   21.386787    5.029317    3.962567
 216 H     1.0000    0     1.008   23.147444    4.629829    4.962988
 217 C     6.0000    0    12.011   21.149059    7.235194    2.541493
 218 H     1.0000    0     1.008   22.718477    8.571231    2.434534
 219 C     6.0000    0    12.011   18.891781    7.740885    1.275187
 220 H     1.0000    0     1.008   18.682966    9.493039    0.203901
 221 C     6.0000    0    12.011   16.897175    6.032195    1.390460
 222 H     1.0000    0     1.008   15.106471    6.446801    0.457881
 223 H     1.0000    0     1.008   15.251224    1.912214    6.874824
 224 O     8.0000    0    15.999    3.632243   -2.701741    1.954733
 225 H     1.0000    0     1.008    2.533934   -2.975185    0.513250
 226 N     7.0000    0    14.007  -15.947399    3.640557   -0.486982
 227 C     6.0000    0    12.011  -14.901435    5.431073    0.757213
 228 H     1.0000    0     1.008  -15.701734    7.348767    0.770630
 229 C     6.0000    0    12.011  -18.191449    4.125839   -1.844751
 230 C     6.0000    0    12.011  -18.350753    3.274517   -4.342402
 231 H     1.0000    0     1.008  -16.743351    2.290726   -5.176905
 232 C     6.0000    0    12.011  -20.492568    3.804019   -5.770657
 233 H     1.0000    0     1.008  -20.590267    3.196472   -7.741263
 234 C     6.0000    0    12.011  -22.504182    5.130606   -4.701072
 235 H     1.0000    0     1.008  -24.192085    5.529150   -5.819412
 236 C     6.0000    0    12.011  -22.349791    5.963409   -2.204743
 237 H     1.0000    0     1.008  -23.923933    6.999546   -1.363248
 238 C     6.0000    0    12.011  -20.196637    5.481718   -0.774977
 239 H     1.0000    0     1.008  -20.098371    6.090020    1.194874
 240 O     8.0000    0    15.999   -3.622983    6.875769    1.654266
 241 H     1.0000    0     1.008   -2.116493    7.752790    1.084136

--------------------------------
INTERNAL COORDINATES (ANGSTROEM)
--------------------------------
 Zn     0   0   0     0.000000000000     0.00000000     0.00000000
 N      1   0   0     2.157221817524     0.00000000     0.00000000
 C      2   1   0     1.322339687826   126.60492641     0.00000000
 H      3   2   1     1.090973739372   116.71373538   354.38781270
 C      3   2   1     1.408680975239   122.96438961   173.12470809
 C      5   3   2     1.401481862173   116.36009579     1.08243250
 H      6   5   3     1.091856277172   120.09930193   179.98216209
 C      6   5   3     1.390090579782   120.51388976   359.79753106
 H      8   6   5     1.092119123539   120.97331948   179.90249955
 C      2   1   3     1.344346417409   112.79703302   174.70154519
 C     10   2   1     1.464168880287   116.36612913     3.49154994
 N     11  10   2     1.277565051181   119.69320684     1.48129010
 C     12  11  10     1.410245038991   120.67570454   184.66143500
 C     13  12  11     1.399209069439   119.08698017   231.65782184
 H     14  13  12     1.091108761765   119.56657414     3.87439354
 C     14  13  12     1.389953988447   119.61447128   181.78208413
 H     16  14  13     1.092005375445   119.80999568   181.50791336
 C     16  14  13     1.396307179671   120.29831701     1.38052116
 H     18  16  14     1.091943194493   120.01223946   179.27075468
 C     18  16  14     1.393892696731   119.92663481   359.14264530
 H     20  18  16     1.092180520793   120.12446252   179.79464592
 C     20  18  16     1.393263553675   120.30348638   359.83847905
 H     22  20  18     1.092100082410   120.56022860   177.60509640
 H     11  10   2     1.100280732359   118.54845129   181.69371221
 C      5   3   2     1.471029119358   121.48783488   186.49511576
 C     25   5   3     1.382731622550   118.91068137   139.84569401
 H     26  25   5     1.092462946740   119.55037072     2.66639206
 C     26  25   5     1.409361362462   122.61799635   186.98846120
 C     28  26  25     1.418864665851   121.44335636   177.95772343
 H     29  28  26     1.092768424690   118.98043075     2.87915941
 C     29  28  26     1.373823620411   120.56265694   183.73174847
 H     31  29  28     1.091764892273   120.35157812   179.69802062
 C     31  29  28     1.412406053513   119.70386535     0.89560227
 H     33  31  29     1.092520837330   119.36760032   177.77237350
 C     33  31  29     1.377446438160   120.99818372   358.75044911
 H     35  33  31     1.091387570939   119.87163607   178.26401791
 C     35  33  31     1.417351985218   120.69489897   359.91727261
 C     37  35  33     1.434553759885   122.73176749   181.41712812
 C     38  37  35     1.387248049197   119.98759381   184.18726420
 O     39  38  37     1.352534084598   121.88638533   181.07044126
 H     40  39  38     0.970050663625   110.19727246   344.63508315
 C     38  37  35     1.484250767222   119.51092092     5.20073480
 C     42  38  37     1.388738362688   118.16734539    63.42353600
 C     43  42  38     1.426919454629   121.38233292   185.30329720
 C     44  43  42     1.379559473165   118.80537611   355.63325386
 H     45  44  43     1.092797904464   119.70992140   180.12905865
 C     45  44  43     1.413933633520   121.78503713     3.41956991
 C     47  45  44     1.418727235941   121.42197211   176.92871372
 H     48  47  45     1.092830563262   118.61131827     1.39819951
 C     48  47  45     1.374855341481   120.91150929   182.99216078
 H     50  48  47     1.092130592008   120.35347192   179.07016447
 C     50  48  47     1.412569463779   119.58427705     1.51728436
 H     52  50  48     1.091188017713   119.62289585   176.39291591
 C     52  50  48     1.375551616625   120.99373683   358.72028332
 H     54  52  50     1.092148973355   120.03245104   177.20003153
 C     54  52  50     1.420048534382   120.74623960   359.65953621
 C     44  43  42     1.474551857345   119.33960574   175.57121359
 C     57  44  43     1.401408908920   122.74869993   312.81426215
 H     58  57  44     1.090576957395   120.24855233   357.96991953
 C     58  57  44     1.388901187990   119.53859549   177.21561230
 H     60  58  57     1.092080486961   120.87814197   180.31780400
 C     60  58  57     1.396481335357   118.94571337   357.90672507
 N     62  60  58     1.340948667921   121.68103075     4.07451517
 C     63  62  60     1.326878638007   119.10881064   358.10529385
 H     64  63  62     1.092211943718   117.16848435   181.12051396
 Zn    63  62  60     2.237161625811   111.47131678   187.41807440
 N     66  63  62     2.159825884186   168.32758056    93.06022828
 C     67  66  63     1.279061444967   113.52341010     6.45817334
 H     68  67  66     1.099969349573   121.59988884   182.20570852
 C     68  67  66     1.464830276858   119.88313634     5.19451307
 N     70  68  67     1.342466636457   116.56139976   350.48206930
 C     71  70  68     1.324889501053   119.56500587   174.26461866
 H     72  71  70     1.092361821925   116.69108147   181.07284412
 C     72  71  70     1.403258044695   123.53325577   358.09627602
 C     74  72  71     1.402955658601   116.62468136     3.76993646
 H     75  74  72     1.089927194816   120.15295730   178.72884651
 C     75  74  72     1.389602835345   119.77479536   358.18540450
 H     77  75  74     1.092105809892   120.76935884   180.15213619
 C     74  72  71     1.472628466382   120.03700950   183.89009205
 C     79  74  72     1.380633981184   121.15633972   319.79970672
 H     80  79  74     1.092571782539   119.84152761   359.63392509
 C     80  79  74     1.411783276569   121.91257117   183.56933115
 C     82  80  79     1.429400549181   119.02997104     0.14112456
 C     83  82  80     1.419227205207   118.13874912   173.95055083
 H     84  83  82     1.092329373403   119.15015935   184.30525828
 C     84  83  82     1.375904019182   120.66955471     1.24646234
 H     86  84  83     1.090814026312   119.28780847   183.11105172
 C     86  84  83     1.412332683896   121.16910923     0.76143986
 H     88  86  84     1.091860306999   120.04742824   180.65658665
 C     88  86  84     1.374256926488   119.49940360   358.19087608
 H     90  88  86     1.092996257999   120.59255263   183.27059246
 C     83  82  80     1.428297885597   119.38337822   356.54040039
 C     92  83  82     1.389320805286   119.38316565     2.83618379
 O     93  92  83     1.339523120368   121.96754167   180.34326122
 H     94  93  92     0.971156326242   109.86160748     3.43788650
 C     92  83  82     1.485537485222   122.22054743   179.18037901
 C     96  92  83     1.387554182726   120.58522623    68.27466386
 C     97  96  92     1.428521266905   121.03012913   178.63537792
 C     98  97  96     1.380759736522   118.74693055   356.49047868
 H     99  98  97     1.092946448825   119.48071567   179.61013183
 C     99  98  97     1.410197574810   122.28820676     3.50713650
 C    101  99  98     1.418427918507   121.35692688   177.83368578
 H    102 101  99     1.092842070017   118.94293924     2.41354424
 C    102 101  99     1.374030472733   120.58642330   183.23633216
 H    104 102 101     1.091824610457   120.37127416   179.62261106
 C    104 102 101     1.412168736377   119.69439904     0.80614381
 H    106 104 102     1.092416632975   119.35225063   177.87314731
 C    106 104 102     1.377462395131   120.98345984   358.80697640
 H    108 106 104     1.091517645299   119.84903788   178.40146404
 C    108 106 104     1.417362413076   120.73754810     0.00000000
 C     98  97  96     1.471652832702   122.00438281   174.36939234
 C    111  98  97     1.399488281480   122.00902013   140.97409702
 H    112 111  98     1.091041598657   120.09148448   357.18436369
 C    112 111  98     1.390045718673   120.23811229   177.72473776
 H    114 112 111     1.092047187625   120.95907760   179.01310231
 C    114 112 111     1.392866321655   118.69900811   358.97636086
 N    116 114 112     1.344354250189   121.35892144   359.05117409
 C    117 116 114     1.322511648342   119.95434521     1.88278800
 H    118 117 116     1.091228468287   116.81550671   179.29371484
 C    116 114 112     1.461378315153   121.77311118   179.41846867
 N    120 116 114     1.279369883966   120.63881592   174.37967741
 C    121 120 116     1.410602325250   119.36604236   176.99961085
 C    122 121 120     1.401874637762   120.49833980   311.60733301
 H    123 122 121     1.093093980406   119.83765456   357.14286805
 C    123 122 121     1.391548130680   119.81207945   178.56870361
 H    125 123 122     1.092396164402   119.78087590   179.56191659
 C    125 123 122     1.394915832586   120.09394559   359.27264814
 H    127 125 123     1.092132711716   120.00020040   181.01011031
 C    127 125 123     1.395316060970   119.87663844     1.01268544
 H    129 127 125     1.092282513821   120.07454830   180.49890594
 C    129 127 125     1.391269021433   120.55499079     0.39189979
 H    131 129 127     1.090481829285   120.51050892   180.49607974
 H    120 116 114     1.100039876550   117.89681285   355.77704394
 O     97  96  92     1.353923723849   122.43539661   359.88618062
 H    134  97  96     0.970233265767   110.94483631   339.94408910
 C     67  66  71     1.411228755376   125.84734640   185.78519129
 C    136  67  66     1.400171821599   120.92917105   121.42691632
 H    137 136  67     1.091406166374   120.04194180   359.21098460
 C    137 136  67     1.392380985937   119.62479803   181.91968560
 H    139 137 136     1.092148662042   119.58367137   178.96376002
 C    139 137 136     1.394063190820   120.24233816   359.05183172
 H    141 139 137     1.092010558557   120.02998746   180.38056098
 C    141 139 137     1.396106679305   119.95135295     0.21208383
 H    143 141 139     1.091991451432   119.92846461   180.93871383
 C    143 141 139     1.389928231960   120.27690621     1.03082096
 H    145 143 141     1.090410019213   120.75017366   180.55175440
 N     66  63  62     2.206686298503    84.63463209   188.52519418
 C    147  66  63     1.324628332779   127.73859476   278.84836476
 H    148 147  66     1.092145278798   116.63480621   343.56725330
 C    148 147  66     1.405326819640   123.80131044   160.02700623
 C    150 148 147     1.403836603740   116.33233630     4.64487771
 H    151 150 148     1.089286982388   120.21032906   177.94095344
 C    151 150 148     1.389167786842   119.78723197   357.19840972
 H    153 151 150     1.092095984793   120.67453863   180.29760828
 C    147  66  63     1.342699232889   110.74732902    82.24179331
 C    155 147  66     1.461733118596   117.15564945     9.98052553
 N    156 155 147     1.281455832247   120.74715165   356.15615778
 C    157 156 155     1.408474557811   120.38357885   184.20438698
 C    158 157 156     1.400081554767   118.94638898   218.31678936
 H    159 158 157     1.090134473356   120.00096993     0.14031410
 C    159 158 157     1.390835364089   119.70990194   177.54153314
 H    161 159 158     1.091921379954   119.44390047   181.71010754
 C    161 159 158     1.394593084021   120.40983145     1.81714696
 H    163 161 159     1.092115735625   120.15427736   179.54448028
 C    163 161 159     1.396073894892   119.88533073   359.95167596
 H    165 163 161     1.092057695362   120.08657316   178.70406620
 C    165 163 161     1.389991082705   120.16993709   358.95348923
 H    167 165 163     1.092720847243   119.91816258   178.34023146
 H    156 155 147     1.099445351075   117.70835465   176.35582972
 C    150 148 147     1.473744787947   120.04212172   185.34716676
 C    170 150 148     1.382357931218   121.23487269   323.14792757
 H    171 170 150     1.092485313402   119.79741496   358.88804286
 C    171 170 150     1.411537580088   122.23795074   182.42330417
 C    173 171 170     1.428834297601   119.15584395     0.00000000
 C    174 173 171     1.419385433911   118.38694576   175.82705819
 H    175 174 173     1.092350831922   119.12147069   183.07565717
 C    175 174 173     1.375574912537   120.51148356     0.76727152
 H    177 175 174     1.090734326039   119.76746384   182.65519906
 C    177 175 174     1.413167028344   121.18323760     0.34592421
 H    179 177 175     1.091930441924   119.93243069   180.98688168
 C    179 177 175     1.374022467065   119.55956672   358.76412007
 H    181 179 177     1.092704502599   120.52059037   182.39370587
 C    174 173 171     1.425888501952   119.09052379   358.53510182
 C    183 174 173     1.389217348006   119.69392050     0.59929516
 O    184 183 174     1.340547589607   121.10053034   180.11452425
 H    185 184 183     0.971345335089   109.03969626     3.56863881
 C    183 174 173     1.487571732724   122.42214667   172.68927718
 C    187 183 174     1.387548590140   121.44088712    77.71043144
 C    188 187 183     1.432577976935   120.91885464   178.73410705
 C    189 188 187     1.383405255158   118.17618545   357.69328130
 H    190 189 188     1.092340098138   119.51303333   178.65648584
 C    190 189 188     1.409392305215   122.91064995     2.19704250
 C    192 190 189     1.418983047820   121.46122316   178.58855058
 H    193 192 190     1.092967181575   119.02062752     1.72692914
 C    193 192 190     1.374020593004   120.52671451   182.19228053
 H    195 193 192     1.091962769512   120.39483810   179.83533545
 C    195 193 192     1.412565003814   119.70072213     0.71787645
 H    197 195 193     1.092590984770   119.34784394   178.39298592
 C    197 195 193     1.377876721626   121.02402384   359.15947079
 H    199 197 195     1.091410399437   119.79115265   178.67420095
 C    199 197 195     1.417088201207   120.64302805   359.91170444
 C    189 188 187     1.473118535624   123.10520702   175.34207810
 C    202 189 188     1.402684016448   121.46906326   150.27032899
 H    203 202 189     1.091935533811   120.15932128   355.11828453
 C    203 202 189     1.388925764755   120.48404199   175.90494019
 H    205 203 202     1.091993488992   120.90075088   179.31471354
 C    205 203 202     1.393629086235   118.76484725   359.89488156
 N    207 205 203     1.343028767376   121.19169497   359.59739446
 C    208 207 205     1.324528372667   120.09034904     0.90366637
 H    209 208 207     1.089443353277   116.85201210   179.27932488
 C    207 205 203     1.462090387083   121.93655043   176.98841397
 N    211 207 205     1.279310419718   120.53605769   182.36587724
 C    212 211 207     1.411260362229   119.70784606   177.44095862
 C    213 212 211     1.400017760602   121.52773765    47.45160649
 H    214 213 212     1.091558986038   119.92068398     2.74196134
 C    214 213 212     1.392037248065   119.76640275   180.59123734
 H    216 214 213     1.092254187449   119.59894616   180.66354937
 C    216 214 213     1.394244931854   120.37224786     0.94737798
 H    218 216 214     1.092145965519   120.08727864   179.39218609
 C    218 216 214     1.395519265363   119.78617929   359.96529983
 H    220 218 216     1.092376171472   119.90346860   178.29636742
 C    220 218 216     1.391178956856   120.24724464   358.87710170
 H    222 220 218     1.090699028147   120.56969061   177.90958792
 H    211 207 205     1.100127788032   117.82673428   359.01764128
 O    188 187 183     1.350726819161   121.98537110   359.39291724
 H    225 188 187     0.969842961515   111.09417509   342.28471585
 N     66  63  62     2.170826271262    76.48719199     2.73589939
 C    227  66  63     1.279691001766   113.68225642   353.11810243
 H    228 227  66     1.099646170366   121.33428164   184.39672231
 C    227  66  63     1.411504424364   126.67083177   178.77612302
 C    230 227  66     1.398909443102   118.23214672   306.53052998
 H    231 230 227     1.090667355338   119.29202007   359.15952959
 C    231 230 227     1.390805967776   119.84541961   182.51102208
 H    233 231 230     1.092459143401   119.86777640   177.87771940
 C    233 231 230     1.395105820359   120.17955303   358.53129070
 H    235 233 231     1.092022110582   120.09389746   180.58727596
 C    235 233 231     1.394966802472   119.89890125     1.03246954
 H    237 235 233     1.092160235497   120.00249152   180.09909861
 C    237 235 233     1.391276367225   120.33569825     0.10870397
 H    239 237 235     1.092209398421   120.26566960   181.65640985
 O     43  42  38     1.341208279873   122.04260550     4.68857313
 H    241  43  42     0.970535697437   109.23657656     0.86465967

---------------------------
INTERNAL COORDINATES (A.U.)
---------------------------
 Zn     0   0   0     0.000000000000     0.00000000     0.00000000
 N      1   0   0     4.076558445240     0.00000000     0.00000000
 C      2   1   0     2.498859866006   126.60492641     0.00000000
 H      3   2   1     2.061641586714   116.71373538   354.38781270
 C      3   2   1     2.662021253267   122.96438961   173.12470809
 C      5   3   2     2.648416901165   116.36009579     1.08243250
 H      6   5   3     2.063309341458   120.09930193   179.98216209
 C      6   5   3     2.626890497133   120.51388976   359.79753106
 H      8   6   5     2.063806049107   120.97331948   179.90249955
 C      2   1   3     2.540446558021   112.79703302   174.70154519
 C     10   2   1     2.766878197552   116.36612913     3.49154994
 N     11  10   2     2.414248065002   119.69320684     1.48129010
 C     12  11  10     2.664976905415   120.67570454   184.66143500
 C     13  12  11     2.644121945338   119.08698017   231.65782184
 H     14  13  12     2.061896742057   119.56657414     3.87439354
 C     14  13  12     2.626632376917   119.61447128   181.78208413
 H     16  14  13     2.063591096360   119.80999568   181.50791336
 C     16  14  13     2.638638168406   120.29831701     1.38052116
 H     18  16  14     2.063473591391   120.01223946   179.27075468
 C     18  16  14     2.634075456895   119.92663481   359.14264530
 H     20  18  16     2.063922073103   120.12446252   179.79464592
 C     20  18  16     2.632886548820   120.30348638   359.83847905
 H     22  20  18     2.063770066588   120.56022860   177.60509640
 H     11  10   2     2.079229254588   118.54845129   181.69371221
 C      5   3   2     2.779842170611   121.48783488   186.49511576
 C     25   5   3     2.612984083332   118.91068137   139.84569401
 H     26  25   5     2.064455780795   119.55037072     2.66639206
 C     26  25   5     2.663306998783   122.61799635   186.98846120
 C     28  26  25     2.681265639556   121.44335636   177.95772343
 H     29  28  26     2.065033050461   118.98043075     2.87915941
 C     29  28  26     2.596150398890   120.56265694   183.73174847
 H     31  29  28     2.063136649026   120.35157812   179.69802062
 C     31  29  28     2.669060631032   119.70386535     0.89560227
 H     33  31  29     2.064565178156   119.36760032   177.77237350
 C     33  31  29     2.602996532268   120.99818372   358.75044911
 H     35  33  31     2.062423615040   119.87163607   178.26401791
 C     35  33  31     2.678407087431   120.69489897   359.91727261
 C     37  35  33     2.710913730570   122.73176749   181.41712812
 C     38  37  35     2.621518892798   119.98759381   184.18726420
 O     39  38  37     2.555919006685   121.88638533   181.07044126
 H     40  39  38     1.833130090280   110.19727246   344.63508315
 C     38  37  35     2.804827464113   119.51092092     5.20073480
 C     42  38  37     2.624335177150   118.16734539    63.42353600
 C     43  42  38     2.696486984414   121.38233292   185.30329720
 C     44  43  42     2.606989589739   118.80537611   355.63325386
 H     45  44  43     2.065088759159   119.70992140   180.12905865
 C     45  44  43     2.671947338894   121.78503713     3.41956991
 C     47  45  44     2.681005934663   121.42197211   176.92871372
 H     48  47  45     2.065150475344   118.61131827     1.39819951
 C     48  47  45     2.598100069159   120.91150929   182.99216078
 H     50  48  47     2.063827721373   120.35347192   179.07016447
 C     50  48  47     2.669369431682   119.58427705     1.51728436
 H     52  50  48     2.062046514094   119.62289585   176.39291591
 C     52  50  48     2.599415838494   120.99373683   358.72028332
 H     54  52  50     2.063862457084   120.03245104   177.20003153
 C     54  52  50     2.683502826858   120.74623960   359.65953621
 C     44  43  42     2.786499180647   119.33960574   175.57121359
 C     57  44  43     2.648279039496   122.74869993   312.81426215
 H     58  57  44     2.060891777441   120.24855233   357.96991953
 C     58  57  44     2.624642872379   119.53859549   177.21561230
 H     60  58  57     2.063733036555   120.87814197   180.31780400
 C     60  58  57     2.638967274957   118.94571337   357.90672507
 N     62  60  58     2.534025742018   121.68103075     4.07451517
 C     63  62  60     2.507437238784   119.10881064   358.10529385
 H     64  63  62     2.063981453825   117.16848435   181.12051396
 Zn    63  62  60     4.227622790100   111.47131678   187.41807440
 N     66  63  62     4.081479418066   168.32758056    93.06022828
 C     67  66  63     2.417075839444   113.52341010     6.45817334
 H     68  67  66     2.078640826400   121.59988884   182.20570852
 C     68  67  66     2.768128055938   119.88313634     5.19451307
 N     70  68  67     2.536894286830   116.56139976   350.48206930
 C     71  70  68     2.503678314697   119.56500587   174.26461866
 H     72  71  70     2.064264682590   116.69108147   181.07284412
 C     72  71  70     2.651773399695   123.53325577   358.09627602
 C     74  72  71     2.651201972791   116.62468136     3.76993646
 H     75  74  72     2.059663904116   120.15295730   178.72884651
 C     75  74  72     2.625968793723   119.77479536   358.18540450
 H     77  75  74     2.063780889960   120.76935884   180.15213619
 C     74  72  71     2.782864498479   120.03700950   183.89009205
 C     79  74  72     2.609020115623   121.15633972   319.79970672
 H     80  79  74     2.064661450648   119.84152761   359.63392509
 C     80  79  74     2.667883753165   121.91257117   183.56933115
 C     82  80  79     2.701175573629   119.02997104     0.14112456
 C     83  82  80     2.681950739652   118.13874912   173.95055083
 H     84  83  82     2.064203363770   119.15015935   184.30525828
 C     84  83  82     2.600081782815   120.66955471     1.24646234
 H     86  84  83     2.061339772771   119.28780847   183.11105172
 C     86  84  83     2.668921982549   121.16910923     0.76143986
 H     88  86  84     2.063316956727   120.04742824   180.65658665
 C     88  86  84     2.596969228707   119.49940360   358.19087608
 H     90  88  86     2.065463593019   120.59255263   183.27059246
 C     83  82  80     2.699091841437   119.38337822   356.54040039
 C     92  83  82     2.625435834149   119.38316565     2.83618379
 O     93  92  83     2.531331847551   121.96754167   180.34326122
 H     94  93  92     1.835219489823   109.86160748     3.43788650
 C     92  83  82     2.807259008744   122.22054743   179.18037901
 C     96  92  83     2.622097401329   120.58522623    68.27466386
 C     97  96  92     2.699513970933   121.03012913   178.63537792
 C     98  97  96     2.609257758772   118.74693055   356.49047868
 H     99  98  97     2.065369467322   119.48071567   179.61013183
 C     99  98  97     2.664887211111   122.28820676     3.50713650
 C    101  99  98     2.680440306686   121.35692688   177.83368578
 H    102 101  99     2.065172219961   118.94293924     2.41354424
 C    102 101  99     2.596541293128   120.58642330   183.23633216
 H    104 102 101     2.063249500039   120.37127416   179.62261106
 C    104 102 101     2.668612166638   119.69439904     0.80614381
 H    106 104 102     2.064368260463   119.35225063   177.87314731
 C    106 104 102     2.603026686573   120.98345984   358.80697640
 H    108 106 104     2.062669419959   119.84903788   178.40146404
 C    108 106 104     2.678426793227   120.73754810     0.00000000
 C     98  97  96     2.781020818016   122.00438281   174.36939234
 C    111  98  97     2.644649579629   122.00902013   140.97409702
 H    112 111  98     2.061769822177   120.09148448   357.18436369
 C    112 111  98     2.626805721921   120.23811229   177.72473776
 H    114 112 111     2.063670109930   120.95907760   179.01310231
 C    114 112 111     2.632135889090   118.69900811   358.97636086
 N    116 114 112     2.540461359829   121.35892144   359.05117409
 C    117 116 114     2.499184824287   119.95434521     1.88278800
 H    118 117 116     2.062122954601   116.81550671   179.29371484
 C    116 114 112     2.761604793691   121.77311118   179.41846867
 N    120 116 114     2.417658704683   120.63881592   174.37967741
 C    121 120 116     2.665652078595   119.36604236   176.99961085
 C    122 121 120     2.649159139460   120.49833980   311.60733301
 H    123 122 121     2.065648261605   119.83765456   357.14286805
 C    123 122 121     2.629644869156   119.81207945   178.56870361
 H    125 123 122     2.064329580466   119.78087590   179.56191659
 C    125 123 122     2.636008903459   120.09394559   359.27264814
 H    127 125 123     2.063831727040   120.00020040   181.01011031
 C    127 125 123     2.636765225495   119.87663844     1.01268544
 H    129 127 125     2.064114811994   120.07454830   180.49890594
 C    129 127 125     2.629117429118   120.55499079     0.39189979
 H    131 129 127     2.060712011365   120.51050892   180.49607974
 H    120 116 114     2.078774103072   117.89681285   355.77704394
 O     97  96  92     2.558545044293   122.43539661   359.88618062
 H    134  97  96     1.833475158319   110.94483631   339.94408910
 C     67  66  71     2.666835859975   125.84734640   185.78519129
 C    136  67  66     2.645941283256   120.92917105   121.42691632
 H    137 136  67     2.062458755320   120.04194180   359.21098460
 C    137 136  67     2.631218737501   119.62479803   181.91968560
 H    139 137 136     2.063861868788   119.58367137   178.96376002
 C    139 137 136     2.634397644031   120.24233816   359.05183172
 H    141 139 137     2.063600891023   120.02998746   180.38056098
 C    141 139 137     2.638259277625   119.95135295     0.21208383
 H    143 141 139     2.063564783789   119.92846461   180.93871383
 C    143 141 139     2.626583704210   120.27690621     1.03082096
 H    145 143 141     2.060576309996   120.75017366   180.55175440
 N     66  63  62     4.170032767647    84.63463209   188.52519418
 C    147  66  63     2.503184778184   127.73859476   278.84836476
 H    148 147  66     2.063855475383   116.63480621   343.56725330
 C    148 147  66     2.655682817774   123.80131044   160.02700623
 C    150 148 147     2.652866717843   116.33233630     4.64487771
 H    151 150 148     2.058454077959   120.21032906   177.94095344
 C    151 150 148     2.625146671197   119.78723197   357.19840972
 H    153 151 150     2.063762323213   120.67453863   180.29760828
 C    147  66  63     2.537333830386   110.74732902    82.24179331
 C    155 147  66     2.762275275029   117.15564945     9.98052553
 N    156 155 147     2.421600575663   120.74715165   356.15615778
 C    157 156 155     2.661631180858   120.38357885   184.20438698
 C    158 157 156     2.645770703665   118.94638898   218.31678936
 H    159 158 157     2.060055603790   120.00096993     0.14031410
 C    159 158 157     2.628297935500   119.70990194   177.54153314
 H    161 159 158     2.063432367886   119.44390047   181.71010754
 C    161 159 158     2.635398997061   120.40983145     1.81714696
 H    163 161 159     2.063799646877   120.15427736   179.54448028
 C    163 161 159     2.638197324063   119.88533073   359.95167596
 H    165 163 161     2.063689966676   120.08657316   178.70406620
 C    165 163 161     2.626702474906   120.16993709   358.95348923
 H    167 165 163     2.064943142116   119.91816258   178.34023146
 H    156 155 147     2.077650612744   117.70835465   176.35582972
 C    150 148 147     2.784974040513   120.04212172   185.34716676
 C    170 150 148     2.612277909055   121.23487269   323.14792757
 H    171 170 150     2.064498047662   119.79741496   358.88804286
 C    171 170 150     2.667419454104   122.23795074   182.42330417
 C    173 171 170     2.700105513219   119.15584395     0.00000000
 C    174 173 171     2.682249748570   118.38694576   175.82705819
 H    175 174 173     2.064243914493   119.12147069   183.07565717
 C    175 174 173     2.599459861387   120.51148356     0.76727152
 H    177 175 174     2.061189161081   119.76746384   182.65519906
 C    177 175 174     2.670498665058   121.18323760     0.34592421
 H    179 177 175     2.063449492528   119.93243069   180.98688168
 C    179 177 175     2.596526164608   119.55956672   358.76412007
 H    181 179 177     2.064912255215   120.52059037   182.39370587
 C    174 173 171     2.694538766197   119.09052379   358.53510182
 C    183 174 173     2.625240328223   119.69392050     0.59929516
 O    184 183 174     2.533267813845   121.10053034   180.11452425
 H    185 184 183     1.835576664781   109.03969626     3.56863881
 C    183 174 173     2.811103179411   122.42214667   172.68927718
 C    187 183 174     2.622086832873   121.44088712    77.71043144
 C    188 187 183     2.707180041895   120.91885464   178.73410705
 C    189 188 187     2.614257064477   118.17618545   357.69328130
 H    190 189 188     2.064223630581   119.51303333   178.65648584
 C    190 189 188     2.663365472113   122.91064995     2.19704250
 C    192 190 189     2.681489349056   121.46122316   178.58855058
 H    193 192 190     2.065408646541   119.02062752     1.72692914
 C    193 192 190     2.596522623146   120.52671451   182.19228053
 H    195 193 192     2.063510582816   120.39483810   179.83533545
 C    195 193 192     2.669361003570   119.70072213     0.71787645
 H    197 195 193     2.064697737606   119.34784394   178.39298592
 C    197 195 193     2.603809650179   121.02402384   359.15947079
 H    199 197 195     2.062466754650   119.79115265   178.67420095
 C    199 197 195     2.677908607892   120.64302805   359.91170444
 C    189 188 187     2.783790595133   123.10520702   175.34207810
 C    202 189 188     2.650688643516   121.46906326   150.27032899
 H    203 202 189     2.063459114801   120.15932128   355.11828453
 C    203 202 189     2.624689315734   120.48404199   175.90494019
 H    205 203 202     2.063568634219   120.90075088   179.31471354
 C    205 203 202     2.633577305251   118.76484725   359.89488156
 N    207 205 203     2.537956560319   121.19169497   359.59739446
 C    208 207 205     2.502995880949   120.09034904     0.90366637
 H    209 208 207     2.058749576115   116.85201210   179.27932488
 C    207 205 203     2.762950414625   121.93655043   176.98841397
 N    211 207 205     2.417546333540   120.53605769   182.36587724
 C    212 211 207     2.666895588272   119.70784606   177.44095862
 C    213 212 211     2.645650150163   121.52773765    47.45160649
 H    214 213 212     2.062747542632   119.92068398     2.74196134
 C    214 213 212     2.630569167060   119.76640275   180.59123734
 H    216 214 213     2.064061282907   119.59894616   180.66354937
 C    216 214 213     2.634741084811   120.37224786     0.94737798
 H    218 216 214     2.063856773098   120.08727864   179.39218609
 C    218 216 214     2.637149226148   119.78617929   359.96529983
 H    220 218 216     2.064291799304   119.90346860   178.29636742
 C    220 218 216     2.628947231733   120.24724464   358.87710170
 H    222 220 218     2.061122457731   120.56969061   177.90958792
 H    211 207 205     2.078940231697   117.82673428   359.01764128
 O    188 187 183     2.552503769956   121.98537110   359.39291724
 H    225 188 187     1.832737590174   111.09417509   342.28471585
 N     66  63  62     4.102267137006    76.48719199     2.73589939
 C    227  66  63     2.418265529380   113.68225642   353.11810243
 H    228 227  66     2.078030106207   121.33428164   184.39672231
 C    227  66  63     2.667356798867   126.67083177   178.77612302
 C    230 227  66     2.643555733619   118.23214672   306.53052998
 H    231 230 227     2.061062604797   119.29202007   359.15952959
 C    231 230 227     2.628242384519   119.84541961   182.51102208
 H    233 231 230     2.064448593526   119.86777640   177.87771940
 C    233 231 230     2.636367928318   120.17955303   358.53129070
 H    235 233 231     2.063622721187   120.09389746   180.58727596
 C    235 233 231     2.636105222585   119.89890125     1.03246954
 H    237 235 233     2.063883739448   120.00249152   180.09909861
 C    237 235 233     2.629131310653   120.33569825     0.10870397
 H    239 237 235     2.063976643911   120.26566960   181.65640985
 O     43  42  38     2.534516337508   122.04260550     4.68857313
 H    241  43  42     1.834046671351   109.23657656     0.86465967

---------------------
BASIS SET INFORMATION
---------------------
There are 5 groups of distinct atoms

 Group   1 Type Zn  : 17s12p7d1f contracted to 6s5p4d1f pattern {842111/63111/4111/1}
 Group   2 Type N   : 11s6p2d1f contracted to 5s3p2d1f pattern {62111/411/11/1}
 Group   3 Type C   : 11s6p2d1f contracted to 5s3p2d1f pattern {62111/411/11/1}
 Group   4 Type H   : 5s1p contracted to 3s1p pattern {311/1}
 Group   5 Type O   : 11s6p2d1f contracted to 5s3p2d1f pattern {62111/411/11/1}

Atom   0Zn   basis set group =>   1
Atom   1N    basis set group =>   2
Atom   2C    basis set group =>   3
Atom   3H    basis set group =>   4
Atom   4C    basis set group =>   3
Atom   5C    basis set group =>   3
Atom   6H    basis set group =>   4
Atom   7C    basis set group =>   3
Atom   8H    basis set group =>   4
Atom   9C    basis set group =>   3
Atom  10C    basis set group =>   3
Atom  11N    basis set group =>   2
Atom  12C    basis set group =>   3
Atom  13C    basis set group =>   3
Atom  14H    basis set group =>   4
Atom  15C    basis set group =>   3
Atom  16H    basis set group =>   4
Atom  17C    basis set group =>   3
Atom  18H    basis set group =>   4
Atom  19C    basis set group =>   3
Atom  20H    basis set group =>   4
Atom  21C    basis set group =>   3
Atom  22H    basis set group =>   4
Atom  23H    basis set group =>   4
Atom  24C    basis set group =>   3
Atom  25C    basis set group =>   3
Atom  26H    basis set group =>   4
Atom  27C    basis set group =>   3
Atom  28C    basis set group =>   3
Atom  29H    basis set group =>   4
Atom  30C    basis set group =>   3
Atom  31H    basis set group =>   4
Atom  32C    basis set group =>   3
Atom  33H    basis set group =>   4
Atom  34C    basis set group =>   3
Atom  35H    basis set group =>   4
Atom  36C    basis set group =>   3
Atom  37C    basis set group =>   3
Atom  38C    basis set group =>   3
Atom  39O    basis set group =>   5
Atom  40H    basis set group =>   4
Atom  41C    basis set group =>   3
Atom  42C    basis set group =>   3
Atom  43C    basis set group =>   3
Atom  44C    basis set group =>   3
Atom  45H    basis set group =>   4
Atom  46C    basis set group =>   3
Atom  47C    basis set group =>   3
Atom  48H    basis set group =>   4
Atom  49C    basis set group =>   3
Atom  50H    basis set group =>   4
Atom  51C    basis set group =>   3
Atom  52H    basis set group =>   4
Atom  53C    basis set group =>   3
Atom  54H    basis set group =>   4
Atom  55C    basis set group =>   3
Atom  56C    basis set group =>   3
Atom  57C    basis set group =>   3
Atom  58H    basis set group =>   4
Atom  59C    basis set group =>   3
Atom  60H    basis set group =>   4
Atom  61C    basis set group =>   3
Atom  62N    basis set group =>   2
Atom  63C    basis set group =>   3
Atom  64H    basis set group =>   4
Atom  65Zn   basis set group =>   1
Atom  66N    basis set group =>   2
Atom  67C    basis set group =>   3
Atom  68H    basis set group =>   4
Atom  69C    basis set group =>   3
Atom  70N    basis set group =>   2
Atom  71C    basis set group =>   3
Atom  72H    basis set group =>   4
Atom  73C    basis set group =>   3
Atom  74C    basis set group =>   3
Atom  75H    basis set group =>   4
Atom  76C    basis set group =>   3
Atom  77H    basis set group =>   4
Atom  78C    basis set group =>   3
Atom  79C    basis set group =>   3
Atom  80H    basis set group =>   4
Atom  81C    basis set group =>   3
Atom  82C    basis set group =>   3
Atom  83C    basis set group =>   3
Atom  84H    basis set group =>   4
Atom  85C    basis set group =>   3
Atom  86H    basis set group =>   4
Atom  87C    basis set group =>   3
Atom  88H    basis set group =>   4
Atom  89C    basis set group =>   3
Atom  90H    basis set group =>   4
Atom  91C    basis set group =>   3
Atom  92C    basis set group =>   3
Atom  93O    basis set group =>   5
Atom  94H    basis set group =>   4
Atom  95C    basis set group =>   3
Atom  96C    basis set group =>   3
Atom  97C    basis set group =>   3
Atom  98C    basis set group =>   3
Atom  99H    basis set group =>   4
Atom 100C    basis set group =>   3
Atom 101C    basis set group =>   3
Atom 102H    basis set group =>   4
Atom 103C    basis set group =>   3
Atom 104H    basis set group =>   4
Atom 105C    basis set group =>   3
Atom 106H    basis set group =>   4
Atom 107C    basis set group =>   3
Atom 108H    basis set group =>   4
Atom 109C    basis set group =>   3
Atom 110C    basis set group =>   3
Atom 111C    basis set group =>   3
Atom 112H    basis set group =>   4
Atom 113C    basis set group =>   3
Atom 114H    basis set group =>   4
Atom 115C    basis set group =>   3
Atom 116N    basis set group =>   2
Atom 117C    basis set group =>   3
Atom 118H    basis set group =>   4
Atom 119C    basis set group =>   3
Atom 120N    basis set group =>   2
Atom 121C    basis set group =>   3
Atom 122C    basis set group =>   3
Atom 123H    basis set group =>   4
Atom 124C    basis set group =>   3
Atom 125H    basis set group =>   4
Atom 126C    basis set group =>   3
Atom 127H    basis set group =>   4
Atom 128C    basis set group =>   3
Atom 129H    basis set group =>   4
Atom 130C    basis set group =>   3
Atom 131H    basis set group =>   4
Atom 132H    basis set group =>   4
Atom 133O    basis set group =>   5
Atom 134H    basis set group =>   4
Atom 135C    basis set group =>   3
Atom 136C    basis set group =>   3
Atom 137H    basis set group =>   4
Atom 138C    basis set group =>   3
Atom 139H    basis set group =>   4
Atom 140C    basis set group =>   3
Atom 141H    basis set group =>   4
Atom 142C    basis set group =>   3
Atom 143H    basis set group =>   4
Atom 144C    basis set group =>   3
Atom 145H    basis set group =>   4
Atom 146N    basis set group =>   2
Atom 147C    basis set group =>   3
Atom 148H    basis set group =>   4
Atom 149C    basis set group =>   3
Atom 150C    basis set group =>   3
Atom 151H    basis set group =>   4
Atom 152C    basis set group =>   3
Atom 153H    basis set group =>   4
Atom 154C    basis set group =>   3
Atom 155C    basis set group =>   3
Atom 156N    basis set group =>   2
Atom 157C    basis set group =>   3
Atom 158C    basis set group =>   3
Atom 159H    basis set group =>   4
Atom 160C    basis set group =>   3
Atom 161H    basis set group =>   4
Atom 162C    basis set group =>   3
Atom 163H    basis set group =>   4
Atom 164C    basis set group =>   3
Atom 165H    basis set group =>   4
Atom 166C    basis set group =>   3
Atom 167H    basis set group =>   4
Atom 168H    basis set group =>   4
Atom 169C    basis set group =>   3
Atom 170C    basis set group =>   3
Atom 171H    basis set group =>   4
Atom 172C    basis set group =>   3
Atom 173C    basis set group =>   3
Atom 174C    basis set group =>   3
Atom 175H    basis set group =>   4
Atom 176C    basis set group =>   3
Atom 177H    basis set group =>   4
Atom 178C    basis set group =>   3
Atom 179H    basis set group =>   4
Atom 180C    basis set group =>   3
Atom 181H    basis set group =>   4
Atom 182C    basis set group =>   3
Atom 183C    basis set group =>   3
Atom 184O    basis set group =>   5
Atom 185H    basis set group =>   4
Atom 186C    basis set group =>   3
Atom 187C    basis set group =>   3
Atom 188C    basis set group =>   3
Atom 189C    basis set group =>   3
Atom 190H    basis set group =>   4
Atom 191C    basis set group =>   3
Atom 192C    basis set group =>   3
Atom 193H    basis set group =>   4
Atom 194C    basis set group =>   3
Atom 195H    basis set group =>   4
Atom 196C    basis set group =>   3
Atom 197H    basis set group =>   4
Atom 198C    basis set group =>   3
Atom 199H    basis set group =>   4
Atom 200C    basis set group =>   3
Atom 201C    basis set group =>   3
Atom 202C    basis set group =>   3
Atom 203H    basis set group =>   4
Atom 204C    basis set group =>   3
Atom 205H    basis set group =>   4
Atom 206C    basis set group =>   3
Atom 207N    basis set group =>   2
Atom 208C    basis set group =>   3
Atom 209H    basis set group =>   4
Atom 210C    basis set group =>   3
Atom 211N    basis set group =>   2
Atom 212C    basis set group =>   3
Atom 213C    basis set group =>   3
Atom 214H    basis set group =>   4
Atom 215C    basis set group =>   3
Atom 216H    basis set group =>   4
Atom 217C    basis set group =>   3
Atom 218H    basis set group =>   4
Atom 219C    basis set group =>   3
Atom 220H    basis set group =>   4
Atom 221C    basis set group =>   3
Atom 222H    basis set group =>   4
Atom 223H    basis set group =>   4
Atom 224O    basis set group =>   5
Atom 225H    basis set group =>   4
Atom 226N    basis set group =>   2
Atom 227C    basis set group =>   3
Atom 228H    basis set group =>   4
Atom 229C    basis set group =>   3
Atom 230C    basis set group =>   3
Atom 231H    basis set group =>   4
Atom 232C    basis set group =>   3
Atom 233H    basis set group =>   4
Atom 234C    basis set group =>   3
Atom 235H    basis set group =>   4
Atom 236C    basis set group =>   3
Atom 237H    basis set group =>   4
Atom 238C    basis set group =>   3
Atom 239H    basis set group =>   4
Atom 240O    basis set group =>   5
Atom 241H    basis set group =>   4

-------------------------
BASIS SET IN INPUT FORMAT
-------------------------

 # Basis set for element : H 
 NewGTO H 
 S 3 
   1      34.0613410000      0.0254393072
   2       5.1235746000      0.1900859489
   3       1.1646626000      0.8524411301
 S 1 
   1       0.3272304100      1.0000000000
 S 1 
   1       0.1030724100      1.0000000000
 P 1 
   1       0.8000000000      1.0000000000
  end;

 # Basis set for element : C 
 NewGTO C 
 S 6 
   1   13575.3496820000      0.0006064549
   2    2035.2333680000      0.0046979088
   3     463.2256235900      0.0243324776
   4     131.2001959800      0.0973999683
   5      42.8530158910      0.3019558425
   6      15.5841857660      0.6623360915
 S 2 
   1       6.2067138508      0.6559530854
   2       2.5764896527      0.3758563329
 S 1 
   1       0.5769633942      1.0000000000
 S 1 
   1       0.2297283136      1.0000000000
 S 1 
   1       0.0951644400      1.0000000000
 P 4 
   1      34.6972322440      0.0113272200
   2       7.9582622826      0.0761696592
   3       2.3780826883      0.3019225220
   4       0.8143320818      0.7278502735
 P 1 
   1       0.2888754725      1.0000000000
 P 1 
   1       0.1005682367      1.0000000000
 D 1 
   1       1.0970000000      1.0000000000
 D 1 
   1       0.3180000000      1.0000000000
 F 1 
   1       0.7610000000      1.0000000000
  end;

 # Basis set for element : N 
 NewGTO N 
 S 6 
   1   19730.8006470000      0.0005862639
   2    2957.8958745000      0.0045428821
   3     673.2213359500      0.0235584136
   4     190.6824949400      0.0947091933
   5      62.2954418980      0.2971978492
   6      22.6541611820      0.6691624689
 S 2 
   1       8.9791477428      0.6459668363
   2       3.6863002370      0.3870057440
 S 1 
   1       0.8466007680      1.0000000000
 S 1 
   1       0.3364713377      1.0000000000
 S 1 
   1       0.1364765367      1.0000000000
 P 4 
   1      49.2003805100      0.0114488252
   2      11.3467905370      0.0784223379
   3       3.4273972411      0.3081809474
   4       1.1785525134      0.7202719637
 P 1 
   1       0.4164220497      1.0000000000
 P 1 
   1       0.1426082601      1.0000000000
 D 1 
   1       1.6540000000      1.0000000000
 D 1 
   1       0.4690000000      1.0000000000
 F 1 
   1       1.0930000000      1.0000000000
  end;

 # Basis set for element : O 
 NewGTO O 
 S 6 
   1   27032.3826310000      0.0005722733
   2    4052.3871392000      0.0044353233
   3     922.3272271000      0.0230201076
   4     261.2407098900      0.0928224906
   5      85.3546413510      0.2937850002
   6      31.0350352450      0.6740160450
 S 2 
   1      12.2608607280      0.6383993702
   2       4.9987076005      0.3953458713
 S 1 
   1       1.1703108158      1.0000000000
 S 1 
   1       0.4647474099      1.0000000000
 S 1 
   1       0.1850453636      1.0000000000
 P 4 
   1      63.2749548010      0.0120183321
   2      14.6270493790      0.0830054217
   3       4.4501223456      0.3199174393
   4       1.5275799647      0.7071554292
 P 1 
   1       0.5293511794      1.0000000000
 P 1 
   1       0.1747842127      1.0000000000
 D 1 
   1       2.3140000000      1.0000000000
 D 1 
   1       0.6450000000      1.0000000000
 F 1 
   1       1.4280000000      1.0000000000
  end;

 # Basis set for element : Zn
 NewGTO Zn
 S 8 
   1  405924.3102800000      0.0002374974
   2   60846.9557350000      0.0018416121
   3   13847.3430920000      0.0095787629
   4    3919.6158551000      0.0389627189
   5    1276.3594167000      0.1270438301
   6     458.6725443500      0.3024120860
[...]
134 H      0.6476     1.0000     0.3524     0.9108     0.9108    -0.0000
135 C      5.7690     6.0000     0.2310     3.6966     3.6966    -0.0000
136 C      6.1916     6.0000    -0.1916     4.0146     4.0146    -0.0000
137 H      0.8622     1.0000     0.1378     0.9930     0.9930     0.0000
138 C      6.1177     6.0000    -0.1177     3.9673     3.9673    -0.0000
139 H      0.8410     1.0000     0.1590     0.9638     0.9638    -0.0000
140 C      6.1254     6.0000    -0.1254     3.9666     3.9666    -0.0000
141 H      0.8350     1.0000     0.1650     0.9619     0.9619    -0.0000
142 C      6.0668     6.0000    -0.0668     3.9008     3.9008    -0.0000
143 H      0.8494     1.0000     0.1506     0.9637     0.9637     0.0000
144 C      6.2836     6.0000    -0.2836     4.1210     4.1210    -0.0000
145 H      0.8762     1.0000     0.1238     0.9703     0.9703    -0.0000
146 N      7.1651     7.0000    -0.1651     2.9803     2.9803    -0.0000
147 C      6.1623     6.0000    -0.1623     4.0046     4.0046    -0.0000
148 H      0.8525     1.0000     0.1475     0.9880     0.9880    -0.0000
149 C      5.8496     6.0000     0.1504     3.6123     3.6123    -0.0000
150 C      6.1588     6.0000    -0.1588     3.9004     3.9004    -0.0000
151 H      0.8285     1.0000     0.1715     0.9798     0.9798    -0.0000
152 C      6.2032     6.0000    -0.2032     3.9138     3.9138    -0.0000
153 H      0.8302     1.0000     0.1698     0.9633     0.9633     0.0000
154 C      5.6502     6.0000     0.3498     3.6916     3.6916    -0.0000
155 C      6.2345     6.0000    -0.2345     4.0007     4.0007    -0.0000
156 N      7.0575     7.0000    -0.0575     3.0984     3.0984    -0.0000
157 C      5.7196     6.0000     0.2804     3.7033     3.7033    -0.0000
158 C      6.2040     6.0000    -0.2040     4.0860     4.0860    -0.0000
159 H      0.8266     1.0000     0.1734     0.9719     0.9719    -0.0000
160 C      6.1342     6.0000    -0.1342     3.9512     3.9512    -0.0000
161 H      0.8526     1.0000     0.1474     0.9705     0.9705     0.0000
162 C      6.1122     6.0000    -0.1122     3.9490     3.9490    -0.0000
163 H      0.8351     1.0000     0.1649     0.9615     0.9615    -0.0000
164 C      6.0916     6.0000    -0.0916     3.9554     3.9554    -0.0000
165 H      0.8403     1.0000     0.1597     0.9630     0.9630     0.0000
166 C      6.3269     6.0000    -0.3269     4.0672     4.0672     0.0000
167 H      0.8544     1.0000     0.1456     0.9700     0.9700     0.0000
168 H      0.8240     1.0000     0.1760     0.9609     0.9609    -0.0000
169 C      5.9304     6.0000     0.0696     3.6505     3.6505    -0.0000
170 C      6.3780     6.0000    -0.3780     3.8878     3.8878     0.0000
171 H      0.8585     1.0000     0.1415     0.9652     0.9652     0.0000
172 C      5.7565     6.0000     0.2435     3.6516     3.6516    -0.0000
173 C      5.8087     6.0000     0.1913     3.5657     3.5657    -0.0000
174 C      6.2931     6.0000    -0.2931     3.9139     3.9139    -0.0000
175 H      0.8681     1.0000     0.1319     0.9765     0.9765    -0.0000
176 C      6.0167     6.0000    -0.0167     3.9126     3.9126    -0.0000
177 H      0.8929     1.0000     0.1071     0.9699     0.9699    -0.0000
178 C      6.1138     6.0000    -0.1138     3.8952     3.8952    -0.0000
179 H      0.8548     1.0000     0.1452     0.9682     0.9682    -0.0000
180 C      6.3612     6.0000    -0.3612     3.8660     3.8660    -0.0000
181 H      0.8630     1.0000     0.1370     0.9731     0.9731    -0.0000
182 C      6.0669     6.0000    -0.0669     2.9043     2.9043     0.0000
183 C      5.8127     6.0000     0.1873     3.9449     3.9449    -0.0000
184 O      8.3945     8.0000    -0.3945     2.0861     2.0861    -0.0000
185 H      0.6551     1.0000     0.3449     0.9249     0.9249    -0.0000
186 C      6.1666     6.0000    -0.1666     2.9959     2.9959     0.0000
187 C      5.6444     6.0000     0.3556     3.7269     3.7269    -0.0000
188 C      5.9490     6.0000     0.0510     3.6343     3.6343    -0.0000
189 C      6.3287     6.0000    -0.3287     3.8633     3.8633     0.0000
190 H      0.8528     1.0000     0.1472     0.9656     0.9656     0.0000
191 C      5.8739     6.0000     0.1261     3.8715     3.8715    -0.0000
192 C      6.2282     6.0000    -0.2282     3.9405     3.9405    -0.0000
193 H      0.8553     1.0000     0.1447     0.9675     0.9675    -0.0000
194 C      6.1080     6.0000    -0.1080     3.9402     3.9402    -0.0000
195 H      0.8385     1.0000     0.1615     0.9623     0.9623     0.0000
196 C      6.0968     6.0000    -0.0968     3.9307     3.9307     0.0000
197 H      0.8483     1.0000     0.1517     0.9655     0.9655     0.0000
198 C      6.2053     6.0000    -0.2053     3.9274     3.9274     0.0000
199 H      0.8579     1.0000     0.1421     0.9714     0.9714     0.0000
200 C      5.8691     6.0000     0.1309     3.6003     3.6003     0.0000
201 C      5.8067     6.0000     0.1933     3.5497     3.5497     0.0000
202 C      6.2893     6.0000    -0.2893     3.9654     3.9654    -0.0000
203 H      0.8190     1.0000     0.1810     0.9618     0.9618    -0.0000
204 C      6.1719     6.0000    -0.1719     3.9217     3.9217    -0.0000
205 H      0.8303     1.0000     0.1697     0.9634     0.9634    -0.0000
206 C      5.6901     6.0000     0.3099     3.7939     3.7939    -0.0000
207 N      7.1444     7.0000    -0.1444     3.0454     3.0454    -0.0000
208 C      6.2068     6.0000    -0.2068     4.1171     4.1171    -0.0000
209 H      0.7954     1.0000     0.2046     0.9406     0.9406    -0.0000
210 C      6.1717     6.0000    -0.1717     3.9478     3.9478    -0.0000
211 N      7.0964     7.0000    -0.0964     3.0489     3.0489    -0.0000
212 C      5.6409     6.0000     0.3591     3.6423     3.6423    -0.0000
213 C      6.3140     6.0000    -0.3140     4.1144     4.1144    -0.0000
214 H      0.8192     1.0000     0.1808     0.9541     0.9541    -0.0000
215 C      6.0906     6.0000    -0.0906     3.9273     3.9273    -0.0000
216 H      0.8402     1.0000     0.1598     0.9634     0.9634     0.0000
217 C      6.1381     6.0000    -0.1381     3.9858     3.9858     0.0000
218 H      0.8352     1.0000     0.1648     0.9616     0.9616     0.0000
219 C      6.0756     6.0000    -0.0756     3.8883     3.8883     0.0000
220 H      0.8545     1.0000     0.1455     0.9668     0.9668     0.0000
221 C      6.3603     6.0000    -0.3603     4.0838     4.0838    -0.0000
222 H      0.8710     1.0000     0.1290     0.9790     0.9790    -0.0000
223 H      0.8253     1.0000     0.1747     0.9610     0.9610     0.0000
224 O      8.4308     8.0000    -0.4308     2.0335     2.0335    -0.0000
225 H      0.6563     1.0000     0.3437     0.9225     0.9225    -0.0000
226 N      7.0878     7.0000    -0.0878     3.0942     3.0942    -0.0000
227 C      6.1567     6.0000    -0.1567     3.9861     3.9861    -0.0000
228 H      0.8203     1.0000     0.1797     0.9592     0.9592    -0.0000
229 C      5.6934     6.0000     0.3066     3.6627     3.6627    -0.0000
230 C      6.3107     6.0000    -0.3107     4.1314     4.1314    -0.0000
231 H      0.8725     1.0000     0.1275     0.9711     0.9711    -0.0000
232 C      6.0968     6.0000    -0.0968     3.9164     3.9164    -0.0000
233 H      0.8492     1.0000     0.1508     0.9642     0.9642    -0.0000
234 C      6.1179     6.0000    -0.1179     3.9586     3.9586     0.0000
235 H      0.8341     1.0000     0.1659     0.9609     0.9609     0.0000
236 C      6.0963     6.0000    -0.0963     3.9459     3.9459     0.0000
237 H      0.8381     1.0000     0.1619     0.9629     0.9629    -0.0000
238 C      6.2702     6.0000    -0.2702     4.0632     4.0632     0.0000
239 H      0.8292     1.0000     0.1708     0.9625     0.9625     0.0000
240 O      8.3769     8.0000    -0.3769     2.1069     2.1069    -0.0000
241 H      0.6540     1.0000     0.3460     0.9215     0.9215    -0.0000

  Mayer bond orders larger than 0.100000
B(  0-Zn,  1-N ) :   0.3557 B(  0-Zn, 11-N ) :   0.4311 B(  0-Zn,116-N ) :   0.2827 
B(  0-Zn,120-N ) :   0.3709 B(  0-Zn,207-N ) :   0.2883 B(  0-Zn,211-N ) :   0.3345 
B(  1-N ,  2-C ) :   1.5030 B(  1-N ,  9-C ) :   1.1823 B(  1-N , 11-N ) :  -0.1105 
B(  2-C ,  3-H ) :   0.9329 B(  2-C ,  4-C ) :   1.2619 B(  4-C ,  5-C ) :   1.3156 
B(  4-C , 24-C ) :   0.8629 B(  5-C ,  6-H ) :   0.9447 B(  5-C ,  7-C ) :   1.4135 
B(  7-C ,  8-H ) :   0.9655 B(  7-C ,  9-C ) :   1.3517 B(  9-C , 10-C ) :   0.9771 
B( 10-C , 11-N ) :   1.6737 B( 10-C , 23-H ) :   0.9816 B( 11-N , 12-C ) :   0.8735 
B( 12-C , 13-C ) :   1.3641 B( 12-C , 21-C ) :   1.3710 B( 13-C , 14-H ) :   0.9696 
B( 13-C , 15-C ) :   1.4331 B( 15-C , 16-H ) :   0.9599 B( 15-C , 17-C ) :   1.3912 
B( 17-C , 18-H ) :   0.9540 B( 17-C , 19-C ) :   1.4146 B( 19-C , 20-H ) :   0.9556 
B( 19-C , 21-C ) :   1.4427 B( 21-C , 22-H ) :   0.9483 B( 24-C , 25-C ) :   1.3994 
B( 24-C , 38-C ) :   1.2813 B( 25-C , 26-H ) :   0.9504 B( 25-C , 27-C ) :   1.2617 
B( 27-C , 28-C ) :   1.2084 B( 27-C , 36-C ) :   1.2711 B( 28-C , 29-H ) :   0.9781 
B( 28-C , 30-C ) :   1.5416 B( 30-C , 31-H ) :   0.9527 B( 30-C , 32-C ) :   1.2757 
B( 32-C , 33-H ) :   0.9584 B( 32-C , 34-C ) :   1.5289 B( 34-C , 35-H ) :   0.9411 
B( 34-C , 36-C ) :   1.3398 B( 36-C , 37-C ) :   1.0239 B( 37-C , 38-C ) :   1.3655 
B( 37-C , 41-C ) :   0.6023 B( 38-C , 39-O ) :   1.0710 B( 39-O , 40-H ) :   0.8268 
B( 41-C , 42-C ) :   1.3543 B( 41-C , 53-C ) :  -0.1168 B( 41-C , 55-C ) :   1.0601 
B( 42-C , 43-C ) :   1.2782 B( 42-C ,240-O ) :   1.1666 B( 43-C , 44-C ) :   1.4348 
B( 43-C , 56-C ) :   0.8350 B( 44-C , 45-H ) :   0.9900 B( 44-C , 46-C ) :   1.1987 
B( 46-C , 47-C ) :   1.1240 B( 46-C , 55-C ) :   1.3113 B( 47-C , 48-H ) :   1.0064 
B( 47-C , 49-C ) :   1.4928 B( 49-C , 50-H ) :   0.9655 B( 49-C , 51-C ) :   1.2493 
B( 51-C , 52-H ) :   0.9443 B( 51-C , 53-C ) :   1.5557 B( 53-C , 54-H ) :   0.9479 
B( 53-C , 55-C ) :   1.3126 B( 56-C , 57-C ) :   1.2976 B( 56-C , 63-C ) :   1.3405 
B( 57-C , 58-H ) :   0.9544 B( 57-C , 59-C ) :   1.4140 B( 59-C , 60-H ) :   0.9636 
B( 59-C , 61-C ) :   1.3209 B( 61-C , 62-N ) :   1.2498 B( 61-C ,227-C ) :   1.0002 
B( 62-N , 63-C ) :   1.4307 B( 62-N , 65-Zn) :   0.3053 B( 63-C , 64-H ) :   0.9295 
B( 65-Zn, 66-N ) :   0.4258 B( 65-Zn, 70-N ) :   0.3470 B( 65-Zn,146-N ) :   0.3125 
B( 65-Zn,156-N ) :   0.3940 B( 65-Zn,226-N ) :   0.3561 B( 66-N , 67-C ) :   1.7094 
B( 66-N , 70-N ) :  -0.1010 B( 66-N ,135-C ) :   0.8700 B( 67-C , 68-H ) :   0.9850 
B( 67-C , 69-C ) :   0.9434 B( 69-C , 70-N ) :   1.1938 B( 69-C , 76-C ) :   1.3309 
B( 70-N , 71-C ) :   1.4584 B( 71-C , 72-H ) :   0.9491 B( 71-C , 73-C ) :   1.3355 
B( 73-C , 74-C ) :   1.2968 B( 73-C , 78-C ) :   0.8746 B( 74-C , 75-H ) :   0.9533 
B( 74-C , 76-C ) :   1.4052 B( 76-C , 77-H ) :   0.9673 B( 78-C , 79-C ) :   1.4149 
B( 78-C , 92-C ) :   1.2876 B( 79-C , 80-H ) :   0.9664 B( 79-C , 81-C ) :   1.2320 
B( 81-C , 82-C ) :   1.3188 B( 81-C , 89-C ) :   1.1214 B( 82-C , 83-C ) :   1.3065 
B( 82-C , 91-C ) :   1.0499 B( 83-C , 84-H ) :   0.9473 B( 83-C , 85-C ) :   1.5529 
B( 83-C , 91-C ) :  -0.1193 B( 85-C , 86-H ) :   0.9420 B( 85-C , 87-C ) :   1.2468 
B( 87-C , 88-H ) :   0.9653 B( 87-C , 89-C ) :   1.4944 B( 89-C , 90-H ) :   0.9996 
B( 91-C , 92-C ) :   1.3801 B( 91-C , 95-C ) :   0.6035 B( 92-C , 93-O ) :   1.1246 
B( 93-O , 94-H ) :   0.8280 B( 95-C , 96-C ) :   1.3584 B( 95-C , 97-C ) :   0.1010 
B( 95-C ,109-C ) :   1.0239 B( 96-C , 97-C ) :   1.2591 B( 96-C ,133-O ) :   1.0659 
B( 97-C , 98-C ) :   1.4020 B( 97-C ,110-C ) :   0.8331 B( 98-C , 99-H ) :   0.9715 
B( 98-C ,100-C ) :   1.2220 B(100-C ,101-C ) :   1.2134 B(100-C ,109-C ) :   1.2601 
B(101-C ,102-H ) :   0.9784 B(101-C ,103-C ) :   1.5378 B(103-C ,104-H ) :   0.9531 
B(103-C ,105-C ) :   1.2764 B(105-C ,106-H ) :   0.9589 B(105-C ,107-C ) :   1.5293 
B(107-C ,108-H ) :   0.9470 B(107-C ,109-C ) :   1.3331 B(110-C ,111-C ) :   1.3239 
B(110-C ,117-C ) :   1.2663 B(111-C ,112-H ) :   0.9515 B(111-C ,113-C ) :   1.4159 
B(113-C ,114-H ) :   0.9659 B(113-C ,115-C ) :   1.3490 B(115-C ,116-N ) :   1.1975 
B(115-C ,119-C ) :   0.9671 B(116-N ,117-C ) :   1.5238 B(116-N ,120-N ) :  -0.1013 
B(117-C ,118-H ) :   0.9420 B(119-C ,120-N ) :   1.6778 B(119-C ,132-H ) :   0.9792 
B(120-N ,121-C ) :   0.9069 B(121-C ,122-C ) :   1.3254 B(121-C ,130-C ) :   1.3992 
B(122-C ,123-H ) :   0.9717 B(122-C ,124-C ) :   1.4390 B(124-C ,125-H ) :   0.9541 
B(124-C ,126-C ) :   1.3995 B(126-C ,127-H ) :   0.9550 B(126-C ,128-C ) :   1.3884 
B(128-C ,129-H ) :   0.9790 B(128-C ,130-C ) :   1.4242 B(130-C ,131-H ) :   0.9318 
B(133-O ,134-H ) :   0.8300 B(135-C ,136-C ) :   1.3641 B(135-C ,144-C ) :   1.3726 
B(136-C ,137-H ) :   0.9474 B(136-C ,138-C ) :   1.4492 B(138-C ,139-H ) :   0.9520 
B(138-C ,140-C ) :   1.4115 B(140-C ,141-H ) :   0.9526 B(140-C ,142-C ) :   1.3923 
B(142-C ,143-H ) :   0.9589 B(142-C ,144-C ) :   1.4335 B(144-C ,145-H ) :   0.9728 
B(146-N ,147-C ) :   1.4555 B(146-N ,154-C ) :   1.2250 B(147-C ,148-H ) :   0.9430 
B(147-C ,149-C ) :   1.3281 B(149-C ,150-C ) :   1.3019 B(149-C ,169-C ) :   0.8988 
B(150-C ,151-H ) :   0.9530 B(150-C ,152-C ) :   1.4010 B(152-C ,153-H ) :   0.9684 
B(152-C ,154-C ) :   1.3103 B(154-C ,155-C ) :   0.9905 B(155-C ,156-N ) :   1.7008 
B(155-C ,168-H ) :   0.9606 B(156-N ,157-C ) :   0.9473 B(157-C ,158-C ) :   1.4088 
B(157-C ,166-C ) :   1.3203 B(158-C ,159-H ) :   0.9167 B(158-C ,160-C ) :   1.4341 
B(160-C ,161-H ) :   0.9708 B(160-C ,162-C ) :   1.3973 B(162-C ,163-H ) :   0.9541 
B(162-C ,164-C ) :   1.3943 B(164-C ,165-H ) :   0.9505 B(164-C ,166-C ) :   1.4675 
B(166-C ,167-H ) :   0.9677 B(169-C ,170-C ) :   1.4138 B(169-C ,183-C ) :   1.2774 
B(170-C ,171-H ) :   0.9662 B(170-C ,172-C ) :   1.2285 B(172-C ,173-C ) :   1.2861 
B(172-C ,180-C ) :   1.1090 B(173-C ,174-C ) :   1.2706 B(173-C ,182-C ) :   1.0759 
B(174-C ,175-H ) :   0.9698 B(174-C ,176-C ) :   1.5127 B(176-C ,177-H ) :   0.9588 
B(176-C ,178-C ) :   1.2506 B(178-C ,179-H ) :   0.9653 B(178-C ,180-C ) :   1.4963 
B(180-C ,181-H ) :   1.0179 B(182-C ,183-C ) :   1.3823 B(182-C ,186-C ) :   0.6022 
B(183-C ,184-O ) :   1.1099 B(184-O ,185-H ) :   0.8286 B(186-C ,187-C ) :   1.3388 
B(186-C ,188-C ) :   0.1071 B(186-C ,200-C ) :   1.0683 B(187-C ,188-C ) :   1.2630 
B(187-C ,224-O ) :   1.0619 B(188-C ,189-C ) :   1.4033 B(188-C ,201-C ) :   0.8621 
B(189-C ,190-H ) :   0.9465 B(189-C ,191-C ) :   1.2736 B(191-C ,192-C ) :   1.2013 
B(191-C ,200-C ) :   1.2695 B(192-C ,193-H ) :   0.9787 B(192-C ,194-C ) :   1.5410 
B(194-C ,195-H ) :   0.9533 B(194-C ,196-C ) :   1.2748 B(196-C ,197-H ) :   0.9590 
B(196-C ,198-C ) :   1.5323 B(198-C ,199-H ) :   0.9507 B(198-C ,200-C ) :   1.3084 
B(201-C ,202-C ) :   1.3219 B(201-C ,208-C ) :   1.2949 B(202-C ,203-H ) :   0.9491 
B(202-C ,204-C ) :   1.4123 B(204-C ,205-H ) :   0.9658 B(204-C ,206-C ) :   1.3337 
B(206-C ,207-N ) :   1.2200 B(206-C ,210-C ) :   0.9917 B(207-N ,208-C ) :   1.5049 
B(208-C ,209-H ) :   0.9178 B(210-C ,211-N ) :   1.6857 B(210-C ,223-H ) :   0.9565 
B(211-N ,212-C ) :   0.8848 B(212-C ,213-C ) :   1.3647 B(212-C ,221-C ) :   1.3434 
B(213-C ,214-H ) :   0.9437 B(213-C ,215-C ) :   1.4452 B(215-C ,216-H ) :   0.9525 
B(215-C ,217-C ) :   1.4062 B(217-C ,218-H ) :   0.9549 B(217-C ,219-C ) :   1.3962 
B(219-C ,220-H ) :   0.9706 B(219-C ,221-C ) :   1.4263 B(221-C ,222-H ) :   0.9658 
B(224-O ,225-H ) :   0.8369 B(226-N ,227-C ) :   1.7303 B(226-N ,229-C ) :   0.8554 
B(227-C ,228-H ) :   0.9492 B(229-C ,230-C ) :   1.3807 B(229-C ,238-C ) :   1.3504 
B(230-C ,231-H ) :   0.9609 B(230-C ,232-C ) :   1.4327 B(232-C ,233-H ) :   0.9629 
B(232-C ,234-C ) :   1.3945 B(234-C ,235-H ) :   0.9520 B(234-C ,236-C ) :   1.4026 
B(236-C ,237-H ) :   0.9522 B(236-C ,238-C ) :   1.4461 B(238-C ,239-H ) :   0.9448 
B(240-O ,241-H ) :   0.8319 

-------
TIMINGS
-------

Total SCF time: 0 days 8 hours 17 min 56 sec 

Total time                  ....   29876.529 sec
Sum of individual times     ....   29824.760 sec  ( 99.8%)

Fock matrix formation       ....   27874.699 sec  ( 93.3%)
  XC integration            ....     223.616 sec  (  0.8% of F)
    Basis function eval.    ....      18.496 sec  (  8.3% of XC)
    Density eval.           ....      90.140 sec  ( 40.3% of XC)
    XC-Functional eval.     ....       1.199 sec  (  0.5% of XC)
    XC-Potential eval.      ....      23.981 sec  ( 10.7% of XC)
Diagonalization             ....     198.454 sec  (  0.7%)
Density matrix formation    ....      16.287 sec  (  0.1%)
Population analysis         ....     119.071 sec  (  0.4%)
Initial guess               ....      19.397 sec  (  0.1%)
Orbital Transformation      ....       0.000 sec  (  0.0%)
Orbital Orthonormalization  ....       0.000 sec  (  0.0%)
DIIS solution               ....    1546.590 sec  (  5.2%)
Grid generation             ....      50.263 sec  (  0.2%)


-------------------------------------------------------------------------------
                          DFT DISPERSION CORRECTION                            
                                                                               
                                 DFTD4 V2.0                                    
-------------------------------------------------------------------------------
The PBE0 functional is recognized
Active option DFTDOPT                   ...         5   

-------------------------   ----------------
Dispersion correction           -0.473517998
-------------------------   ----------------


-------------------------   --------------------
FINAL SINGLE POINT ENERGY     -9745.591496548897
-------------------------   --------------------


                            ***************************************
                            *     ORCA property calculations      *
                            ***************************************

                                    ---------------------
                                    Active property flags
                                    ---------------------
   (+) Dipole Moment


------------------------------------------------------------------------------
                       ORCA ELECTRIC PROPERTIES CALCULATION
------------------------------------------------------------------------------

Dipole Moment Calculation                       ... on
Quadrupole Moment Calculation                   ... off
Polarizability Calculation                      ... off
GBWName                                         ... _zn1ld.gbw
Electron density file                           ... _zn1ld.scfp
The origin for moment calculation is the CENTER OF MASS  = ( 0.004952, -0.007512 -0.004348)

-------------
DIPOLE MOMENT
-------------
                                X             Y             Z
Electronic contribution:     -7.72510      -0.38379      -2.20605
Nuclear contribution   :      6.76742       0.80583       2.64536
                        -----------------------------------------
Total Dipole Moment    :     -0.95768       0.42205       0.43931
                        -----------------------------------------
Magnitude (a.u.)       :      1.13502
Magnitude (Debye)      :      2.88499



--------------------
Rotational spectrum 
--------------------
 
Rotational constants in cm-1:     0.000560     0.000169     0.000167 
Rotational constants in MHz :    16.785545     5.058786     5.001231 

 Dipole components along the rotational axes: 
x,y,z [a.u.] :    -0.957348     0.497221     0.352884 
x,y,z [Debye]:    -2.433384     1.263836     0.896961 

 

Timings for individual modules:

Sum of individual times         ...    29915.524 sec (= 498.592 min)
GTO integral calculation        ...       33.800 sec (=   0.563 min)   0.1 %
SCF iterations                  ...    29881.724 sec (= 498.029 min)  99.9 %
                             ****ORCA TERMINATED NORMALLY****
TOTAL RUN TIME: 0 days 8 hours 19 minutes 32 seconds 584 msec
