 Entering Gaussian System, Link 0=g16
 Input=trans_l1_ld_FINAL.com
 Output=trans_l1_ld_FINAL.log
 Initial command:
 /apps/gaussian/g16-c01-avx/g16/l1.exe "/rds/general/user/vposligu/home/work/Pd2L4_cages/New_Cages/opt/PBE0-def2svp-solvent/SP_FINAL/trans_l1_ld/Gau-3436236.inp" -scrdir="/rds/general/user/vposligu/home/work/Pd2L4_cages/New_Cages/opt/PBE0-def2svp-solvent/SP_FINAL/trans_l1_ld/"
 Entering Link 1 = /apps/gaussian/g16-c01-avx/g16/l1.exe PID=   3436237.
  
 Copyright (c) 1988-2019, Gaussian, Inc.  All Rights Reserved.
  
 This is part of the Gaussian(R) 16 program.  It is based on
 the Gaussian(R) 09 system (copyright 2009, Gaussian, Inc.),
 the Gaussian(R) 03 system (copyright 2003, Gaussian, Inc.),
 the Gaussian(R) 98 system (copyright 1998, Gaussian, Inc.),
 the Gaussian(R) 94 system (copyright 1995, Gaussian, Inc.),
 the Gaussian 92(TM) system (copyright 1992, Gaussian, Inc.),
 the Gaussian 90(TM) system (copyright 1990, Gaussian, Inc.),
 the Gaussian 88(TM) system (copyright 1988, Gaussian, Inc.),
 the Gaussian 86(TM) system (copyright 1986, Carnegie Mellon
 University), and the Gaussian 82(TM) system (copyright 1983,
 Carnegie Mellon University). Gaussian is a federally registered
 trademark of Gaussian, Inc.
  
 This software contains proprietary and confidential information,
 including trade secrets, belonging to Gaussian, Inc.
  
 This software is provided under written license and may be
 used, copied, transmitted, or stored only in accord with that
 written license.
  
 The following legend is applicable only to US Government
 contracts under FAR:
  
                    RESTRICTED RIGHTS LEGEND
  
 Use, reproduction and disclosure by the US Government is
 subject to restrictions as set forth in subparagraphs (a)
 and (c) of the Commercial Computer Software - Restricted
 Rights clause in FAR 52.227-19.
  
 Gaussian, Inc.
 340 Quinnipiac St., Bldg. 40, Wallingford CT 06492
  
  
 ---------------------------------------------------------------
 Warning -- This program may not be used in any manner that
 competes with the business of Gaussian, Inc. or will provide
 assistance to any competitor of Gaussian, Inc.  The licensee
 of this program is prohibited from giving any competitor of
 Gaussian, Inc. access to this program.  By using this program,
 the user acknowledges that Gaussian, Inc. is engaged in the
 business of creating and licensing software in the field of
 computational chemistry and represents and warrants to the
 licensee that it is not a competitor of Gaussian, Inc. and that
 it will not use this program in any manner prohibited above.
 ---------------------------------------------------------------
  

 Cite this work as:
 Gaussian 16, Revision C.01,
 M. J. Frisch, G. W. Trucks, H. B. Schlegel, G. E. Scuseria, 
 M. A. Robb, J. R. Cheeseman, G. Scalmani, V. Barone, 
 G. A. Petersson, H. Nakatsuji, X. Li, M. Caricato, A. V. Marenich, 
 J. Bloino, B. G. Janesko, R. Gomperts, B. Mennucci, H. P. Hratchian, 
 J. V. Ortiz, A. F. Izmaylov, J. L. Sonnenberg, D. Williams-Young, 
 F. Ding, F. Lipparini, F. Egidi, J. Goings, B. Peng, A. Petrone, 
 T. Henderson, D. Ranasinghe, V. G. Zakrzewski, J. Gao, N. Rega, 
 G. Zheng, W. Liang, M. Hada, M. Ehara, K. Toyota, R. Fukuda, 
 J. Hasegawa, M. Ishida, T. Nakajima, Y. Honda, O. Kitao, H. Nakai, 
 T. Vreven, K. Throssell, J. A. Montgomery, Jr., J. E. Peralta, 
 F. Ogliaro, M. J. Bearpark, J. J. Heyd, E. N. Brothers, K. N. Kudin, 
 V. N. Staroverov, T. A. Keith, R. Kobayashi, J. Normand, 
 K. Raghavachari, A. P. Rendell, J. C. Burant, S. S. Iyengar, 
 J. Tomasi, M. Cossi, J. M. Millam, M. Klene, C. Adamo, R. Cammi, 
 J. W. Ochterski, R. L. Martin, K. Morokuma, O. Farkas, 
 J. B. Foresman, and D. J. Fox, Gaussian, Inc., Wallingford CT, 2019.
 
 ******************************************
 Gaussian 16:  ES64L-G16RevC.01  3-Jul-2019
                 3-Jun-2023 
 ******************************************
 %chk=trans_l1_ld_FINAL.chk
 %nprocshared=48
 Will use up to   48 processors via shared memory.
 %mem=120GB
 ------------------------------------------------------------------
 # SP PBE1PBE/def2svp empiricaldispersion=GD3BJ scrf=(solvent=dmso)
 ------------------------------------------------------------------
 1/38=1,172=1/1;
 2/12=2,17=6,18=5,40=1/2;
 3/5=43,7=101,11=2,25=1,30=1,70=2201,72=21,74=-13,124=41/1,2,3;
 4//1;
 5/5=2,38=5,53=21/2;
 6/7=2,8=2,9=2,10=2,28=1/1;
 99/5=1,9=1/99;
 -----------
 trans_l1_ld
 -----------
 Symbolic Z-matrix:
 Charge =  4 Multiplicity = 1
 Pd                   -7.5065   -0.0612   -0.1076 
 Pd                    7.5062   -0.0616   -0.1075 
 C                    -5.0685    1.573    -0.5212 
 N                    -6.0728    1.3161    0.3336 
 C                    -6.126     1.9853    1.498 
 C                    -5.1793    2.932     1.8441 
 C                    -4.1107    3.2034    0.977 
 C                    -3.0531    4.158     1.35 
 C                    -3.384     5.3532    2.0234 
 C                    -2.4114    6.2598    2.4292 
 C                    -1.0917    5.9156    2.1732 
 O                     0.0001    6.6343    2.5492 
 C                     1.0918    5.9157    2.173 
 C                     2.4115    6.26      2.4287 
 C                     3.3842    5.3535    2.0229 
 C                     3.0532    4.1582    1.3495 
 C                     4.1109    3.2036    0.9766 
 C                     4.0793    2.4985   -0.2352 
 C                     5.0687    1.5731   -0.5215 
 N                     6.0729    1.3161    0.3334 
 C                     6.1261    1.9854    1.4977 
 C                     5.1794    2.9322    1.8437 
 C                     1.7151    3.8519    1.0761 
 C                     0.7244    4.7293    1.5116 
 C                    -0.7242    4.7293    1.5117 
 C                    -1.715     3.8517    1.0764 
 C                    -4.0791    2.4983   -0.2348 
 H                    -5.0681    1.02     -1.462 
 H                    -6.952     1.7433    2.1688 
 H                    -5.2597    3.4284    2.8118 
 H                    -4.4339    5.5843    2.2134 
 H                    -2.6686    7.1894    2.9378 
 H                     2.6688    7.1897    2.9374 
 H                     4.4341    5.5847    2.2127 
 H                     3.2963    2.6825   -0.9719 
 H                     5.0683    1.02     -1.4622 
 H                     6.9519    1.7433    2.1687 
 H                     5.2598    3.4286    2.8114 
 H                     1.4503    2.9187    0.5753 
 H                    -1.4502    2.9186    0.5756 
 H                    -3.296     2.6822   -0.9714 
 C                    -6.0433   -2.079    -1.6577 
 N                    -6.0389   -1.4135   -0.4904 
 C                    -5.0904   -1.691     0.4192 
 C                    -4.1088   -2.6401    0.1885 
 C                    -4.0956   -3.3476   -1.0215 
 C                    -3.0472   -4.3313   -1.3405 
 C                    -3.3792   -5.526    -2.0149 
 C                    -2.4103   -6.449    -2.3921 
 C                    -1.0917   -6.1169   -2.1141 
 O                    -0.0003   -6.8405   -2.4813 
 C                     1.0911   -6.1169   -2.1139 
 C                     2.4098   -6.449    -2.3919 
 C                     3.3786   -5.5261   -2.0145 
 C                     3.0466   -4.3314   -1.3402 
 C                     4.095    -3.3476   -1.0213 
 C                     5.1025   -3.0493   -1.9498 
 C                     6.0427   -2.0792   -1.6576 
 N                     6.0384   -1.4137   -0.4903 
 C                     5.0899   -1.691     0.4193 
 C                     4.1082   -2.64      0.1887 
 C                     1.7118   -4.0401   -1.0381 
 C                     0.7235   -4.9288   -1.4556 
 C                    -0.7241   -4.9288   -1.4556 
 C                    -1.7124   -4.0401   -1.0382 
 C                    -5.1031   -3.0492   -1.95 
 H                    -6.8253   -1.8183   -2.3724 
 H                    -5.1309   -1.1377    1.359 
 H                    -3.3722   -2.8437    0.9668 
 H                    -4.4266   -5.7392   -2.237 
 H                    -2.6682   -7.3758   -2.9056 
 H                     2.6677   -7.3759   -2.9053 
 H                     4.4261   -5.7393   -2.2365 
 H                     5.1392   -3.5458   -2.92 
 H                     6.8248   -1.8186   -2.3723 
 H                     5.1304   -1.1377    1.3591 
 H                     3.3715   -2.8435    0.967 
 H                     1.4463   -3.1052   -0.5407 
 H                    -1.447    -3.1052   -0.5408 
 H                    -5.1399   -3.5457   -2.9202 
 C                     10.911   -2.2909   -1.5093 
 C                     10.6786  -3.6058   -1.0322 
 C                     9.4846   -3.8342   -0.2859 
 C                     9.1287   -5.1575    0.1342 
 C                     9.9935   -6.1891   -0.1739 
 C                     11.2038  -5.9533   -0.8658 
 C                     11.5458  -4.692    -1.2969 
 C                     7.8061   -5.4074    0.7553 
 C                     7.4022   -4.7666    1.9373 
 C                     6.0977   -4.8798    2.3979 
 C                     5.1565   -5.6513    1.6897 
 C                     3.7885   -5.6484    2.073 
 C                     2.6051   -5.5555    2.3593 
 C                     1.2461   -5.3922    2.6785 
 C                     0.7022   -4.6477    3.7176 
 C                    -0.7035   -4.6477    3.7175 
 C                    -1.2474   -5.3921    2.6784 
 C                    -2.6063   -5.5553    2.3589 
 C                    -3.7897   -5.6481    2.0726 
 C                    -5.1577   -5.651     1.6892 
 C                    -6.0989   -4.8796    2.3975 
 C                    -7.4034   -4.7662    1.9369 
 C                    -7.8072   -5.4068    0.7548 
 C                    -9.1298   -5.1567    0.1335 
 C                    -9.4855   -3.8334   -0.2864 
 C                    -10.6794  -3.6048   -1.0328 
 C                    -10.9115  -2.2898   -1.5099 
 C                    -10.0094  -1.2907   -1.2555 
 N                    -8.8896   -1.5134   -0.51 
 C                    -8.6476   -2.728    -0.0455 
 C                    -11.5466  -4.6909   -1.2978 
 C                    -11.2048  -5.9523   -0.8668 
 C                    -9.9946   -6.1882   -0.1748 
 C                    -6.8884   -6.236     0.0948 
 C                    -5.5842   -6.3638    0.5542 
 S                    -0.0006   -6.104     1.7031 
 C                     5.583    -6.3643    0.5548 
 C                     6.8873   -6.2366    0.0954 
 C                     8.6468   -2.7287   -0.0453 
 N                     8.889    -1.5142   -0.5098 
 C                     10.009   -1.2917   -1.2551 
 H                     11.7999  -2.073    -2.1035 
 H                     9.7375   -7.2081    0.1241 
 H                     11.8671  -6.7961   -1.0722 
 H                     12.4692  -4.5189   -1.8531 
 H                     8.1156   -4.1554    2.4952 
 H                     5.7887   -4.3486    3.2998 
 H                     1.3204   -4.118     4.4422 
 H                    -1.3219   -4.1179    4.442 
 H                    -5.7899   -4.3485    3.2995 
 H                    -8.1168   -4.1551    2.4948 
 H                    -11.8003  -2.0717   -2.1042 
 H                    -10.1483  -0.2803   -1.64 
 H                    -7.7375   -2.8594    0.5356 
 H                    -12.4699  -4.5176   -1.8541 
 H                    -11.8682  -6.7949   -1.0734 
 H                    -9.7388   -7.2073    0.1231 
 H                    -7.1912   -6.752    -0.8192 
 H                    -4.8715   -6.989     0.0146 
 H                     4.8703   -6.9895    0.0152 
 H                     7.1901   -6.7529   -0.8184 
 H                     7.7365   -2.86      0.5356 
 H                     10.1481  -0.2814   -1.6396 
 C                     11.1318   1.9948    0.9469 
 C                     10.9224   3.3179    0.4821 
 C                     9.652     3.6204   -0.0921 
 C                     9.3273    4.9612   -0.479 
 C                     10.2988   5.9312   -0.3247 
 C                     11.5782   5.6189    0.1889 
 C                     11.8907   4.3427    0.5979 
 C                     7.9446    5.3127   -0.8831 
 C                     7.2828    4.7001   -1.9592 
 C                     5.9379    4.9488   -2.206 
 C                     5.2155    5.8326   -1.384 
 C                     3.818     6.0452   -1.5318 
 C                     2.6148    6.2517   -1.512 
 C                     1.2478    6.5526   -1.387 
 C                     0.7034    7.6324   -0.7054 
 C                    -0.7014    7.6324   -0.7053 
 C                    -1.246     6.5527   -1.3868 
 C                    -2.613     6.2518   -1.5116 
 C                    -3.8163    6.0455   -1.5312 
 C                    -5.2138    5.833    -1.3833 
 C                    -5.9363    4.9493   -2.2054 
 C                    -7.2812    4.7008   -1.9585 
 C                    -7.9429    5.3134   -0.8824 
 C                    -9.3258    4.9623   -0.4784 
 C                    -9.651     3.6215   -0.0919 
 C                    -10.9215   3.3194    0.4823 
 C                    -11.1315   1.9962    0.9468 
 C                    -10.1452   1.0539    0.8244 
 N                    -8.9547    1.3407    0.224 
 C                    -8.7233    2.5692   -0.2074 
 C                    -11.8895   4.3446    0.5982 
 C                    -11.5765   5.6207    0.1894 
 C                    -10.2969   5.9326   -0.324 
 C                    -7.2346    6.2398   -0.1026 
 C                    -5.8944    6.5008   -0.347 
 S                     0.0008    5.5316   -2.0337 
 C                     5.8962    6.5004   -0.3478 
 C                     7.2364    6.2392   -0.1033 
 C                     8.724     2.5684   -0.2076 
 N                     8.9549    1.3399    0.2241 
 C                     10.1452   1.0527    0.8246 
 H                     12.0762   1.7243    1.422 
 H                     10.0724   6.9627   -0.603 
 H                     12.3209   6.4148    0.277 
 H                     12.8699   4.1113    1.0216 
 H                     7.8258    4.0119   -2.6113 
 H                     5.4331    4.4462   -3.0328 
 H                     1.3225    8.3843   -0.2166 
 H                    -1.3204    8.3844   -0.2163 
 H                    -5.4316    4.4467   -3.0322 
 H                    -7.8244    4.0128   -2.6107 
 H                    -12.076    1.726     1.4217 
 H                    -10.2726   0.038     1.1977 
 H                    -7.7546    2.7543   -0.6651 
 H                    -12.8688   4.1134    1.0217 
 H                    -12.319    6.4169    0.2776 
 H                    -10.0702   6.9641   -0.6022 
 H                    -7.7353    6.7311    0.7346 
 H                    -5.3499    7.205     0.2842 
 H                     5.3519    7.2047    0.2834 
 H                     7.7372    6.7305    0.7339 
 H                     7.7553    2.7537   -0.6654 
 H                     10.2722   0.0369    1.1981 
 
 Stoichiometry    C120H72N8O2Pd2S2(4+)
 Framework group  C1[X(C120H72N8O2Pd2S2)]
 Deg. of freedom   612
 Full point group                 C1      NOp   1
 Largest Abelian subgroup         C1      NOp   1
 Largest concise Abelian subgroup C1      NOp   1
                         Standard orientation:                         
 ---------------------------------------------------------------------
 Center     Atomic      Atomic             Coordinates (Angstroms)
 Number     Number       Type             X           Y           Z
 ---------------------------------------------------------------------
      1         46           0       -7.506498   -0.061195   -0.107600
      2         46           0        7.506202   -0.061608   -0.107500
      3          6           0       -5.068496    1.573003   -0.521200
      4          7           0       -6.072797    1.316104    0.333600
      5          6           0       -6.125996    1.985304    1.498000
      6          6           0       -5.179295    2.932003    1.844100
      7          6           0       -4.110695    3.203402    0.977000
      8          6           0       -3.053094    4.158001    1.350000
      9          6           0       -3.383993    5.353201    2.023400
     10          6           0       -2.411392    6.259800    2.429200
     11          6           0       -1.091693    5.915599    2.173200
     12          8           0        0.000108    6.634298    2.549200
     13          6           0        1.091807    5.915697    2.173000
     14          6           0        2.411508    6.259996    2.428700
     15          6           0        3.384207    5.353495    2.022900
     16          6           0        3.053206    4.158196    1.349500
     17          6           0        4.110905    3.203595    0.976600
     18          6           0        4.079304    2.498495   -0.235200
     19          6           0        5.068704    1.573094   -0.521500
     20          7           0        6.072903    1.316093    0.333400
     21          6           0        6.126104    1.985393    1.497700
     22          6           0        5.179405    2.932194    1.843700
     23          6           0        1.715106    3.851897    1.076100
     24          6           0        0.724406    4.729298    1.511600
     25          6           0       -0.724194    4.729299    1.511700
     26          6           0       -1.714994    3.851700    1.076400
     27          6           0       -4.079096    2.498302   -0.234800
     28          1           0       -5.068097    1.020003   -1.462000
     29          1           0       -6.951996    1.743304    2.168800
     30          1           0       -5.259695    3.428403    2.811800
     31          1           0       -4.433893    5.584302    2.213400
     32          1           0       -2.668591    7.189401    2.937800
     33          1           0        2.668809    7.189696    2.937400
     34          1           0        4.434107    5.584694    2.212700
     35          1           0        3.296305    2.682495   -0.971900
     36          1           0        5.068303    1.019994   -1.462200
     37          1           0        6.951904    1.743292    2.168700
     38          1           0        5.259805    3.428594    2.811400
     39          1           0        1.450305    2.918697    0.575300
     40          1           0       -1.450195    2.918600    0.575600
     41          1           0       -3.295995    2.682201   -0.971400
     42          6           0       -6.043300   -2.078996   -1.657700
     43          7           0       -6.038899   -1.413496   -0.490400
     44          6           0       -5.090399   -1.690997    0.419200
     45          6           0       -4.108800   -2.640098    0.188500
     46          6           0       -4.095601   -3.347598   -1.021500
     47          6           0       -3.047202   -4.331299   -1.340500
     48          6           0       -3.379203   -5.525999   -2.014900
     49          6           0       -2.410303   -6.449000   -2.392100
     50          6           0       -1.091703   -6.116901   -2.114100
     51          8           0       -0.000304   -6.840502   -2.481300
     52          6           0        1.091097   -6.116903   -2.113900
     53          6           0        2.409797   -6.449004   -2.391900
     54          6           0        3.378597   -5.526105   -2.014500
     55          6           0        3.046598   -4.331404   -1.340200
     56          6           0        4.094999   -3.347605   -1.021300
     57          6           0        5.102500   -3.049306   -1.949800
     58          6           0        6.042700   -2.079207   -1.657600
     59          7           0        6.038401   -1.413707   -0.490300
     60          6           0        5.089901   -1.691006    0.419300
     61          6           0        4.108200   -2.640005    0.188700
     62          6           0        1.711799   -4.040103   -1.038100
     63          6           0        0.723498   -4.928802   -1.455600
     64          6           0       -0.724102   -4.928801   -1.455600
     65          6           0       -1.712401   -4.040100   -1.038200
     66          6           0       -5.103100   -3.049197   -1.950000
     67          1           0       -6.825299   -1.818296   -2.372400
     68          1           0       -5.130899   -1.137697    1.359000
     69          1           0       -3.372200   -2.843699    0.966800
     70          1           0       -4.426603   -5.739198   -2.237000
     71          1           0       -2.668204   -7.375799   -2.905600
     72          1           0        2.667696   -7.375904   -2.905300
     73          1           0        4.426097   -5.739306   -2.236500
     74          1           0        5.139199   -3.545806   -2.920000
     75          1           0        6.824801   -1.818608   -2.372300
     76          1           0        5.130401   -1.137706    1.359100
     77          1           0        3.371500   -2.843505    0.967000
     78          1           0        1.446300   -3.105203   -0.540700
     79          1           0       -1.447000   -3.105200   -0.540800
     80          1           0       -5.139901   -3.545697   -2.920200
     81          6           0       10.911000   -2.290911   -1.509300
     82          6           0       10.678599   -3.605811   -1.032200
     83          6           0        9.484599   -3.834210   -0.285900
     84          6           0        9.128698   -5.157510    0.134200
     85          6           0        9.993497   -6.189110   -0.173900
     86          6           0       11.203797   -5.953312   -0.865800
     87          6           0       11.545798   -4.692012   -1.296900
     88          6           0        7.806097   -5.407409    0.755300
     89          6           0        7.402198   -4.766608    1.937300
     90          6           0        6.097698   -4.879807    2.397900
     91          6           0        5.156497   -5.651306    1.689700
     92          6           0        3.788497   -5.648405    2.073000
     93          6           0        2.605097   -5.555504    2.359300
     94          6           0        1.246097   -5.392203    2.678500
     95          6           0        0.702198   -4.647702    3.717600
     96          6           0       -0.703502   -4.647701    3.717500
     97          6           0       -1.247403   -5.392101    2.678400
     98          6           0       -2.606303   -5.555299    2.358900
     99          6           0       -3.789703   -5.648098    2.072600
    100          6           0       -5.157703   -5.650997    1.689200
    101          6           0       -6.098902   -4.879596    2.397500
    102          6           0       -7.403402   -4.766195    1.936900
    103          6           0       -7.807203   -5.406795    0.754800
    104          6           0       -9.129802   -5.156694    0.133500
    105          6           0       -9.485501   -3.833393   -0.286400
    106          6           0      -10.679401   -3.604792   -1.032800
    107          6           0      -10.911500   -2.289792   -1.509900
    108          6           0      -10.009399   -1.290693   -1.255500
    109          7           0       -8.889599   -1.513394   -0.510000
    110          6           0       -8.647600   -2.727994   -0.045500
    111          6           0      -11.546602   -4.690892   -1.297800
    112          6           0      -11.204803   -5.952292   -0.866800
    113          6           0       -9.994603   -6.188193   -0.174800
    114          6           0       -6.888403   -6.235996    0.094800
    115          6           0       -5.584203   -6.363797    0.554200
    116         16           0       -0.000603   -6.104002    1.703100
    117          6           0        5.582997   -6.364307    0.554800
    118          6           0        6.887297   -6.236608    0.095400
    119          6           0        8.646800   -2.728709   -0.045300
    120          7           0        8.889001   -1.514210   -0.509800
    121          6           0       10.009001   -1.291711   -1.255100
    122          1           0       11.799900   -2.073012   -2.103500
    123          1           0        9.737496   -7.208110    0.124100
    124          1           0       11.867096   -6.796112   -1.072200
    125          1           0       12.469198   -4.518913   -1.853100
    126          1           0        8.115599   -4.155409    2.495200
    127          1           0        5.788698   -4.348607    3.299800
    128          1           0        1.320399   -4.118003    4.442200
    129          1           0       -1.321901   -4.117901    4.442000
    130          1           0       -5.789902   -4.348497    3.299500
    131          1           0       -8.116801   -4.155095    2.494800
    132          1           0      -11.800300   -2.071691   -2.104200
    133          1           0      -10.148298   -0.280293   -1.640000
    134          1           0       -7.737500   -2.859395    0.535600
    135          1           0      -12.469902   -4.517591   -1.854100
    136          1           0      -11.868204   -6.794891   -1.073400
    137          1           0       -9.738804   -7.207293    0.123100
    138          1           0       -7.191204   -6.751995   -0.819200
    139          1           0       -4.871504   -6.988997    0.014600
    140          1           0        4.870296   -6.989506    0.015200
    141          1           0        7.190096   -6.752908   -0.818400
    142          1           0        7.736500   -2.860009    0.535600
    143          1           0       10.148102   -0.281411   -1.639600
    144          6           0       11.131804    1.994789    0.946900
    145          6           0       10.922405    3.317889    0.482100
    146          6           0        9.652005    3.620390   -0.092100
    147          6           0        9.327307    4.961190   -0.479000
    148          6           0       10.298807    5.931189   -0.324700
    149          6           0       11.578207    5.618888    0.188900
    150          6           0       11.890706    4.342688    0.597900
    151          6           0        7.944607    5.312691   -0.883100
    152          6           0        7.282806    4.700092   -1.959200
    153          6           0        5.937907    4.948793   -2.206000
    154          6           0        5.215507    5.832594   -1.384000
    155          6           0        3.818008    6.045195   -1.531800
    156          6           0        2.614808    6.251696   -1.512000
    157          6           0        1.247808    6.552597   -1.387000
    158          6           0        0.703409    7.632398   -0.705400
    159          6           0       -0.701391    7.632399   -0.705300
    160          6           0       -1.245992    6.552699   -1.386800
    161          6           0       -2.612992    6.251801   -1.511600
    162          6           0       -3.816292    6.045502   -1.531200
    163          6           0       -5.213793    5.833003   -1.383300
    164          6           0       -5.936293    4.949303   -2.205400
    165          6           0       -7.281194    4.700805   -1.958500
    166          6           0       -7.942893    5.313405   -0.882400
    167          6           0       -9.325793    4.962306   -0.478400
    168          6           0       -9.650995    3.621507   -0.091900
    169          6           0      -10.921495    3.319408    0.482300
    170          6           0      -11.131496    1.996208    0.946800
    171          6           0      -10.145197    1.053907    0.824400
    172          7           0       -8.954697    1.340706    0.224000
    173          6           0       -8.723296    2.569206   -0.207400
    174          6           0      -11.889494    4.344609    0.598200
    175          6           0      -11.576493    5.620708    0.189400
    176          6           0      -10.296893    5.932607   -0.324000
    177          6           0       -7.234592    6.239805   -0.102600
    178          6           0       -5.894392    6.500803   -0.347000
    179         16           0        0.000807    5.531598   -2.033700
    180          6           0        5.896208    6.500393   -0.347800
    181          6           0        7.236408    6.239192   -0.103300
    182          6           0        8.724004    2.568391   -0.207600
    183          7           0        8.954903    1.339890    0.224100
    184          6           0       10.145203    1.052689    0.824600
    185          1           0       12.076204    1.724288    1.422000
    186          1           0       10.072408    6.962689   -0.603000
    187          1           0       12.320908    6.414787    0.277000
    188          1           0       12.869906    4.111287    1.021600
    189          1           0        7.825806    4.011891   -2.611300
    190          1           0        5.433106    4.446194   -3.032800
    191          1           0        1.322510    8.384297   -0.216600
    192          1           0       -1.320390    8.384399   -0.216300
    193          1           0       -5.431594    4.446703   -3.032200
    194          1           0       -7.824394    4.012805   -2.610700
    195          1           0      -12.075996    1.726009    1.421700
    196          1           0      -10.272598    0.038007    1.197700
    197          1           0       -7.754595    2.754305   -0.665100
    198          1           0      -12.868794    4.113410    1.021700
    199          1           0      -12.318992    6.416909    0.277600
    200          1           0      -10.070192    6.964107   -0.602200
    201          1           0       -7.735292    6.731105    0.734600
    202          1           0       -5.349891    7.205003    0.284200
    203          1           0        5.351909    7.204694    0.283400
    204          1           0        7.737208    6.730491    0.733900
    205          1           0        7.755305    2.753691   -0.665400
    206          1           0       10.272202    0.036889    1.198100
 ---------------------------------------------------------------------
 Rotational constants (GHZ):           0.0119849           0.0053983           0.0039398
 Standard basis: def2SVP (5D, 7F)
 There are  2420 symmetry adapted cartesian basis functions of A   symmetry.
 There are  2278 symmetry adapted basis functions of A   symmetry.
  2278 basis functions,  3958 primitive gaussians,  2420 cartesian basis functions
   464 alpha electrons      464 beta electrons
       nuclear repulsion energy     29432.3219011541 Hartrees.
 NAtoms=  206 NActive=  206 NUniq=  206 SFac= 1.00D+00 NAtFMM=   60 NAOKFM=T Big=T
 Integral buffers will be    131072 words long.
 Raffenetti 2 integral format.
 Two-electron integral symmetry is turned on.
 Nuclear repulsion after empirical dispersion term =    29431.9381822852 Hartrees.
 ------------------------------------------------------------------------------
 Polarizable Continuum Model (PCM)
 =================================
 Model                : PCM.
 Atomic radii         : UFF (Universal Force Field).
 Polarization charges : Total charges.
 Charge compensation  : None.
 Solution method      : On-the-fly selection.
 Cavity type          : Scaled VdW (van der Waals Surface) (Alpha=1.100).
 Cavity algorithm     : GePol (No added spheres)
                        Default sphere list used, NSphG=  206.
                        Lebedev-Laikov grids with approx.  5.0 points / Ang**2.
                        Smoothing algorithm: York/Karplus (Gamma=1.0000).
                        Polarization charges: spherical gaussians, with
                                              point-specific exponents (IZeta= 3).
                        Self-potential: point-specific (ISelfS= 7).
                        Self-field    : sphere-specific E.n sum rule (ISelfD= 2).
 Solvent              : DiMethylSulfoxide, Eps=  46.826000 Eps(inf)=   2.007889
 ------------------------------------------------------------------------------
 One-electron integrals computed using PRISM.
   1 Symmetry operations used in ECPInt.
 ECPInt:  NShTT=  535095 NPrTT= 1990997 LenC2=  242092 LenP2D=  509952.
 LDataN:  DoStor=T MaxTD1= 7 Len=  274
 Number of processors reduced to  47 by ecpmxn.
 NBasis=  2278 RedAO= T EigKep=  2.08D-04  NBF=  2278
 NBsUse=  2278 1.00D-06 EigRej= -1.00D+00 NBFU=  2278
 Defaulting to unpruned grid for atomic number  46.
 ExpMin= 3.70D-02 ExpMax= 9.18D+03 ExpMxC= 1.38D+03 IAcc=3 IRadAn=         5 AccDes= 0.00D+00
 Harris functional with IExCor= 1009 and IRadAn=       5 diagonalized for initial guess.
 HarFok:  IExCor= 1009 AccDes= 0.00D+00 IRadAn=         5 IDoV= 1 UseB2=F ITyADJ=14
 ICtDFT=  3500011 ScaDFX=  1.000000  1.000000  1.000000  1.000000
 Defaulting to unpruned grid for atomic number  46.
 FoFCou: FMM=F IPFlag=           0 FMFlag=      100000 FMFlg1=        2001
         NFxFlg=           0 DoJE=T BraDBF=F KetDBF=T FulRan=T
         wScrn=  0.000000 ICntrl=       500 IOpCl=  0 I1Cent=   200000004 NGrid=           0
         NMat0=    1 NMatS0=      1 NMatT0=    0 NMatD0=    1 NMtDS0=    0 NMtDT0=    0
 Petite list used in FoFCou.
 Requested convergence on RMS density matrix=1.00D-08 within 128 cycles.
 Requested convergence on MAX density matrix=1.00D-06.
 Requested convergence on             energy=1.00D-06.
 No special actions if energy rises.
 Defaulting to unpruned grid for atomic number  46.
 Defaulting to unpruned grid for atomic number  46.
 Defaulting to unpruned grid for atomic number  46.
 Defaulting to unpruned grid for atomic number  46.
 Defaulting to unpruned grid for atomic number  46.
 Defaulting to unpruned grid for atomic number  46.
 Defaulting to unpruned grid for atomic number  46.
 Defaulting to unpruned grid for atomic number  46.
 Defaulting to unpruned grid for atomic number  46.
 Defaulting to unpruned grid for atomic number  46.
 Defaulting to unpruned grid for atomic number  46.
 Defaulting to unpruned grid for atomic number  46.
 Defaulting to unpruned grid for atomic number  46.
 Defaulting to unpruned grid for atomic number  46.
 Defaulting to unpruned grid for atomic number  46.
 Defaulting to unpruned grid for atomic number  46.
 Defaulting to unpruned grid for atomic number  46.
 Defaulting to unpruned grid for atomic number  46.
 Defaulting to unpruned grid for atomic number  46.
 Defaulting to unpruned grid for atomic number  46.
 Defaulting to unpruned grid for atomic number  46.
 Defaulting to unpruned grid for atomic number  46.
 Defaulting to unpruned grid for atomic number  46.
 Defaulting to unpruned grid for atomic number  46.
 Defaulting to unpruned grid for atomic number  46.
 Defaulting to unpruned grid for atomic number  46.
 Defaulting to unpruned grid for atomic number  46.
 Defaulting to unpruned grid for atomic number  46.
 Defaulting to unpruned grid for atomic number  46.
 Defaulting to unpruned grid for atomic number  46.
 Defaulting to unpruned grid for atomic number  46.
 Defaulting to unpruned grid for atomic number  46.
 Defaulting to unpruned grid for atomic number  46.
 Defaulting to unpruned grid for atomic number  46.
 Defaulting to unpruned grid for atomic number  46.
 Defaulting to unpruned grid for atomic number  46.
 Defaulting to unpruned grid for atomic number  46.
 Defaulting to unpruned grid for atomic number  46.
 Defaulting to unpruned grid for atomic number  46.
 Defaulting to unpruned grid for atomic number  46.
 Defaulting to unpruned grid for atomic number  46.
 Defaulting to unpruned grid for atomic number  46.
 Defaulting to unpruned grid for atomic number  46.
 Defaulting to unpruned grid for atomic number  46.
 Defaulting to unpruned grid for atomic number  46.
 Defaulting to unpruned grid for atomic number  46.
 Defaulting to unpruned grid for atomic number  46.
 Defaulting to unpruned grid for atomic number  46.
 Inv3:  Mode=1 IEnd=   546750000.
 Iteration    1 A*A^-1 deviation from unit magnitude is 9.10D-15 for  13499.
 Iteration    1 A*A^-1 deviation from orthogonality  is 4.66D-15 for  13494  10994.
 Iteration    1 A^-1*A deviation from unit magnitude is 9.55D-15 for  13499.
 Iteration    1 A^-1*A deviation from orthogonality  is 1.70D-13 for   9485   9458.
 EnCoef did   100 forward-backward iterations
 EnCoef did     7 forward-backward iterations
 Error on total polarization charges =  0.02940
 SCF Done:  E(RPBE1PBE) =  -6246.34063809     A.U. after   19 cycles
            NFock= 19  Conv=0.24D-08     -V/T= 2.0357
 Hyperfine terms turned off by default for NAtoms > 100.

 **********************************************************************

            Population analysis using the SCF Density.

 **********************************************************************

 Orbital symmetries:
       Occupied  (A) (A) (A) (A) (A) (A) (A) (A) (A) (A) (A) (A)
                 (A) (A) (A) (A) (A) (A) (A) (A) (A) (A) (A) (A)
                 (A) (A) (A) (A) (A) (A) (A) (A) (A) (A) (A) (A)
                 (A) (A) (A) (A) (A) (A) (A) (A) (A) (A) (A) (A)
                 (A) (A) (A) (A) (A) (A) (A) (A) (A) (A) (A) (A)
                 (A) (A) (A) (A) (A) (A) (A) (A) (A) (A) (A) (A)
                 (A) (A) (A) (A) (A) (A) (A) (A) (A) (A) (A) (A)
                 (A) (A) (A) (A) (A) (A) (A) (A) (A) (A) (A) (A)
                 (A) (A) (A) (A) (A) (A) (A) (A) (A) (A) (A) (A)
                 (A) (A) (A) (A) (A) (A) (A) (A) (A) (A) (A) (A)
                 (A) (A) (A) (A) (A) (A) (A) (A) (A) (A) (A) (A)
                 (A) (A) (A) (A) (A) (A) (A) (A) (A) (A) (A) (A)
                 (A) (A) (A) (A) (A) (A) (A) (A) (A) (A) (A) (A)
                 (A) (A) (A) (A) (A) (A) (A) (A) (A) (A) (A) (A)
                 (A) (A) (A) (A) (A) (A) (A) (A) (A) (A) (A) (A)
                 (A) (A) (A) (A) (A) (A) (A) (A) (A) (A) (A) (A)
                 (A) (A) (A) (A) (A) (A) (A) (A) (A) (A) (A) (A)
                 (A) (A) (A) (A) (A) (A) (A) (A) (A) (A) (A) (A)
                 (A) (A) (A) (A) (A) (A) (A) (A) (A) (A) (A) (A)
                 (A) (A) (A) (A) (A) (A) (A) (A) (A) (A) (A) (A)
                 (A) (A) (A) (A) (A) (A) (A) (A) (A) (A) (A) (A)
                 (A) (A) (A) (A) (A) (A) (A) (A) (A) (A) (A) (A)
                 (A) (A) (A) (A) (A) (A) (A) (A) (A) (A) (A) (A)
                 (A) (A) (A) (A) (A) (A) (A) (A) (A) (A) (A) (A)
                 (A) (A) (A) (A) (A) (A) (A) (A) (A) (A) (A) (A)
                 (A) (A) (A) (A) (A) (A) (A) (A) (A) (A) (A) (A)
                 (A) (A) (A) (A) (A) (A) (A) (A) (A) (A) (A) (A)
                 (A) (A) (A) (A) (A) (A) (A) (A) (A) (A) (A) (A)
                 (A) (A) (A) (A) (A) (A) (A) (A) (A) (A) (A) (A)
                 (A) (A) (A) (A) (A) (A) (A) (A) (A) (A) (A) (A)
                 (A) (A) (A) (A) (A) (A) (A) (A) (A) (A) (A) (A)
                 (A) (A) (A) (A) (A) (A) (A) (A) (A) (A) (A) (A)
                 (A) (A) (A) (A) (A) (A) (A) (A) (A) (A) (A) (A)
                 (A) (A) (A) (A) (A) (A) (A) (A) (A) (A) (A) (A)
                 (A) (A) (A) (A) (A) (A) (A) (A) (A) (A) (A) (A)
                 (A) (A) (A) (A) (A) (A) (A) (A) (A) (A) (A) (A)
                 (A) (A) (A) (A) (A) (A) (A) (A) (A) (A) (A) (A)
                 (A) (A) (A) (A) (A) (A) (A) (A) (A) (A) (A) (A)
                 (A) (A) (A) (A) (A) (A) (A) (A)
       Virtual   (A) (A) (A) (A) (A) (A) (A) (A) (A) (A) (A) (A)
                 (A) (A) (A) (A) (A) (A) (A) (A) (A) (A) (A) (A)
                 (A) (A) (A) (A) (A) (A) (A) (A) (A) (A) (A) (A)
                 (A) (A) (A) (A) (A) (A) (A) (A) (A) (A) (A) (A)
                 (A) (A) (A) (A) (A) (A) (A) (A) (A) (A) (A) (A)
                 (A) (A) (A) (A) (A) (A) (A) (A) (A) (A) (A) (A)
                 (A) (A) (A) (A) (A) (A) (A) (A) (A) (A) (A) (A)
                 (A) (A) (A) (A) (A) (A) (A) (A) (A) (A) (A) (A)
                 (A) (A) (A) (A) (A) (A) (A) (A) (A) (A) (A) (A)
                 (A) (A) (A) (A) (A) (A) (A) (A) (A) (A) (A) (A)
                 (A) (A) (A) (A) (A) (A) (A) (A) (A) (A) (A) (A)
                 (A) (A) (A) (A) (A) (A) (A) (A) (A) (A) (A) (A)
                 (A) (A) (A) (A) (A) (A) (A) (A) (A) (A) (A) (A)
                 (A) (A) (A) (A) (A) (A) (A) (A) (A) (A) (A) (A)
                 (A) (A) (A) (A) (A) (A) (A) (A) (A) (A) (A) (A)
                 (A) (A) (A) (A) (A) (A) (A) (A) (A) (A) (A) (A)
                 (A) (A) (A) (A) (A) (A) (A) (A) (A) (A) (A) (A)
                 (A) (A) (A) (A) (A) (A) (A) (A) (A) (A) (A) (A)
                 (A) (A) (A) (A) (A) (A) (A) (A) (A) (A) (A) (A)
                 (A) (A) (A) (A) (A) (A) (A) (A) (A) (A) (A) (A)
                 (A) (A) (A) (A) (A) (A) (A) (A) (A) (A) (A) (A)
                 (A) (A) (A) (A) (A) (A) (A) (A) (A) (A) (A) (A)
                 (A) (A) (A) (A) (A) (A) (A) (A) (A) (A) (A) (A)
                 (A) (A) (A) (A) (A) (A) (A) (A) (A) (A) (A) (A)
                 (A) (A) (A) (A) (A) (A) (A) (A) (A) (A) (A) (A)
                 (A) (A) (A) (A) (A) (A) (A) (A) (A) (A) (A) (A)
                 (A) (A) (A) (A) (A) (A) (A) (A) (A) (A) (A) (A)
                 (A) (A) (A) (A) (A) (A) (A) (A) (A) (A) (A) (A)
                 (A) (A) (A) (A) (A) (A) (A) (A) (A) (A) (A) (A)
                 (A) (A) (A) (A) (A) (A) (A) (A) (A) (A) (A) (A)
                 (A) (A) (A) (A) (A) (A) (A) (A) (A) (A) (A) (A)
                 (A) (A) (A) (A) (A) (A) (A) (A) (A) (A) (A) (A)
                 (A) (A) (A) (A) (A) (A) (A) (A) (A) (A) (A) (A)
                 (A) (A) (A) (A) (A) (A) (A) (A) (A) (A) (A) (A)
                 (A) (A) (A) (A) (A) (A) (A) (A) (A) (A) (A) (A)
                 (A) (A) (A) (A) (A) (A) (A) (A) (A) (A) (A) (A)
                 (A) (A) (A) (A) (A) (A) (A) (A) (A) (A) (A) (A)
                 (A) (A) (A) (A) (A) (A) (A) (A) (A) (A) (A) (A)
                 (A) (A) (A) (A) (A) (A) (A) (A) (A) (A) (A) (A)
                 (A) (A) (A) (A) (A) (A) (A) (A) (A) (A) (A) (A)
                 (A) (A) (A) (A) (A) (A) (A) (A) (A) (A) (A) (A)
                 (A) (A) (A) (A) (A) (A) (A) (A) (A) (A) (A) (A)
                 (A) (A) (A) (A) (A) (A) (A) (A) (A) (A) (A) (A)
                 (A) (A) (A) (A) (A) (A) (A) (A) (A) (A) (A) (A)
                 (A) (A) (A) (A) (A) (A) (A) (A) (A) (A) (A) (A)
                 (A) (A) (A) (A) (A) (A) (A) (A) (A) (A) (A) (A)
                 (A) (A) (A) (A) (A) (A) (A) (A) (A) (A) (A) (A)
                 (A) (A) (A) (A) (A) (A) (A) (A) (A) (A) (A) (A)
                 (A) (A) (A) (A) (A) (A) (A) (A) (A) (A) (A) (A)
                 (A) (A) (A) (A) (A) (A) (A) (A) (A) (A) (A) (A)
                 (A) (A) (A) (A) (A) (A) (A) (A) (A) (A) (A) (A)
                 (A) (A) (A) (A) (A) (A) (A) (A) (A) (A) (A) (A)
                 (A) (A) (A) (A) (A) (A) (A) (A) (A) (A) (A) (A)
                 (A) (A) (A) (A) (A) (A) (A) (A) (A) (A) (A) (A)
                 (A) (A) (A) (A) (A) (A) (A) (A) (A) (A) (A) (A)
                 (A) (A) (A) (A) (A) (A) (A) (A) (A) (A) (A) (A)
                 (A) (A) (A) (A) (A) (A) (A) (A) (A) (A) (A) (A)
                 (A) (A) (A) (A) (A) (A) (A) (A) (A) (A) (A) (A)
                 (A) (A) (A) (A) (A) (A) (A) (A) (A) (A) (A) (A)
                 (A) (A) (A) (A) (A) (A) (A) (A) (A) (A) (A) (A)
                 (A) (A) (A) (A) (A) (A) (A) (A) (A) (A) (A) (A)
                 (A) (A) (A) (A) (A) (A) (A) (A) (A) (A) (A) (A)
                 (A) (A) (A) (A) (A) (A) (A) (A) (A) (A) (A) (A)
                 (A) (A) (A) (A) (A) (A) (A) (A) (A) (A) (A) (A)
                 (A) (A) (A) (A) (A) (A) (A) (A) (A) (A) (A) (A)
                 (A) (A) (A) (A) (A) (A) (A) (A) (A) (A) (A) (A)
                 (A) (A) (A) (A) (A) (A) (A) (A) (A) (A) (A) (A)
                 (A) (A) (A) (A) (A) (A) (A) (A) (A) (A) (A) (A)
                 (A) (A) (A) (A) (A) (A) (A) (A) (A) (A) (A) (A)
                 (A) (A) (A) (A) (A) (A) (A) (A) (A) (A) (A) (A)
                 (A) (A) (A) (A) (A) (A) (A) (A) (A) (A) (A) (A)
                 (A) (A) (A) (A) (A) (A) (A) (A) (A) (A) (A) (A)
                 (A) (A) (A) (A) (A) (A) (A) (A) (A) (A) (A) (A)
                 (A) (A) (A) (A) (A) (A) (A) (A) (A) (A) (A) (A)
                 (A) (A) (A) (A) (A) (A) (A) (A) (A) (A) (A) (A)
                 (A) (A) (A) (A) (A) (A) (A) (A) (A) (A) (A) (A)
                 (A) (A) (A) (A) (A) (A) (A) (A) (A) (A) (A) (A)
                 (A) (A) (A) (A) (A) (A) (A) (A) (A) (A) (A) (A)
                 (A) (A) (A) (A) (A) (A) (A) (A) (A) (A) (A) (A)
                 (A) (A) (A) (A) (A) (A) (A) (A) (A) (A) (A) (A)
                 (A) (A) (A) (A) (A) (A) (A) (A) (A) (A) (A) (A)
                 (A) (A) (A) (A) (A) (A) (A) (A) (A) (A) (A) (A)
                 (A) (A) (A) (A) (A) (A) (A) (A) (A) (A) (A) (A)
                 (A) (A) (A) (A) (A) (A) (A) (A) (A) (A) (A) (A)
                 (A) (A) (A) (A) (A) (A) (A) (A) (A) (A) (A) (A)
                 (A) (A) (A) (A) (A) (A) (A) (A) (A) (A) (A) (A)
                 (A) (A) (A) (A) (A) (A) (A) (A) (A) (A) (A) (A)
                 (A) (A) (A) (A) (A) (A) (A) (A) (A) (A) (A) (A)
                 (A) (A) (A) (A) (A) (A) (A) (A) (A) (A) (A) (A)
                 (A) (A) (A) (A) (A) (A) (A) (A) (A) (A) (A) (A)
                 (A) (A) (A) (A) (A) (A) (A) (A) (A) (A) (A) (A)
                 (A) (A) (A) (A) (A) (A) (A) (A) (A) (A) (A) (A)
                 (A) (A) (A) (A) (A) (A) (A) (A) (A) (A) (A) (A)
                 (A) (A) (A) (A) (A) (A) (A) (A) (A) (A) (A) (A)
                 (A) (A) (A) (A) (A) (A) (A) (A) (A) (A) (A) (A)
                 (A) (A) (A) (A) (A) (A) (A) (A) (A) (A) (A) (A)
                 (A) (A) (A) (A) (A) (A) (A) (A) (A) (A) (A) (A)
                 (A) (A) (A) (A) (A) (A) (A) (A) (A) (A) (A) (A)
                 (A) (A) (A) (A) (A) (A) (A) (A) (A) (A) (A) (A)
                 (A) (A) (A) (A) (A) (A) (A) (A) (A) (A) (A) (A)
                 (A) (A) (A) (A) (A) (A) (A) (A) (A) (A) (A) (A)
                 (A) (A) (A) (A) (A) (A) (A) (A) (A) (A) (A) (A)
                 (A) (A) (A) (A) (A) (A) (A) (A) (A) (A) (A) (A)
                 (A) (A) (A) (A) (A) (A) (A) (A) (A) (A) (A) (A)
                 (A) (A) (A) (A) (A) (A) (A) (A) (A) (A) (A) (A)
                 (A) (A) (A) (A) (A) (A) (A) (A) (A) (A) (A) (A)
                 (A) (A) (A) (A) (A) (A) (A) (A) (A) (A) (A) (A)
                 (A) (A) (A) (A) (A) (A) (A) (A) (A) (A) (A) (A)
                 (A) (A) (A) (A) (A) (A) (A) (A) (A) (A) (A) (A)
                 (A) (A) (A) (A) (A) (A) (A) (A) (A) (A) (A) (A)
                 (A) (A) (A) (A) (A) (A) (A) (A) (A) (A) (A) (A)
                 (A) (A) (A) (A) (A) (A) (A) (A) (A) (A) (A) (A)
                 (A) (A) (A) (A) (A) (A) (A) (A) (A) (A) (A) (A)
                 (A) (A) (A) (A) (A) (A) (A) (A) (A) (A) (A) (A)
                 (A) (A) (A) (A) (A) (A) (A) (A) (A) (A) (A) (A)
                 (A) (A) (A) (A) (A) (A) (A) (A) (A) (A) (A) (A)
                 (A) (A) (A) (A) (A) (A) (A) (A) (A) (A) (A) (A)
                 (A) (A) (A) (A) (A) (A) (A) (A) (A) (A) (A) (A)
                 (A) (A) (A) (A) (A) (A) (A) (A) (A) (A) (A) (A)
                 (A) (A) (A) (A) (A) (A) (A) (A) (A) (A) (A) (A)
                 (A) (A) (A) (A) (A) (A) (A) (A) (A) (A) (A) (A)
                 (A) (A) (A) (A) (A) (A) (A) (A) (A) (A) (A) (A)
                 (A) (A) (A) (A) (A) (A) (A) (A) (A) (A) (A) (A)
                 (A) (A) (A) (A) (A) (A) (A) (A) (A) (A) (A) (A)
                 (A) (A) (A) (A) (A) (A) (A) (A) (A) (A) (A) (A)
                 (A) (A) (A) (A) (A) (A) (A) (A) (A) (A) (A) (A)
                 (A) (A) (A) (A) (A) (A) (A) (A) (A) (A) (A) (A)
                 (A) (A) (A) (A) (A) (A) (A) (A) (A) (A) (A) (A)
                 (A) (A) (A) (A) (A) (A) (A) (A) (A) (A) (A) (A)
                 (A) (A) (A) (A) (A) (A) (A) (A) (A) (A) (A) (A)
                 (A) (A) (A) (A) (A) (A) (A) (A) (A) (A) (A) (A)
                 (A) (A) (A) (A) (A) (A) (A) (A) (A) (A) (A) (A)
                 (A) (A) (A) (A) (A) (A) (A) (A) (A) (A) (A) (A)
                 (A) (A) (A) (A) (A) (A) (A) (A) (A) (A) (A) (A)
                 (A) (A) (A) (A) (A) (A) (A) (A) (A) (A) (A) (A)
                 (A) (A) (A) (A) (A) (A) (A) (A) (A) (A) (A) (A)
                 (A) (A) (A) (A) (A) (A) (A) (A) (A) (A) (A) (A)
                 (A) (A) (A) (A) (A) (A) (A) (A) (A) (A) (A) (A)
                 (A) (A) (A) (A) (A) (A) (A) (A) (A) (A) (A) (A)
                 (A) (A) (A) (A) (A) (A) (A) (A) (A) (A) (A) (A)
                 (A) (A) (A) (A) (A) (A) (A) (A) (A) (A) (A) (A)
                 (A) (A) (A) (A) (A) (A) (A) (A) (A) (A) (A) (A)
                 (A) (A) (A) (A) (A) (A) (A) (A) (A) (A) (A) (A)
                 (A) (A) (A) (A) (A) (A) (A) (A) (A) (A) (A) (A)
                 (A) (A) (A) (A) (A) (A) (A) (A) (A) (A) (A) (A)
                 (A) (A) (A) (A) (A) (A) (A) (A) (A) (A) (A) (A)
                 (A) (A) (A) (A) (A) (A) (A) (A) (A) (A) (A) (A)
                 (A) (A) (A) (A) (A) (A) (A) (A) (A) (A) (A) (A)
                 (A) (A) (A) (A) (A) (A) (A) (A) (A) (A) (A) (A)
                 (A) (A) (A) (A) (A) (A) (A) (A) (A) (A) (A) (A)
                 (A) (A) (A) (A) (A) (A) (A) (A) (A) (A) (A) (A)
                 (A) (A)
 The electronic state is 1-A.
 Alpha  occ. eigenvalues --  -89.06115 -89.05999 -19.30114 -19.29987 -14.48442
 Alpha  occ. eigenvalues --  -14.48442 -14.48411 -14.48411 -14.48340 -14.48339
 Alpha  occ. eigenvalues --  -14.48324 -14.48323 -10.32179 -10.32173 -10.32073
 Alpha  occ. eigenvalues --  -10.32072 -10.32027 -10.32027 -10.31991 -10.31987
 Alpha  occ. eigenvalues --  -10.31897 -10.31897 -10.31867 -10.31867 -10.31809
 Alpha  occ. eigenvalues --  -10.31809 -10.31795 -10.31794 -10.30944 -10.30943
 Alpha  occ. eigenvalues --  -10.30902 -10.30902 -10.30572 -10.30570 -10.30394
 Alpha  occ. eigenvalues --  -10.30392 -10.30201 -10.30200 -10.30170 -10.30169
 Alpha  occ. eigenvalues --  -10.29087 -10.29087 -10.29064 -10.29062 -10.28835
 Alpha  occ. eigenvalues --  -10.28835 -10.28812 -10.28811 -10.28598 -10.28597
 Alpha  occ. eigenvalues --  -10.28575 -10.28575 -10.28565 -10.28565 -10.28539
 Alpha  occ. eigenvalues --  -10.28538 -10.28094 -10.28093 -10.28072 -10.28071
 Alpha  occ. eigenvalues --  -10.28066 -10.28065 -10.28039 -10.28039 -10.27847
 Alpha  occ. eigenvalues --  -10.27846 -10.27820 -10.27820 -10.27592 -10.27592
 Alpha  occ. eigenvalues --  -10.27582 -10.27582 -10.27575 -10.27574 -10.27415
 Alpha  occ. eigenvalues --  -10.27414 -10.27260 -10.27249 -10.27188 -10.27188
 Alpha  occ. eigenvalues --  -10.27169 -10.27169 -10.27142 -10.27122 -10.27094
 Alpha  occ. eigenvalues --  -10.27083 -10.26958 -10.26944 -10.26943 -10.26940
 Alpha  occ. eigenvalues --  -10.26907 -10.26907 -10.26880 -10.26880 -10.26796
 Alpha  occ. eigenvalues --  -10.26796 -10.26778 -10.26778 -10.26761 -10.26760
 Alpha  occ. eigenvalues --  -10.26759 -10.26755 -10.26684 -10.26656 -10.26651
 Alpha  occ. eigenvalues --  -10.26647 -10.26582 -10.26581 -10.26559 -10.26559
 Alpha  occ. eigenvalues --  -10.26548 -10.26544 -10.26510 -10.26484 -10.26479
 Alpha  occ. eigenvalues --  -10.26476 -10.26475 -10.26470 -10.26465 -10.26460
 Alpha  occ. eigenvalues --  -10.26457 -10.26456 -10.26450 -10.26450 -10.26418
 Alpha  occ. eigenvalues --  -10.26418 -10.26310 -10.26310 -10.26247 -10.26242
 Alpha  occ. eigenvalues --  -10.26226 -10.26225  -8.06158  -8.06073  -6.00300
 Alpha  occ. eigenvalues --   -6.00215  -5.99913  -5.99832  -5.99588  -5.99499
 Alpha  occ. eigenvalues --   -3.57029  -3.57028  -2.24891  -2.24891  -2.24846
 Alpha  occ. eigenvalues --   -2.24846  -2.20608  -2.20608  -1.16337  -1.16139
 Alpha  occ. eigenvalues --   -1.03430  -1.03429  -1.02749  -1.02748  -1.02564
 Alpha  occ. eigenvalues --   -1.02563  -1.02370  -1.02370  -0.93786  -0.93630
 Alpha  occ. eigenvalues --   -0.92550  -0.92547  -0.92490  -0.92487  -0.91987
 Alpha  occ. eigenvalues --   -0.91783  -0.91537  -0.91360  -0.90474  -0.90462
 Alpha  occ. eigenvalues --   -0.90418  -0.90408  -0.87704  -0.87553  -0.87324
 Alpha  occ. eigenvalues --   -0.87178  -0.85575  -0.85523  -0.85484  -0.85438
 Alpha  occ. eigenvalues --   -0.83642  -0.83516  -0.82974  -0.82862  -0.82793
 Alpha  occ. eigenvalues --   -0.82701  -0.82659  -0.82573  -0.82547  -0.82484
 Alpha  occ. eigenvalues --   -0.82417  -0.82333  -0.82209  -0.81935  -0.81475
 Alpha  occ. eigenvalues --   -0.81286  -0.80528  -0.80365  -0.79591  -0.79481
 Alpha  occ. eigenvalues --   -0.78849  -0.78827  -0.78786  -0.78693  -0.78383
 Alpha  occ. eigenvalues --   -0.78242  -0.78170  -0.78134  -0.78054  -0.77968
 Alpha  occ. eigenvalues --   -0.77105  -0.76924  -0.76273  -0.76214  -0.73884
 Alpha  occ. eigenvalues --   -0.73718  -0.71013  -0.70880  -0.70825  -0.70771
 Alpha  occ. eigenvalues --   -0.70742  -0.70711  -0.70326  -0.70203  -0.69875
 Alpha  occ. eigenvalues --   -0.69700  -0.69525  -0.69429  -0.69047  -0.68972
 Alpha  occ. eigenvalues --   -0.68749  -0.68643  -0.68205  -0.68157  -0.67472
 Alpha  occ. eigenvalues --   -0.67390  -0.67304  -0.67149  -0.65039  -0.64907
 Alpha  occ. eigenvalues --   -0.64640  -0.64560  -0.64535  -0.64505  -0.64475
 Alpha  occ. eigenvalues --   -0.64383  -0.63293  -0.63203  -0.63194  -0.63030
 Alpha  occ. eigenvalues --   -0.62598  -0.62530  -0.62497  -0.62365  -0.61140
 Alpha  occ. eigenvalues --   -0.60895  -0.59921  -0.59314  -0.59270  -0.58420
 Alpha  occ. eigenvalues --   -0.58129  -0.58059  -0.58053  -0.58014  -0.57710
 Alpha  occ. eigenvalues --   -0.57655  -0.57249  -0.57105  -0.57039  -0.56993
 Alpha  occ. eigenvalues --   -0.56937  -0.56821  -0.56749  -0.56647  -0.56596
 Alpha  occ. eigenvalues --   -0.56496  -0.55925  -0.55883  -0.55698  -0.55682
 Alpha  occ. eigenvalues --   -0.55671  -0.55555  -0.55063  -0.54859  -0.54092
 Alpha  occ. eigenvalues --   -0.53859  -0.53021  -0.52921  -0.51915  -0.51837
 Alpha  occ. eigenvalues --   -0.51633  -0.51556  -0.51299  -0.51271  -0.51238
 Alpha  occ. eigenvalues --   -0.51158  -0.51120  -0.51036  -0.50911  -0.50768
 Alpha  occ. eigenvalues --   -0.50628  -0.50621  -0.50518  -0.50433  -0.50369
 Alpha  occ. eigenvalues --   -0.50115  -0.50020  -0.49731  -0.49647  -0.49601
 Alpha  occ. eigenvalues --   -0.49457  -0.49415  -0.49162  -0.49080  -0.49014
 Alpha  occ. eigenvalues --   -0.48891  -0.48728  -0.48614  -0.48562  -0.48544
 Alpha  occ. eigenvalues --   -0.48190  -0.48163  -0.48130  -0.47848  -0.47788
 Alpha  occ. eigenvalues --   -0.47707  -0.47639  -0.47461  -0.47447  -0.47380
 Alpha  occ. eigenvalues --   -0.47321  -0.47224  -0.47124  -0.46940  -0.46773
 Alpha  occ. eigenvalues --   -0.46638  -0.46623  -0.46560  -0.46414  -0.46318
 Alpha  occ. eigenvalues --   -0.45949  -0.45794  -0.45682  -0.45601  -0.45558
 Alpha  occ. eigenvalues --   -0.45547  -0.45534  -0.45508  -0.45387  -0.45262
 Alpha  occ. eigenvalues --   -0.44890  -0.44468  -0.44391  -0.44175  -0.44085
 Alpha  occ. eigenvalues --   -0.44068  -0.43601  -0.43502  -0.43438  -0.43416
 Alpha  occ. eigenvalues --   -0.43320  -0.43270  -0.42732  -0.42601  -0.42441
 Alpha  occ. eigenvalues --   -0.42299  -0.42258  -0.42237  -0.42142  -0.42123
 Alpha  occ. eigenvalues --   -0.41836  -0.41729  -0.41728  -0.41558  -0.41460
 Alpha  occ. eigenvalues --   -0.41395  -0.41359  -0.41318  -0.41248  -0.41170
 Alpha  occ. eigenvalues --   -0.40967  -0.40786  -0.40670  -0.40506  -0.40214
 Alpha  occ. eigenvalues --   -0.40028  -0.39974  -0.39763  -0.39593  -0.39497
 Alpha  occ. eigenvalues --   -0.38775  -0.38661  -0.38607  -0.38522  -0.38292
 Alpha  occ. eigenvalues --   -0.38257  -0.38217  -0.38202  -0.37735  -0.37715
 Alpha  occ. eigenvalues --   -0.37645  -0.37635  -0.37502  -0.37378  -0.37351
 Alpha  occ. eigenvalues --   -0.37150  -0.36915  -0.36906  -0.36504  -0.36306
 Alpha  occ. eigenvalues --   -0.36147  -0.36034  -0.35665  -0.35520  -0.35315
 Alpha  occ. eigenvalues --   -0.35080  -0.34849  -0.34653  -0.34380  -0.34234
 Alpha  occ. eigenvalues --   -0.33908  -0.33585  -0.33179  -0.33164  -0.32977
 Alpha  occ. eigenvalues --   -0.32875  -0.32310  -0.32153  -0.32090  -0.31945
 Alpha  occ. eigenvalues --   -0.31708  -0.31641  -0.31452  -0.31270  -0.30956
 Alpha  occ. eigenvalues --   -0.30844  -0.30819  -0.30816  -0.30692  -0.30648
 Alpha  occ. eigenvalues --   -0.30428  -0.29742  -0.29317  -0.29280  -0.29173
 Alpha  occ. eigenvalues --   -0.29152  -0.29118  -0.29008  -0.28986  -0.28913
 Alpha  occ. eigenvalues --   -0.28848  -0.28803  -0.28184  -0.27977  -0.27051
 Alpha  occ. eigenvalues --   -0.26866  -0.26255  -0.26147  -0.26048  -0.25876
 Alpha  occ. eigenvalues --   -0.25814  -0.25617  -0.22628  -0.22353
 Alpha virt. eigenvalues --   -0.09845  -0.09756  -0.09341  -0.09266  -0.08743
 Alpha virt. eigenvalues --   -0.08735  -0.08699  -0.08663  -0.08448  -0.08407
 Alpha virt. eigenvalues --   -0.08196  -0.08099  -0.06575  -0.06563  -0.06349
 Alpha virt. eigenvalues --   -0.06192  -0.06087  -0.05958  -0.05602  -0.05448
 Alpha virt. eigenvalues --   -0.05362  -0.04714  -0.04674  -0.04162  -0.03021
 Alpha virt. eigenvalues --   -0.02913  -0.02834  -0.02792  -0.02558  -0.02342
 Alpha virt. eigenvalues --   -0.01750  -0.01615  -0.00649  -0.00544  -0.00420
 Alpha virt. eigenvalues --   -0.00328  -0.00255  -0.00231   0.00417   0.00812
 Alpha virt. eigenvalues --    0.01137   0.01142   0.01295   0.01488   0.01713
 Alpha virt. eigenvalues --    0.01744   0.02587   0.02608   0.02877   0.02984
 Alpha virt. eigenvalues --    0.04440   0.04504   0.04912   0.04953   0.05186
 Alpha virt. eigenvalues --    0.05303   0.05308   0.05544   0.05770   0.05897
 Alpha virt. eigenvalues --    0.06487   0.06787   0.07035   0.07259   0.07353
 Alpha virt. eigenvalues --    0.07460   0.07551   0.07636   0.07665   0.07890
 Alpha virt. eigenvalues --    0.07932   0.08172   0.08317   0.08375   0.08779
 Alpha virt. eigenvalues --    0.08994   0.09075   0.09259   0.09281   0.09330
 Alpha virt. eigenvalues --    0.09468   0.09559   0.09684   0.09802   0.09991
 Alpha virt. eigenvalues --    0.10197   0.10361   0.10403   0.10527   0.10781
 Alpha virt. eigenvalues --    0.10797   0.10830   0.11012   0.11066   0.11098
 Alpha virt. eigenvalues --    0.11138   0.11208   0.11456   0.11457   0.11763
 Alpha virt. eigenvalues --    0.12059   0.12130   0.12252   0.12367   0.12596
 Alpha virt. eigenvalues --    0.12742   0.12820   0.12951   0.13272   0.13613
 Alpha virt. eigenvalues --    0.13749   0.13801   0.13965   0.13990   0.14062
 Alpha virt. eigenvalues --    0.14248   0.14273   0.14363   0.14450   0.14522
 Alpha virt. eigenvalues --    0.14701   0.14731   0.14881   0.15252   0.15354
 Alpha virt. eigenvalues --    0.15400   0.15466   0.15602   0.15679   0.16101
 Alpha virt. eigenvalues --    0.16107   0.16132   0.16301   0.16431   0.16441
 Alpha virt. eigenvalues --    0.16574   0.16587   0.16631   0.16709   0.16893
 Alpha virt. eigenvalues --    0.16992   0.17075   0.17184   0.17351   0.17554
 Alpha virt. eigenvalues --    0.17758   0.17834   0.18243   0.18296   0.18306
 Alpha virt. eigenvalues --    0.18713   0.18859   0.18977   0.19190   0.19197
 Alpha virt. eigenvalues --    0.19240   0.19694   0.19703   0.19745   0.20101
 Alpha virt. eigenvalues --    0.20145   0.20312   0.20548   0.20645   0.20812
 Alpha virt. eigenvalues --    0.20839   0.21143   0.21510   0.21674   0.21728
 Alpha virt. eigenvalues --    0.22049   0.22298   0.22413   0.22526   0.22628
 Alpha virt. eigenvalues --    0.22747   0.22810   0.22907   0.23218   0.23228
 Alpha virt. eigenvalues --    0.23347   0.23389   0.23547   0.23561   0.23674
 Alpha virt. eigenvalues --    0.23816   0.23904   0.23977   0.24015   0.24159
 Alpha virt. eigenvalues --    0.24178   0.24276   0.24373   0.24459   0.24550
 Alpha virt. eigenvalues --    0.24728   0.24930   0.25138   0.25484   0.25587
 Alpha virt. eigenvalues --    0.25753   0.25982   0.26010   0.26140   0.26230
 Alpha virt. eigenvalues --    0.26352   0.26724   0.26848   0.26933   0.26939
 Alpha virt. eigenvalues --    0.26992   0.27041   0.27184   0.27229   0.27293
 Alpha virt. eigenvalues --    0.27515   0.27554   0.27613   0.27767   0.27793
 Alpha virt. eigenvalues --    0.27884   0.27905   0.27925   0.28191   0.28252
 Alpha virt. eigenvalues --    0.28431   0.28547   0.28791   0.28842   0.28930
 Alpha virt. eigenvalues --    0.29110   0.29163   0.29229   0.29482   0.29704
 Alpha virt. eigenvalues --    0.29891   0.29919   0.29982   0.30015   0.30236
 Alpha virt. eigenvalues --    0.30298   0.30658   0.30795   0.30842   0.30999
 Alpha virt. eigenvalues --    0.31081   0.31171   0.31516   0.31615   0.31776
 Alpha virt. eigenvalues --    0.31853   0.32244   0.32379   0.32499   0.32752
 Alpha virt. eigenvalues --    0.32857   0.33144   0.33260   0.33358   0.33419
 Alpha virt. eigenvalues --    0.33437   0.33537   0.33647   0.34007   0.34010
 Alpha virt. eigenvalues --    0.34193   0.34204   0.34367   0.34472   0.34523
 Alpha virt. eigenvalues --    0.34605   0.34809   0.34826   0.34923   0.35083
 Alpha virt. eigenvalues --    0.35118   0.35369   0.35448   0.35592   0.35870
 Alpha virt. eigenvalues --    0.36034   0.36238   0.36369   0.36532   0.36610
 Alpha virt. eigenvalues --    0.36722   0.36784   0.36842   0.37041   0.37054
 Alpha virt. eigenvalues --    0.37255   0.37381   0.37509   0.37675   0.37807
 Alpha virt. eigenvalues --    0.37936   0.38183   0.38223   0.38272   0.38515
 Alpha virt. eigenvalues --    0.38693   0.38882   0.39185   0.39356   0.39393
 Alpha virt. eigenvalues --    0.39487   0.39514   0.39697   0.39758   0.39906
 Alpha virt. eigenvalues --    0.40019   0.40282   0.40325   0.40483   0.40534
 Alpha virt. eigenvalues --    0.40802   0.40807   0.40873   0.40932   0.40954
 Alpha virt. eigenvalues --    0.41184   0.41273   0.41366   0.41385   0.41477
 Alpha virt. eigenvalues --    0.41780   0.41953   0.41992   0.42183   0.42309
 Alpha virt. eigenvalues --    0.42571   0.42821   0.42946   0.43053   0.43094
 Alpha virt. eigenvalues --    0.43136   0.43265   0.43270   0.43401   0.43641
 Alpha virt. eigenvalues --    0.44207   0.44295   0.44297   0.44462   0.44510
 Alpha virt. eigenvalues --    0.44769   0.44831   0.44935   0.44971   0.45224
 Alpha virt. eigenvalues --    0.45283   0.45425   0.45425   0.45524   0.45593
 Alpha virt. eigenvalues --    0.45739   0.45753   0.45820   0.46055   0.46108
 Alpha virt. eigenvalues --    0.46135   0.46176   0.46280   0.46360   0.46384
 Alpha virt. eigenvalues --    0.46438   0.46550   0.46585   0.46731   0.46895
 Alpha virt. eigenvalues --    0.47019   0.47151   0.47173   0.47286   0.47403
 Alpha virt. eigenvalues --    0.47455   0.47510   0.47789   0.47818   0.48004
 Alpha virt. eigenvalues --    0.48015   0.48189   0.48243   0.48246   0.48338
 Alpha virt. eigenvalues --    0.48649   0.48851   0.48915   0.49228   0.49325
 Alpha virt. eigenvalues --    0.49334   0.49430   0.49657   0.49912   0.50052
 Alpha virt. eigenvalues --    0.50314   0.50385   0.50504   0.50527   0.50787
 Alpha virt. eigenvalues --    0.50843   0.50966   0.51187   0.51217   0.51440
 Alpha virt. eigenvalues --    0.51493   0.51606   0.51760   0.51936   0.51959
 Alpha virt. eigenvalues --    0.51981   0.52092   0.52188   0.52334   0.52473
 Alpha virt. eigenvalues --    0.52749   0.53023   0.53037   0.53260   0.53310
 Alpha virt. eigenvalues --    0.53616   0.53689   0.54054   0.54081   0.54219
 Alpha virt. eigenvalues --    0.54480   0.54489   0.54678   0.54693   0.54899
 Alpha virt. eigenvalues --    0.55125   0.55218   0.55227   0.55468   0.55531
 Alpha virt. eigenvalues --    0.55840   0.55859   0.55884   0.56065   0.56142
 Alpha virt. eigenvalues --    0.56170   0.56221   0.56336   0.56369   0.56703
 Alpha virt. eigenvalues --    0.56765   0.56811   0.56893   0.57147   0.57150
 Alpha virt. eigenvalues --    0.57256   0.57454   0.57562   0.57809   0.58046
 Alpha virt. eigenvalues --    0.58109   0.58154   0.58240   0.58277   0.58717
 Alpha virt. eigenvalues --    0.58781   0.58849   0.58917   0.58983   0.59303
 Alpha virt. eigenvalues --    0.59343   0.59576   0.59654   0.59766   0.59794
 Alpha virt. eigenvalues --    0.59836   0.59998   0.60252   0.60309   0.60389
 Alpha virt. eigenvalues --    0.60433   0.60542   0.60703   0.60747   0.60971
 Alpha virt. eigenvalues --    0.61081   0.61157   0.61465   0.61680   0.61748
 Alpha virt. eigenvalues --    0.61936   0.62273   0.62328   0.62510   0.62521
 Alpha virt. eigenvalues --    0.62682   0.63023   0.63062   0.63273   0.63441
 Alpha virt. eigenvalues --    0.63486   0.63559   0.63574   0.63760   0.64034
 Alpha virt. eigenvalues --    0.64042   0.64203   0.64363   0.64377   0.64505
 Alpha virt. eigenvalues --    0.64558   0.64651   0.64775   0.64811   0.64857
 Alpha virt. eigenvalues --    0.64985   0.65052   0.65206   0.65212   0.65368
 Alpha virt. eigenvalues --    0.65437   0.65448   0.65541   0.65570   0.65739
 Alpha virt. eigenvalues --    0.65846   0.65859   0.65912   0.65920   0.66078
 Alpha virt. eigenvalues --    0.66171   0.66203   0.66222   0.66398   0.66407
 Alpha virt. eigenvalues --    0.66479   0.66551   0.66614   0.66657   0.66803
 Alpha virt. eigenvalues --    0.66836   0.66967   0.67045   0.67111   0.67282
 Alpha virt. eigenvalues --    0.67412   0.67528   0.67630   0.67764   0.67770
 Alpha virt. eigenvalues --    0.67914   0.67989   0.68049   0.68127   0.68141
 Alpha virt. eigenvalues --    0.68275   0.68320   0.68350   0.68469   0.68606
 Alpha virt. eigenvalues --    0.68951   0.68974   0.69023   0.69096   0.69259
 Alpha virt. eigenvalues --    0.69492   0.69524   0.69714   0.69748   0.69949
 Alpha virt. eigenvalues --    0.70017   0.70084   0.70250   0.70289   0.70491
 Alpha virt. eigenvalues --    0.70510   0.70524   0.70667   0.70696   0.70848
 Alpha virt. eigenvalues --    0.70870   0.71037   0.71043   0.71261   0.71467
 Alpha virt. eigenvalues --    0.71477   0.71488   0.71741   0.71912   0.71936
 Alpha virt. eigenvalues --    0.71999   0.72034   0.72144   0.72149   0.72370
 Alpha virt. eigenvalues --    0.72446   0.72700   0.72746   0.72869   0.72951
 Alpha virt. eigenvalues --    0.72967   0.73254   0.73412   0.73492   0.73587
 Alpha virt. eigenvalues --    0.73683   0.73752   0.73900   0.74101   0.74189
 Alpha virt. eigenvalues --    0.74272   0.74300   0.74369   0.74427   0.74568
 Alpha virt. eigenvalues --    0.74862   0.74872   0.75040   0.75057   0.75258
 Alpha virt. eigenvalues --    0.75352   0.75444   0.75516   0.75701   0.75786
 Alpha virt. eigenvalues --    0.76123   0.76160   0.76220   0.76221   0.76413
 Alpha virt. eigenvalues --    0.76625   0.76657   0.76747   0.76798   0.76826
 Alpha virt. eigenvalues --    0.77072   0.77149   0.77207   0.77232   0.77307
 Alpha virt. eigenvalues --    0.77409   0.77548   0.77648   0.77804   0.77891
 Alpha virt. eigenvalues --    0.78272   0.78335   0.78492   0.78633   0.78646
 Alpha virt. eigenvalues --    0.78786   0.78915   0.79073   0.79094   0.79235
 Alpha virt. eigenvalues --    0.79320   0.79521   0.79571   0.79854   0.79919
 Alpha virt. eigenvalues --    0.79943   0.80142   0.80318   0.80437   0.80466
 Alpha virt. eigenvalues --    0.80520   0.80533   0.80678   0.80836   0.80853
 Alpha virt. eigenvalues --    0.81087   0.81129   0.81199   0.81456   0.81583
 Alpha virt. eigenvalues --    0.81627   0.81871   0.82248   0.82258   0.82395
 Alpha virt. eigenvalues --    0.82416   0.82685   0.82782   0.82972   0.83076
 Alpha virt. eigenvalues --    0.83400   0.83414   0.83892   0.84022   0.84035
 Alpha virt. eigenvalues --    0.84633   0.84698   0.84819   0.85011   0.85197
 Alpha virt. eigenvalues --    0.85284   0.85475   0.85584   0.85841   0.85864
 Alpha virt. eigenvalues --    0.86019   0.86087   0.86410   0.86656   0.86905
 Alpha virt. eigenvalues --    0.87051   0.87096   0.87221   0.87450   0.87568
 Alpha virt. eigenvalues --    0.87720   0.87760   0.87875   0.87991   0.88079
 Alpha virt. eigenvalues --    0.88243   0.88290   0.88420   0.88496   0.88717
 Alpha virt. eigenvalues --    0.89108   0.89384   0.89492   0.89768   0.89828
 Alpha virt. eigenvalues --    0.90287   0.90357   0.90506   0.90660   0.90710
 Alpha virt. eigenvalues --    0.91072   0.91239   0.91553   0.91657   0.92137
 Alpha virt. eigenvalues --    0.92230   0.92428   0.92692   0.92797   0.92989
 Alpha virt. eigenvalues --    0.93049   0.93328   0.93409   0.93547   0.93757
 Alpha virt. eigenvalues --    0.94405   0.94725   0.94827   0.95140   0.95177
 Alpha virt. eigenvalues --    0.95318   0.95550   0.95666   0.96068   0.96317
 Alpha virt. eigenvalues --    0.96367   0.96576   0.97072   0.97751   0.97924
 Alpha virt. eigenvalues --    0.99000   0.99034   0.99192   0.99390   0.99593
 Alpha virt. eigenvalues --    0.99842   1.00101   1.00114   1.00464   1.00496
 Alpha virt. eigenvalues --    1.00533   1.00853   1.00966   1.01072   1.01361
 Alpha virt. eigenvalues --    1.01398   1.01436   1.01746   1.02238   1.02311
 Alpha virt. eigenvalues --    1.02831   1.03029   1.03107   1.03491   1.03735
 Alpha virt. eigenvalues --    1.03945   1.04149   1.04366   1.04562   1.04728
 Alpha virt. eigenvalues --    1.05207   1.05387   1.05461   1.05560   1.05676
 Alpha virt. eigenvalues --    1.05715   1.05997   1.06077   1.06431   1.06975
 Alpha virt. eigenvalues --    1.06997   1.07393   1.07659   1.07831   1.08069
 Alpha virt. eigenvalues --    1.08188   1.08683   1.08827   1.08917   1.09057
 Alpha virt. eigenvalues --    1.09088   1.09432   1.09565   1.09655   1.09913
 Alpha virt. eigenvalues --    1.10091   1.10335   1.10487   1.10620   1.10913
 Alpha virt. eigenvalues --    1.10950   1.11338   1.11415   1.11727   1.11897
 Alpha virt. eigenvalues --    1.12517   1.13024   1.13275   1.13469   1.13833
 Alpha virt. eigenvalues --    1.13943   1.14024   1.14327   1.14500   1.14941
 Alpha virt. eigenvalues --    1.14943   1.15193   1.15554   1.15558   1.16161
 Alpha virt. eigenvalues --    1.16267   1.16664   1.16709   1.16824   1.17078
 Alpha virt. eigenvalues --    1.17336   1.17393   1.17660   1.17778   1.17901
 Alpha virt. eigenvalues --    1.18168   1.18338   1.18571   1.19002   1.19240
 Alpha virt. eigenvalues --    1.19249   1.19371   1.19391   1.19664   1.19730
 Alpha virt. eigenvalues --    1.19932   1.20249   1.20271   1.20490   1.20665
 Alpha virt. eigenvalues --    1.20848   1.21083   1.21177   1.21330   1.21398
 Alpha virt. eigenvalues --    1.21598   1.21674   1.21955   1.22138   1.22354
 Alpha virt. eigenvalues --    1.22502   1.22692   1.22694   1.22803   1.22915
 Alpha virt. eigenvalues --    1.23015   1.23173   1.23217   1.23406   1.23546
 Alpha virt. eigenvalues --    1.23556   1.23615   1.23813   1.23923   1.23981
 Alpha virt. eigenvalues --    1.24203   1.24229   1.24333   1.24482   1.24515
 Alpha virt. eigenvalues --    1.24606   1.24640   1.24741   1.24748   1.24856
 Alpha virt. eigenvalues --    1.24941   1.24950   1.25282   1.25320   1.25400
 Alpha virt. eigenvalues --    1.25558   1.25665   1.25762   1.25872   1.26280
 Alpha virt. eigenvalues --    1.26416   1.26604   1.26768   1.27030   1.27043
 Alpha virt. eigenvalues --    1.27128   1.27134   1.27448   1.27451   1.27680
 Alpha virt. eigenvalues --    1.27793   1.27941   1.28181   1.28212   1.28385
 Alpha virt. eigenvalues --    1.28527   1.28715   1.28849   1.28875   1.28991
 Alpha virt. eigenvalues --    1.29183   1.29234   1.29270   1.29333   1.29381
 Alpha virt. eigenvalues --    1.29511   1.29770   1.29776   1.30017   1.30369
 Alpha virt. eigenvalues --    1.30564   1.30769   1.30894   1.31072   1.31118
 Alpha virt. eigenvalues --    1.31312   1.31390   1.31921   1.32129   1.32176
 Alpha virt. eigenvalues --    1.32622   1.32681   1.33152   1.33342   1.33556
 Alpha virt. eigenvalues --    1.33887   1.34089   1.34442   1.34493   1.34798
 Alpha virt. eigenvalues --    1.35156   1.35345   1.35490   1.35628   1.35697
 Alpha virt. eigenvalues --    1.36001   1.36091   1.36349   1.36975   1.37073
 Alpha virt. eigenvalues --    1.37409   1.37755   1.37758   1.37998   1.39091
 Alpha virt. eigenvalues --    1.39498   1.40024   1.40190   1.40487   1.40759
 Alpha virt. eigenvalues --    1.40991   1.41019   1.41200   1.42038   1.42360
 Alpha virt. eigenvalues --    1.42532   1.42652   1.43196   1.43606   1.44317
 Alpha virt. eigenvalues --    1.44528   1.44872   1.45182   1.45862   1.46139
 Alpha virt. eigenvalues --    1.47387   1.47412   1.47701   1.48603   1.48796
 Alpha virt. eigenvalues --    1.49264   1.49630   1.49978   1.50309   1.50598
 Alpha virt. eigenvalues --    1.50928   1.51340   1.52052   1.52084   1.52188
 Alpha virt. eigenvalues --    1.52406   1.52520   1.52740   1.52938   1.53095
 Alpha virt. eigenvalues --    1.53194   1.53465   1.53582   1.53798   1.53850
 Alpha virt. eigenvalues --    1.54034   1.54105   1.54180   1.54482   1.54547
 Alpha virt. eigenvalues --    1.54934   1.54950   1.55096   1.55135   1.55221
 Alpha virt. eigenvalues --    1.55581   1.55772   1.56187   1.56816   1.56959
 Alpha virt. eigenvalues --    1.57398   1.58497   1.58634   1.59069   1.59687
 Alpha virt. eigenvalues --    1.59921   1.60165   1.60722   1.60989   1.61277
 Alpha virt. eigenvalues --    1.61539   1.61748   1.61943   1.62292   1.62560
 Alpha virt. eigenvalues --    1.62948   1.63030   1.63123   1.64468   1.64513
 Alpha virt. eigenvalues --    1.64998   1.65194   1.65225   1.65712   1.65728
 Alpha virt. eigenvalues --    1.65907   1.66055   1.66192   1.66661   1.66703
 Alpha virt. eigenvalues --    1.66838   1.66850   1.67308   1.67369   1.67706
 Alpha virt. eigenvalues --    1.67916   1.67929   1.68188   1.68376   1.68451
 Alpha virt. eigenvalues --    1.68507   1.68614   1.68719   1.68730   1.68861
 Alpha virt. eigenvalues --    1.68945   1.69056   1.69211   1.69330   1.69621
 Alpha virt. eigenvalues --    1.69798   1.69899   1.70020   1.70103   1.70218
 Alpha virt. eigenvalues --    1.70308   1.70364   1.70580   1.70586   1.70629
 Alpha virt. eigenvalues --    1.70807   1.70875   1.71048   1.71083   1.71149
 Alpha virt. eigenvalues --    1.71308   1.71365   1.71437   1.71675   1.71676
 Alpha virt. eigenvalues --    1.71854   1.71961   1.72038   1.72115   1.72438
 Alpha virt. eigenvalues --    1.72592   1.72713   1.72983   1.73088   1.73104
 Alpha virt. eigenvalues --    1.73417   1.73437   1.73553   1.73747   1.73788
 Alpha virt. eigenvalues --    1.74358   1.74434   1.74497   1.74506   1.74559
 Alpha virt. eigenvalues --    1.74609   1.74816   1.74946   1.74961   1.75083
 Alpha virt. eigenvalues --    1.75138   1.75261   1.75406   1.75415   1.75535
 Alpha virt. eigenvalues --    1.75561   1.75695   1.75744   1.75862   1.76059
 Alpha virt. eigenvalues --    1.76182   1.76474   1.76587   1.76825   1.76969
 Alpha virt. eigenvalues --    1.77081   1.77097   1.77246   1.77371   1.77429
 Alpha virt. eigenvalues --    1.77494   1.77619   1.77888   1.77918   1.78021
 Alpha virt. eigenvalues --    1.78109   1.78125   1.78173   1.78329   1.78412
 Alpha virt. eigenvalues --    1.78612   1.78660   1.78664   1.78751   1.78962
 Alpha virt. eigenvalues --    1.79170   1.79249   1.79279   1.79385   1.79470
 Alpha virt. eigenvalues --    1.79489   1.79623   1.79808   1.79998   1.80667
 Alpha virt. eigenvalues --    1.80684   1.80809   1.80952   1.81281   1.81398
 Alpha virt. eigenvalues --    1.81563   1.81700   1.81872   1.82135   1.82197
 Alpha virt. eigenvalues --    1.82257   1.82395   1.82499   1.82702   1.82732
 Alpha virt. eigenvalues --    1.82970   1.82987   1.83095   1.83380   1.83394
 Alpha virt. eigenvalues --    1.83585   1.83622   1.83663   1.84155   1.84267
 Alpha virt. eigenvalues --    1.84313   1.84354   1.84739   1.84789   1.85004
 Alpha virt. eigenvalues --    1.85122   1.85704   1.85798   1.86176   1.86745
 Alpha virt. eigenvalues --    1.87146   1.87555   1.87652   1.87724   1.87855
 Alpha virt. eigenvalues --    1.88172   1.88221   1.88326   1.88786   1.88911
 Alpha virt. eigenvalues --    1.89291   1.89302   1.89387   1.89550   1.89687
 Alpha virt. eigenvalues --    1.89740   1.89918   1.90185   1.90368   1.90423
 Alpha virt. eigenvalues --    1.90583   1.91180   1.91375   1.91529   1.91534
 Alpha virt. eigenvalues --    1.91606   1.91729   1.91938   1.92224   1.92343
 Alpha virt. eigenvalues --    1.92345   1.92599   1.92660   1.92971   1.93250
 Alpha virt. eigenvalues --    1.93312   1.93435   1.93456   1.93549   1.93884
 Alpha virt. eigenvalues --    1.93953   1.94024   1.94055   1.94131   1.94421
 Alpha virt. eigenvalues --    1.94478   1.94670   1.94731   1.94785   1.94837
 Alpha virt. eigenvalues --    1.95133   1.95229   1.95392   1.95439   1.95507
 Alpha virt. eigenvalues --    1.95591   1.95642   1.95765   1.95824   1.95842
 Alpha virt. eigenvalues --    1.95980   1.96154   1.96364   1.96382   1.96578
 Alpha virt. eigenvalues --    1.96596   1.96672   1.96886   1.97092   1.97281
 Alpha virt. eigenvalues --    1.97555   1.97656   1.97678   1.98030   1.98065
 Alpha virt. eigenvalues --    1.98116   1.98136   1.98181   1.98329   1.98334
 Alpha virt. eigenvalues --    1.98396   1.98663   1.98715   1.98809   1.99097
 Alpha virt. eigenvalues --    1.99520   1.99736   2.00008   2.00316   2.00629
 Alpha virt. eigenvalues --    2.00697   2.00819   2.00829   2.01056   2.01192
 Alpha virt. eigenvalues --    2.01321   2.01673   2.01856   2.01888   2.02206
 Alpha virt. eigenvalues --    2.02261   2.02386   2.02433   2.02553   2.02926
 Alpha virt. eigenvalues --    2.03276   2.03293   2.03987   2.04290   2.04529
 Alpha virt. eigenvalues --    2.04535   2.04667   2.04836   2.04859   2.05270
 Alpha virt. eigenvalues --    2.05921   2.06042   2.06191   2.06230   2.06497
 Alpha virt. eigenvalues --    2.06537   2.06945   2.07017   2.07134   2.07339
 Alpha virt. eigenvalues --    2.07405   2.07775   2.07924   2.08250   2.08490
 Alpha virt. eigenvalues --    2.08704   2.08950   2.08979   2.09072   2.09177
 Alpha virt. eigenvalues --    2.09316   2.09484   2.09678   2.09705   2.09850
 Alpha virt. eigenvalues --    2.09994   2.10104   2.10120   2.10881   2.11290
 Alpha virt. eigenvalues --    2.11527   2.11878   2.11969   2.12098   2.12511
 Alpha virt. eigenvalues --    2.12546   2.12676   2.12703   2.13025   2.13051
 Alpha virt. eigenvalues --    2.13238   2.13242   2.13523   2.13799   2.14006
 Alpha virt. eigenvalues --    2.14144   2.14482   2.14578   2.14755   2.14784
 Alpha virt. eigenvalues --    2.14920   2.15144   2.15260   2.15495   2.15713
 Alpha virt. eigenvalues --    2.15810   2.16047   2.16822   2.16903   2.16995
 Alpha virt. eigenvalues --    2.17250   2.17486   2.17591   2.17937   2.18124
 Alpha virt. eigenvalues --    2.18508   2.18574   2.18858   2.19103   2.19105
 Alpha virt. eigenvalues --    2.19301   2.19598   2.20109   2.20201   2.20359
 Alpha virt. eigenvalues --    2.20662   2.20828   2.21053   2.21437   2.21636
 Alpha virt. eigenvalues --    2.21812   2.21964   2.22054   2.22114   2.22162
 Alpha virt. eigenvalues --    2.22524   2.22691   2.22691   2.23227   2.23340
 Alpha virt. eigenvalues --    2.23529   2.23555   2.23806   2.24117   2.24344
 Alpha virt. eigenvalues --    2.24424   2.24617   2.24798   2.24942   2.25234
 Alpha virt. eigenvalues --    2.25419   2.25431   2.25844   2.25912   2.26107
 Alpha virt. eigenvalues --    2.26167   2.26418   2.26433   2.26513   2.26762
 Alpha virt. eigenvalues --    2.27036   2.27383   2.27453   2.27756   2.28067
 Alpha virt. eigenvalues --    2.28128   2.28345   2.28382   2.28526   2.28847
 Alpha virt. eigenvalues --    2.28957   2.29023   2.29574   2.29593   2.29721
 Alpha virt. eigenvalues --    2.29759   2.30180   2.30282   2.30388   2.30577
 Alpha virt. eigenvalues --    2.30587   2.30934   2.31197   2.31318   2.31404
 Alpha virt. eigenvalues --    2.31668   2.31700   2.31755   2.31781   2.31880
 Alpha virt. eigenvalues --    2.32280   2.32355   2.32632   2.32989   2.32991
 Alpha virt. eigenvalues --    2.33094   2.33141   2.33166   2.33216   2.33498
 Alpha virt. eigenvalues --    2.33508   2.33632   2.33863   2.34144   2.34347
[...]
 Alpha virt. eigenvalues --    2.50738   2.51452   2.51928   2.52243   2.52497
 Alpha virt. eigenvalues --    2.52859   2.53002   2.53192   2.53969   2.54208
 Alpha virt. eigenvalues --    2.54349   2.54597   2.54700   2.56184   2.56350
 Alpha virt. eigenvalues --    2.56418   2.56746   2.56945   2.57224   2.57482
 Alpha virt. eigenvalues --    2.57501   2.58022   2.58186   2.58630   2.59098
 Alpha virt. eigenvalues --    2.59155   2.59497   2.59504   2.59671   2.60057
 Alpha virt. eigenvalues --    2.60368   2.60740   2.60885   2.61250   2.61728
 Alpha virt. eigenvalues --    2.61871   2.61975   2.62070   2.62497   2.62587
 Alpha virt. eigenvalues --    2.62810   2.62847   2.63611   2.63972   2.64083
 Alpha virt. eigenvalues --    2.64379   2.64380   2.64876   2.65143   2.65307
 Alpha virt. eigenvalues --    2.65395   2.65444   2.65451   2.65894   2.65993
 Alpha virt. eigenvalues --    2.66379   2.66480   2.66885   2.66948   2.67368
 Alpha virt. eigenvalues --    2.67396   2.67996   2.68129   2.68479   2.68648
 Alpha virt. eigenvalues --    2.68863   2.68878   2.69187   2.69245   2.69307
 Alpha virt. eigenvalues --    2.69429   2.69438   2.69684   2.69989   2.70121
 Alpha virt. eigenvalues --    2.70240   2.70429   2.70490   2.70549   2.71358
 Alpha virt. eigenvalues --    2.71628   2.71740   2.71952   2.72080   2.72634
 Alpha virt. eigenvalues --    2.72867   2.73053   2.73154   2.73247   2.73379
 Alpha virt. eigenvalues --    2.73439   2.73670   2.73696   2.74050   2.74192
 Alpha virt. eigenvalues --    2.74460   2.74691   2.74864   2.75010   2.75076
 Alpha virt. eigenvalues --    2.75338   2.75604   2.75773   2.75855   2.76493
 Alpha virt. eigenvalues --    2.76535   2.76584   2.76732   2.77554   2.77605
 Alpha virt. eigenvalues --    2.78330   2.78582   2.78807   2.78886   2.79119
 Alpha virt. eigenvalues --    2.79217   2.79351   2.79650   2.80075   2.81504
 Alpha virt. eigenvalues --    2.81570   2.81716   2.81871   2.82198   2.82210
 Alpha virt. eigenvalues --    2.84820   2.85079   2.85683   2.85895   2.85965
 Alpha virt. eigenvalues --    2.85982   2.86299   2.86748   2.87167   2.87553
 Alpha virt. eigenvalues --    2.87785   2.87788   2.88098   2.88376   2.88633
 Alpha virt. eigenvalues --    2.88699   2.88890   2.89258   2.89312   2.89439
 Alpha virt. eigenvalues --    2.89679   2.90068   2.90692   2.90779   2.91077
 Alpha virt. eigenvalues --    2.91401   2.91426   2.91481   2.91877   2.91937
 Alpha virt. eigenvalues --    2.91989   2.92291   2.92299   2.93143   2.93593
 Alpha virt. eigenvalues --    2.94165   2.94330   2.94437   2.95214   2.95480
 Alpha virt. eigenvalues --    2.95569   2.96101   2.96237   2.96415   2.96479
 Alpha virt. eigenvalues --    2.96624   2.96721   2.97357   2.97929   2.97994
 Alpha virt. eigenvalues --    2.98170   2.98582   2.99987   3.00646   3.00654
 Alpha virt. eigenvalues --    3.01294   3.01325   3.01570   3.01579   3.02515
 Alpha virt. eigenvalues --    3.02830   3.03319   3.03938   3.04793   3.05145
 Alpha virt. eigenvalues --    3.05436   3.05624   3.06237   3.07044   3.07644
 Alpha virt. eigenvalues --    3.07680   3.08440   3.08443   3.08559   3.08787
 Alpha virt. eigenvalues --    3.08945   3.09398   3.10106   3.10777   3.10908
 Alpha virt. eigenvalues --    3.12353   3.12567   3.12611   3.12880   3.15326
 Alpha virt. eigenvalues --    3.15369   3.15703   3.15818   3.15885   3.16112
 Alpha virt. eigenvalues --    3.16392   3.16543   3.16816   3.16839   3.17053
 Alpha virt. eigenvalues --    3.17392   3.18808   3.19698   3.27318   3.27461
 Alpha virt. eigenvalues --    3.27832   3.28110   3.28561   3.29099   3.29817
 Alpha virt. eigenvalues --    3.30002   3.30273   3.30627   3.31918   3.32055
 Alpha virt. eigenvalues --    3.34229   3.34327   3.36729   3.37167   3.40980
 Alpha virt. eigenvalues --    3.41194   3.44566   3.45402   3.48262   3.48349
 Alpha virt. eigenvalues --    3.49934   3.49944   3.50019   3.50058   3.54119
 Alpha virt. eigenvalues --    3.54242   3.55445   3.55645   3.61565   3.61642
 Alpha virt. eigenvalues --    3.63004   3.63101   3.63321   3.63493   3.63504
 Alpha virt. eigenvalues --    3.63600   3.73657   3.73909   3.75704   3.75890
 Alpha virt. eigenvalues --    3.79667   3.80660  51.67370  51.67494
          Condensed to atoms (all electrons):
 Mulliken charges:
               1
     1  Pd   0.477819
     2  Pd   0.477811
     3  C    0.144893
     4  N   -0.350047
     5  C    0.136549
     6  C   -0.034016
     7  C    0.051939
     8  C    0.021585
     9  C   -0.028080
    10  C   -0.075353
    11  C    0.212352
    12  O   -0.271744
    13  C    0.212440
    14  C   -0.075500
    15  C   -0.028052
    16  C    0.021513
    17  C    0.051952
    18  C   -0.034842
    19  C    0.144905
    20  N   -0.350025
    21  C    0.136558
    22  C   -0.034037
    23  C   -0.050284
    24  C    0.031543
    25  C    0.031561
    26  C   -0.050223
    27  C   -0.034825
    28  H    0.112882
    29  H    0.117218
    30  H    0.065999
    31  H    0.049721
    32  H    0.044167
    33  H    0.044248
    34  H    0.049711
    35  H    0.062581
    36  H    0.112864
    37  H    0.117212
    38  H    0.065994
    39  H    0.033993
    40  H    0.033954
    41  H    0.062572
    42  C    0.141378
    43  N   -0.351205
    44  C    0.143542
    45  C   -0.026109
    46  C    0.046727
    47  C    0.013669
    48  C   -0.036955
    49  C   -0.070504
    50  C    0.206265
    51  O   -0.263258
    52  C    0.206163
    53  C   -0.070430
    54  C   -0.036986
    55  C    0.013700
    56  C    0.046689
    57  C   -0.032191
    58  C    0.141351
    59  N   -0.351192
    60  C    0.143544
    61  C   -0.026114
    62  C   -0.038859
    63  C    0.020377
    64  C    0.020395
    65  C   -0.038887
    66  C   -0.032209
    67  H    0.117673
    68  H    0.112940
    69  H    0.063175
    70  H    0.052041
    71  H    0.046422
    72  H    0.046447
    73  H    0.052073
    74  H    0.066192
    75  H    0.117696
    76  H    0.112945
    77  H    0.063207
    78  H    0.036944
    79  H    0.036929
    80  H    0.066194
    81  C   -0.029032
    82  C    0.036737
    83  C   -0.008845
    84  C    0.039875
    85  C   -0.031223
    86  C    0.005159
    87  C   -0.005844
    88  C   -0.057319
    89  C   -0.045208
    90  C    0.008177
    91  C   -0.088629
    92  C   -0.031877
    93  C    0.040290
    94  C   -0.200332
    95  C    0.031180
    96  C    0.031147
    97  C   -0.200346
    98  C    0.040283
    99  C   -0.031868
   100  C   -0.088605
   101  C    0.008140
   102  C   -0.045173
   103  C   -0.057337
   104  C    0.039861
   105  C   -0.008846
   106  C    0.036755
   107  C   -0.029044
   108  C    0.119792
   109  N   -0.338284
   110  C    0.153080
   111  C   -0.005866
   112  C    0.005189
   113  C   -0.031244
   114  C    0.004783
   115  C    0.005805
   116  S    0.215419
   117  C    0.005797
   118  C    0.004760
   119  C    0.153018
   120  N   -0.338259
   121  C    0.119836
   122  H    0.061205
   123  H    0.046887
   124  H    0.061047
   125  H    0.047380
   126  H    0.053807
   127  H    0.041500
   128  H    0.051323
   129  H    0.051366
   130  H    0.041521
   131  H    0.053780
   132  H    0.061215
   133  H    0.106115
   134  H    0.110144
   135  H    0.047374
   136  H    0.061020
   137  H    0.046898
   138  H    0.043233
   139  H    0.044688
   140  H    0.044695
   141  H    0.043220
   142  H    0.110159
   143  H    0.106072
   144  C   -0.029963
   145  C    0.036917
   146  C   -0.007762
   147  C    0.040714
   148  C   -0.034282
   149  C    0.006026
   150  C   -0.005912
   151  C   -0.049840
   152  C   -0.049296
   153  C    0.012095
   154  C   -0.086925
   155  C   -0.037588
   156  C    0.059512
   157  C   -0.208287
   158  C    0.039624
   159  C    0.039541
   160  C   -0.208263
   161  C    0.059469
   162  C   -0.037537
   163  C   -0.087027
   164  C    0.012159
   165  C   -0.049322
   166  C   -0.049784
   167  C    0.040784
   168  C   -0.007778
   169  C    0.036734
   170  C   -0.029833
   171  C    0.119217
   172  N   -0.335390
   173  C    0.151757
   174  C   -0.005848
   175  C    0.005978
   176  C   -0.034329
   177  C   -0.000956
   178  C    0.001866
   179  S    0.204103
   180  C    0.001841
   181  C   -0.000955
   182  C    0.151648
   183  N   -0.335366
   184  C    0.119252
   185  H    0.061206
   186  H    0.047253
   187  H    0.060798
   188  H    0.047259
   189  H    0.053982
   190  H    0.040516
   191  H    0.050778
   192  H    0.050827
   193  H    0.040497
   194  H    0.053994
   195  H    0.061171
   196  H    0.105389
   197  H    0.106330
   198  H    0.047245
   199  H    0.060844
   200  H    0.047280
   201  H    0.042782
   202  H    0.042221
   203  H    0.042203
   204  H    0.042811
   205  H    0.106421
   206  H    0.105355
 Sum of Mulliken charges =   4.00000
 Mulliken charges with hydrogens summed into heavy atoms:
               1
     1  Pd   0.477819
     2  Pd   0.477811
     3  C    0.257775
     4  N   -0.350047
     5  C    0.253767
     6  C    0.031983
     7  C    0.051939
     8  C    0.021585
     9  C    0.021640
    10  C   -0.031186
    11  C    0.212352
    12  O   -0.271744
    13  C    0.212440
    14  C   -0.031252
    15  C    0.021659
    16  C    0.021513
    17  C    0.051952
    18  C    0.027740
    19  C    0.257770
    20  N   -0.350025
    21  C    0.253769
    22  C    0.031957
    23  C   -0.016290
    24  C    0.031543
    25  C    0.031561
    26  C   -0.016268
    27  C    0.027746
    42  C    0.259051
    43  N   -0.351205
    44  C    0.256482
    45  C    0.037066
    46  C    0.046727
    47  C    0.013669
    48  C    0.015086
    49  C   -0.024082
    50  C    0.206265
    51  O   -0.263258
    52  C    0.206163
    53  C   -0.023982
    54  C    0.015087
    55  C    0.013700
    56  C    0.046689
    57  C    0.034001
    58  C    0.259048
    59  N   -0.351192
    60  C    0.256489
    61  C    0.037093
    62  C   -0.001915
    63  C    0.020377
    64  C    0.020395
    65  C   -0.001958
    66  C    0.033985
    81  C    0.032173
    82  C    0.036737
    83  C   -0.008845
    84  C    0.039875
    85  C    0.015663
    86  C    0.066207
    87  C    0.041535
    88  C   -0.057319
    89  C    0.008598
    90  C    0.049677
    91  C   -0.088629
    92  C   -0.031877
    93  C    0.040290
    94  C   -0.200332
    95  C    0.082503
    96  C    0.082513
    97  C   -0.200346
    98  C    0.040283
    99  C   -0.031868
   100  C   -0.088605
   101  C    0.049660
   102  C    0.008607
   103  C   -0.057337
   104  C    0.039861
   105  C   -0.008846
   106  C    0.036755
   107  C    0.032171
   108  C    0.225907
   109  N   -0.338284
   110  C    0.263224
   111  C    0.041508
   112  C    0.066209
   113  C    0.015654
   114  C    0.048017
   115  C    0.050494
   116  S    0.215419
   117  C    0.050492
   118  C    0.047979
   119  C    0.263177
   120  N   -0.338259
   121  C    0.225908
   144  C    0.031243
   145  C    0.036917
   146  C   -0.007762
   147  C    0.040714
   148  C    0.012971
   149  C    0.066824
   150  C    0.041348
   151  C   -0.049840
   152  C    0.004686
   153  C    0.052611
   154  C   -0.086925
   155  C   -0.037588
   156  C    0.059512
   157  C   -0.208287
   158  C    0.090402
   159  C    0.090369
   160  C   -0.208263
   161  C    0.059469
   162  C   -0.037537
   163  C   -0.087027
   164  C    0.052657
   165  C    0.004673
   166  C   -0.049784
   167  C    0.040784
   168  C   -0.007778
   169  C    0.036734
   170  C    0.031338
   171  C    0.224606
   172  N   -0.335390
   173  C    0.258087
   174  C    0.041398
   175  C    0.066822
   176  C    0.012951
   177  C    0.041826
   178  C    0.044087
   179  S    0.204103
   180  C    0.044045
   181  C    0.041855
   182  C    0.258069
   183  N   -0.335366
   184  C    0.224607
 Electronic spatial extent (au):  <R**2>=         232944.3296
 Charge=              4.0000 electrons
 Dipole moment (field-independent basis, Debye):
    X=             -0.0013    Y=              0.0795    Z=             -1.1593  Tot=              1.1620
 Quadrupole moment (field-independent basis, Debye-Ang):
   XX=            525.5876   YY=           -505.2322   ZZ=           -733.8302
   XY=             -0.0347   XZ=              0.0143   YZ=             81.5990
 Traceless Quadrupole moment (field-independent basis, Debye-Ang):
   XX=            763.4125   YY=           -267.4073   ZZ=           -496.0052
   XY=             -0.0347   XZ=              0.0143   YZ=             81.5990
 Octapole moment (field-independent basis, Debye-Ang**2):
  XXX=             -0.1191  YYY=            167.4121  ZZZ=             14.0213  XYY=             -0.0362
  XXY=            -48.0140  XXZ=           -283.0363  XZZ=             -0.0848  YZZ=            -65.8729
  YYZ=            -39.2823  XYZ=             -0.1263
 Hexadecapole moment (field-independent basis, Debye-Ang**3):
 XXXX=         -80807.2168 YYYY=         -90031.8425 ZZZZ=         -10363.5895 XXXY=             -0.4383
 XXXZ=              2.7697 YYYX=             -2.8876 YYYZ=           4621.2091 ZZZX=              0.1903
 ZZZY=            448.9355 XXYY=         -31012.4183 XXZZ=         -35424.9540 YYZZ=         -18588.8122
 XXYZ=           4555.8063 YYXZ=              0.1418 ZZXY=              0.0269
 N-N= 2.943193818229D+04 E-N=-7.309372096414D+04  KE= 6.030978030354D+03
 Unable to Open any file for archive entry.
 1\1\GINC-CX3-14-14\SP\RPBE1PBE\def2SVP\C120H72N8O2Pd2S2(4+)\VPOSLIGU\0
 3-Jun-2023\0\\# SP PBE1PBE/def2svp empiricaldispersion=GD3BJ scrf=(sol
 vent=dmso)\\trans_l1_ld\\4,1\Pd,0,-7.5065,-0.0612,-0.1076\Pd,0,7.5062,
 -0.0616,-0.1075\C,0,-5.0685,1.573,-0.5212\N,0,-6.0728,1.3161,0.3336\C,
 0,-6.126,1.9853,1.498\C,0,-5.1793,2.932,1.8441\C,0,-4.1107,3.2034,0.97
 7\C,0,-3.0531,4.158,1.35\C,0,-3.384,5.3532,2.0234\C,0,-2.4114,6.2598,2
 .4292\C,0,-1.0917,5.9156,2.1732\O,0,0.0001,6.6343,2.5492\C,0,1.0918,5.
 9157,2.173\C,0,2.4115,6.26,2.4287\C,0,3.3842,5.3535,2.0229\C,0,3.0532,
 4.1582,1.3495\C,0,4.1109,3.2036,0.9766\C,0,4.0793,2.4985,-0.2352\C,0,5
 .0687,1.5731,-0.5215\N,0,6.0729,1.3161,0.3334\C,0,6.1261,1.9854,1.4977
 \C,0,5.1794,2.9322,1.8437\C,0,1.7151,3.8519,1.0761\C,0,0.7244,4.7293,1
 .5116\C,0,-0.7242,4.7293,1.5117\C,0,-1.715,3.8517,1.0764\C,0,-4.0791,2
 .4983,-0.2348\H,0,-5.0681,1.02,-1.462\H,0,-6.952,1.7433,2.1688\H,0,-5.
 2597,3.4284,2.8118\H,0,-4.4339,5.5843,2.2134\H,0,-2.6686,7.1894,2.9378
 \H,0,2.6688,7.1897,2.9374\H,0,4.4341,5.5847,2.2127\H,0,3.2963,2.6825,-
 0.9719\H,0,5.0683,1.02,-1.4622\H,0,6.9519,1.7433,2.1687\H,0,5.2598,3.4
 286,2.8114\H,0,1.4503,2.9187,0.5753\H,0,-1.4502,2.9186,0.5756\H,0,-3.2
 96,2.6822,-0.9714\C,0,-6.0433,-2.079,-1.6577\N,0,-6.0389,-1.4135,-0.49
 04\C,0,-5.0904,-1.691,0.4192\C,0,-4.1088,-2.6401,0.1885\C,0,-4.0956,-3
 .3476,-1.0215\C,0,-3.0472,-4.3313,-1.3405\C,0,-3.3792,-5.526,-2.0149\C
 ,0,-2.4103,-6.449,-2.3921\C,0,-1.0917,-6.1169,-2.1141\O,0,-0.0003,-6.8
 405,-2.4813\C,0,1.0911,-6.1169,-2.1139\C,0,2.4098,-6.449,-2.3919\C,0,3
 .3786,-5.5261,-2.0145\C,0,3.0466,-4.3314,-1.3402\C,0,4.095,-3.3476,-1.
 0213\C,0,5.1025,-3.0493,-1.9498\C,0,6.0427,-2.0792,-1.6576\N,0,6.0384,
 -1.4137,-0.4903\C,0,5.0899,-1.691,0.4193\C,0,4.1082,-2.64,0.1887\C,0,1
 .7118,-4.0401,-1.0381\C,0,0.7235,-4.9288,-1.4556\C,0,-0.7241,-4.9288,-
 1.4556\C,0,-1.7124,-4.0401,-1.0382\C,0,-5.1031,-3.0492,-1.95\H,0,-6.82
 53,-1.8183,-2.3724\H,0,-5.1309,-1.1377,1.359\H,0,-3.3722,-2.8437,0.966
 8\H,0,-4.4266,-5.7392,-2.237\H,0,-2.6682,-7.3758,-2.9056\H,0,2.6677,-7
 .3759,-2.9053\H,0,4.4261,-5.7393,-2.2365\H,0,5.1392,-3.5458,-2.92\H,0,
 6.8248,-1.8186,-2.3723\H,0,5.1304,-1.1377,1.3591\H,0,3.3715,-2.8435,0.
 967\H,0,1.4463,-3.1052,-0.5407\H,0,-1.447,-3.1052,-0.5408\H,0,-5.1399,
 -3.5457,-2.9202\C,0,10.911,-2.2909,-1.5093\C,0,10.6786,-3.6058,-1.0322
 \C,0,9.4846,-3.8342,-0.2859\C,0,9.1287,-5.1575,0.1342\C,0,9.9935,-6.18
 91,-0.1739\C,0,11.2038,-5.9533,-0.8658\C,0,11.5458,-4.692,-1.2969\C,0,
 7.8061,-5.4074,0.7553\C,0,7.4022,-4.7666,1.9373\C,0,6.0977,-4.8798,2.3
 979\C,0,5.1565,-5.6513,1.6897\C,0,3.7885,-5.6484,2.073\C,0,2.6051,-5.5
 555,2.3593\C,0,1.2461,-5.3922,2.6785\C,0,0.7022,-4.6477,3.7176\C,0,-0.
 7035,-4.6477,3.7175\C,0,-1.2474,-5.3921,2.6784\C,0,-2.6063,-5.5553,2.3
 589\C,0,-3.7897,-5.6481,2.0726\C,0,-5.1577,-5.651,1.6892\C,0,-6.0989,-
 4.8796,2.3975\C,0,-7.4034,-4.7662,1.9369\C,0,-7.8072,-5.4068,0.7548\C,
 0,-9.1298,-5.1567,0.1335\C,0,-9.4855,-3.8334,-0.2864\C,0,-10.6794,-3.6
 048,-1.0328\C,0,-10.9115,-2.2898,-1.5099\C,0,-10.0094,-1.2907,-1.2555\
 N,0,-8.8896,-1.5134,-0.51\C,0,-8.6476,-2.728,-0.0455\C,0,-11.5466,-4.6
 909,-1.2978\C,0,-11.2048,-5.9523,-0.8668\C,0,-9.9946,-6.1882,-0.1748\C
 ,0,-6.8884,-6.236,0.0948\C,0,-5.5842,-6.3638,0.5542\S,0,-0.0006,-6.104
 ,1.7031\C,0,5.583,-6.3643,0.5548\C,0,6.8873,-6.2366,0.0954\C,0,8.6468,
 -2.7287,-0.0453\N,0,8.889,-1.5142,-0.5098\C,0,10.009,-1.2917,-1.2551\H
 ,0,11.7999,-2.073,-2.1035\H,0,9.7375,-7.2081,0.1241\H,0,11.8671,-6.796
 1,-1.0722\H,0,12.4692,-4.5189,-1.8531\H,0,8.1156,-4.1554,2.4952\H,0,5.
 7887,-4.3486,3.2998\H,0,1.3204,-4.118,4.4422\H,0,-1.3219,-4.1179,4.442
 \H,0,-5.7899,-4.3485,3.2995\H,0,-8.1168,-4.1551,2.4948\H,0,-11.8003,-2
 .0717,-2.1042\H,0,-10.1483,-0.2803,-1.64\H,0,-7.7375,-2.8594,0.5356\H,
 0,-12.4699,-4.5176,-1.8541\H,0,-11.8682,-6.7949,-1.0734\H,0,-9.7388,-7
 .2073,0.1231\H,0,-7.1912,-6.752,-0.8192\H,0,-4.8715,-6.989,0.0146\H,0,
 4.8703,-6.9895,0.0152\H,0,7.1901,-6.7529,-0.8184\H,0,7.7365,-2.86,0.53
 56\H,0,10.1481,-0.2814,-1.6396\C,0,11.1318,1.9948,0.9469\C,0,10.9224,3
 .3179,0.4821\C,0,9.652,3.6204,-0.0921\C,0,9.3273,4.9612,-0.479\C,0,10.
 2988,5.9312,-0.3247\C,0,11.5782,5.6189,0.1889\C,0,11.8907,4.3427,0.597
 9\C,0,7.9446,5.3127,-0.8831\C,0,7.2828,4.7001,-1.9592\C,0,5.9379,4.948
 8,-2.206\C,0,5.2155,5.8326,-1.384\C,0,3.818,6.0452,-1.5318\C,0,2.6148,
 6.2517,-1.512\C,0,1.2478,6.5526,-1.387\C,0,0.7034,7.6324,-0.7054\C,0,-
 0.7014,7.6324,-0.7053\C,0,-1.246,6.5527,-1.3868\C,0,-2.613,6.2518,-1.5
 116\C,0,-3.8163,6.0455,-1.5312\C,0,-5.2138,5.833,-1.3833\C,0,-5.9363,4
 .9493,-2.2054\C,0,-7.2812,4.7008,-1.9585\C,0,-7.9429,5.3134,-0.8824\C,
 0,-9.3258,4.9623,-0.4784\C,0,-9.651,3.6215,-0.0919\C,0,-10.9215,3.3194
 ,0.4823\C,0,-11.1315,1.9962,0.9468\C,0,-10.1452,1.0539,0.8244\N,0,-8.9
 547,1.3407,0.224\C,0,-8.7233,2.5692,-0.2074\C,0,-11.8895,4.3446,0.5982
 \C,0,-11.5765,5.6207,0.1894\C,0,-10.2969,5.9326,-0.324\C,0,-7.2346,6.2
 398,-0.1026\C,0,-5.8944,6.5008,-0.347\S,0,0.0008,5.5316,-2.0337\C,0,5.
 8962,6.5004,-0.3478\C,0,7.2364,6.2392,-0.1033\C,0,8.724,2.5684,-0.2076
 \N,0,8.9549,1.3399,0.2241\C,0,10.1452,1.0527,0.8246\H,0,12.0762,1.7243
 ,1.422\H,0,10.0724,6.9627,-0.603\H,0,12.3209,6.4148,0.277\H,0,12.8699,
 4.1113,1.0216\H,0,7.8258,4.0119,-2.6113\H,0,5.4331,4.4462,-3.0328\H,0,
 1.3225,8.3843,-0.2166\H,0,-1.3204,8.3844,-0.2163\H,0,-5.4316,4.4467,-3
 .0322\H,0,-7.8244,4.0128,-2.6107\H,0,-12.076,1.726,1.4217\H,0,-10.2726
 ,0.038,1.1977\H,0,-7.7546,2.7543,-0.6651\H,0,-12.8688,4.1134,1.0217\H,
 0,-12.319,6.4169,0.2776\H,0,-10.0702,6.9641,-0.6022\H,0,-7.7353,6.7311
 ,0.7346\H,0,-5.3499,7.205,0.2842\H,0,5.3519,7.2047,0.2834\H,0,7.7372,6
 .7305,0.7339\H,0,7.7553,2.7537,-0.6654\H,0,10.2722,0.0369,1.1981\\Vers
 ion=ES64L-G16RevC.01\State=1-A\HF=-6246.3406381\RMSD=2.410e-09\Dipole=
 -0.0005146,0.0312633,-0.4560874\Quadrupole=567.5785073,-198.8107715,-3
 68.7677358,-0.0251502,0.01056,60.6668891\PG=C01 [X(C120H72N8O2Pd2S2)]\
 \@
 The archive entry for this job was punched.


 THE BEST WAY TO CONVINCE A FOOL THAT HE IS WRONG 
 IS TO LET HIM HAVE HIS OWN WAY.

                                         JOSH BILLINGS
 Job cpu time:       1 days  1 hours 54 minutes 40.1 seconds.
 Elapsed time:       0 days  0 hours 33 minutes 55.7 seconds.
 File lengths (MBytes):  RWF=   5848 Int=      0 D2E=      0 Chk=    312 Scr=     16
 Normal termination of Gaussian 16 at Sat Jun  3 02:47:37 2023.
