 Entering Gaussian System, Link 0=g16
 Initial command:
 /apps/gaussian/g16-c01-avx/g16/l1.exe "/rds/general/ephemeral/user/atarzia/ephemeral/unsymm/single_point_dft/s_4b1_c/Gau-3782228.inp" -scrdir="/rds/general/ephemeral/user/atarzia/ephemeral/unsymm/single_point_dft/s_4b1_c/"
 Entering Link 1 = /apps/gaussian/g16-c01-avx/g16/l1.exe PID=   3782229.
  
 Copyright (c) 1988-2019, Gaussian, Inc.  All Rights Reserved.
  
 This is part of the Gaussian(R) 16 program.  It is based on
 the Gaussian(R) 09 system (copyright 2009, Gaussian, Inc.),
 the Gaussian(R) 03 system (copyright 2003, Gaussian, Inc.),
 the Gaussian(R) 98 system (copyright 1998, Gaussian, Inc.),
 the Gaussian(R) 94 system (copyright 1995, Gaussian, Inc.),
 the Gaussian 92(TM) system (copyright 1992, Gaussian, Inc.),
 the Gaussian 90(TM) system (copyright 1990, Gaussian, Inc.),
 the Gaussian 88(TM) system (copyright 1988, Gaussian, Inc.),
 the Gaussian 86(TM) system (copyright 1986, Carnegie Mellon
 University), and the Gaussian 82(TM) system (copyright 1983,
 Carnegie Mellon University). Gaussian is a federally registered
 trademark of Gaussian, Inc.
  
 This software contains proprietary and confidential information,
 including trade secrets, belonging to Gaussian, Inc.
  
 This software is provided under written license and may be
 used, copied, transmitted, or stored only in accord with that
 written license.
  
 The following legend is applicable only to US Government
 contracts under FAR:
  
                    RESTRICTED RIGHTS LEGEND
  
 Use, reproduction and disclosure by the US Government is
 subject to restrictions as set forth in subparagraphs (a)
 and (c) of the Commercial Computer Software - Restricted
 Rights clause in FAR 52.227-19.
  
 Gaussian, Inc.
 340 Quinnipiac St., Bldg. 40, Wallingford CT 06492
  
  
 ---------------------------------------------------------------
 Warning -- This program may not be used in any manner that
 competes with the business of Gaussian, Inc. or will provide
 assistance to any competitor of Gaussian, Inc.  The licensee
 of this program is prohibited from giving any competitor of
 Gaussian, Inc. access to this program.  By using this program,
 the user acknowledges that Gaussian, Inc. is engaged in the
 business of creating and licensing software in the field of
 computational chemistry and represents and warrants to the
 licensee that it is not a competitor of Gaussian, Inc. and that
 it will not use this program in any manner prohibited above.
 ---------------------------------------------------------------
  

 Cite this work as:
 Gaussian 16, Revision C.01,
 M. J. Frisch, G. W. Trucks, H. B. Schlegel, G. E. Scuseria, 
 M. A. Robb, J. R. Cheeseman, G. Scalmani, V. Barone, 
 G. A. Petersson, H. Nakatsuji, X. Li, M. Caricato, A. V. Marenich, 
 J. Bloino, B. G. Janesko, R. Gomperts, B. Mennucci, H. P. Hratchian, 
 J. V. Ortiz, A. F. Izmaylov, J. L. Sonnenberg, D. Williams-Young, 
 F. Ding, F. Lipparini, F. Egidi, J. Goings, B. Peng, A. Petrone, 
 T. Henderson, D. Ranasinghe, V. G. Zakrzewski, J. Gao, N. Rega, 
 G. Zheng, W. Liang, M. Hada, M. Ehara, K. Toyota, R. Fukuda, 
 J. Hasegawa, M. Ishida, T. Nakajima, Y. Honda, O. Kitao, H. Nakai, 
 T. Vreven, K. Throssell, J. A. Montgomery, Jr., J. E. Peralta, 
 F. Ogliaro, M. J. Bearpark, J. J. Heyd, E. N. Brothers, K. N. Kudin, 
 V. N. Staroverov, T. A. Keith, R. Kobayashi, J. Normand, 
 K. Raghavachari, A. P. Rendell, J. C. Burant, S. S. Iyengar, 
 J. Tomasi, M. Cossi, J. M. Millam, M. Klene, C. Adamo, R. Cammi, 
 J. W. Ochterski, R. L. Martin, K. Morokuma, O. Farkas, 
 J. B. Foresman, and D. J. Fox, Gaussian, Inc., Wallingford CT, 2019.
 
 ******************************************
 Gaussian 16:  ES64L-G16RevC.01  3-Jul-2019
                26-Feb-2021 
 ******************************************
 %chk=_s_4b1_c.chk
 %mem=60000mb
 %nprocshared=32
 Will use up to   32 processors via shared memory.
 ----------------------------------------------------------------------
 #P PBE1PBE/Def2SVP SP SCF=(YQC,MaxCycle=900) int=(Grid=Superfinegrid) 
 EmpiricalDispersion=GD3BJ SCRF=(PCM,Solvent=DiMethylSulfoxide)
 ----------------------------------------------------------------------
 1/38=1,172=1/1;
 2/12=2,17=6,18=5,40=1/2;
 3/5=43,7=101,11=2,25=1,30=1,70=2201,72=21,74=-13,75=-7,124=41/1,2,3;
 4//1;
 5/5=2,7=900,8=4,13=1,38=1,53=21/8,2,8;
 6/7=2,8=2,9=2,10=2,28=1/1;
 99/5=1,9=1/99;
 Leave Link    1 at Fri Feb 26 10:24:27 2021, MaxMem=  7864320000 cpu:               3.0 elap:               0.1
 (Enter /apps/gaussian/g16-c01-avx/g16/l101.exe)
 --------
 _s_4b1_c
 --------
 Symbolic Z-matrix:
 Charge =  4 Multiplicity = 1
 Pd                   -0.3792    4.4635    0.5467 
 Pd                   -0.0667   -6.8458    1.2506 
 C                     4.5784   -3.0653    1.6879 
 C                     4.8221   -4.2498    1.7166 
 C                     5.1662   -5.6149    1.7094 
 C                     6.4948   -5.9932    1.7734 
 C                     6.8632   -7.3422    1.7294 
 C                     5.9177   -8.3291    1.6028 
 C                     4.5538   -7.9912    1.5303 
 C                     3.5328   -8.9557    1.3749 
 C                     2.2283   -8.5602    1.3084 
 N                     1.8656   -7.258     1.4105 
 C                     2.7893   -6.3271    1.5489 
 C                     4.1607   -6.623     1.601 
 H                     7.2585   -5.2352    1.8573 
 H                     7.9093   -7.6015    1.787 
 H                     6.2064   -9.3673    1.5542 
 H                     3.7965   -9.9988    1.3036 
 H                     1.4205   -9.276     1.1691 
 H                     2.4487   -5.2968    1.6274 
 C                     4.2567   -1.6947    1.615 
 C                     5.1795   -0.7822    1.0948 
 C                     4.8471    0.5525    0.9875 
 C                     3.5897    1.0059    1.3904 
 C                     2.6774    0.0935    1.9267 
 C                     3.0045   -1.2405    2.0399 
 H                     6.1487   -1.1285    0.7708 
 H                     5.5581    1.2431    0.5611 
 H                     1.72      0.4381    2.2859 
 H                     2.3018   -1.9399    2.463 
 C                     3.2243    2.4221    1.2564 
 C                     4.1261    3.4531    1.539 
 C                     3.7167    4.7707    1.4234 
 C                     2.411     5.0417    1.0488 
 N                     1.5518    4.059     0.7724 
 C                     1.9407    2.7857    0.8547 
 H                     5.1281    3.2209    1.8649 
 H                     4.3965    5.5798    1.6362 
 H                     2.0354    6.0579    0.9629 
 H                     1.2009    2.0388    0.5696 
 C                    -0.6243   -2.8826    5.8153 
 C                    -0.6219   -4.0661    6.0644 
 C                    -0.6769   -5.4254    6.4344 
 C                    -0.836    -5.7654    7.7646 
 C                    -0.9494   -7.1034    8.1587 
 C                    -0.9176   -8.1165    7.2338 
 C                    -0.7467   -7.8176    5.8697 
 C                    -0.7137   -8.8132    4.8674 
 C                    -0.5274   -8.4582    3.5631 
 N                    -0.3481   -7.1676    3.1873 
 C                    -0.3912   -6.2073    4.0899 
 C                    -0.6054   -6.4611    5.4549 
 H                    -0.8843   -4.9854    8.509 
 H                    -1.074    -7.3319    9.2061 
 H                    -1.0218   -9.146     7.5383 
 H                    -0.8381   -9.8477    5.1447 
 H                    -0.5134   -9.1993    2.7658 
 H                    -0.2454   -5.1877    3.7392 
 C                    -0.6275   -1.5124    5.4759 
 C                     0.3223   -0.6452    6.0224 
 C                     0.3334    0.6856    5.6577 
 C                    -0.5951    1.1766    4.7381 
 C                    -1.5612    0.3133    4.2176 
 C                    -1.582    -1.0163    4.5829 
 H                     1.051    -1.0231    6.7226 
 H                     1.0867    1.3417    6.0654 
 H                    -2.3187    0.6956    3.5525 
 H                    -2.3406   -1.6764    4.1937 
 C                    -0.5313    2.5783    4.3007 
 C                    -0.2811    3.6266    5.1915 
 C                    -0.1957    4.9234    4.7134 
 C                    -0.3309    5.1521    3.354 
 N                    -0.5622    4.1513    2.502 
 C                    -0.6789    2.9017    2.9539 
 H                    -0.1723    3.4251    6.2458 
 H                    -0.017     5.7476    5.3846 
 H                    -0.255     6.1488    2.9273 
 H                    -0.884     2.1375    2.2051 
 C                    -5.0234    0.6834    0.105 
 C                    -5.2683    1.8679    0.0847 
 C                    -5.6133    3.2327    0.1023 
 C                    -6.9421    3.6107    0.0444 
 C                    -7.3112    4.9591    0.0995 
 C                    -6.366     5.9457    0.2311 
 C                    -5.0016    5.608     0.2974 
 C                    -3.9807    6.572     0.4568 
 C                    -2.6758    6.1768    0.5162 
 N                    -2.3128    4.8756    0.4037 
 C                    -3.2364    3.9452    0.2614 
 C                    -4.608     4.2406    0.2155 
 H                    -7.7057    2.853    -0.0432 
 H                    -8.3575    5.2183    0.0466 
 H                    -6.6551    6.9833    0.2883 
 H                    -4.2448    7.6144    0.5365 
 H                    -1.8677    6.8919    0.658 
 H                    -2.8954    2.9156    0.1742 
 C                    -4.7008   -0.6873    0.1703 
 C                    -3.445    -1.1375   -0.2484 
 C                    -3.1169   -2.4717   -0.1405 
 C                    -4.0319   -3.3883    0.3837 
 C                    -5.2931   -2.9391    0.7795 
 C                    -5.6263   -1.6042    0.6778 
 H                    -2.7402   -0.4348   -0.6623 
 H                    -2.1565   -2.813    -0.4947 
 H                    -6.0064   -3.6332    1.1962 
 H                    -6.5985   -1.2611    0.9966 
 C                    -3.6655   -4.8047    0.5134 
 C                    -4.5628   -5.8354    0.216 
 C                    -4.1527   -7.153     0.3292 
 C                    -2.8507   -7.424     0.7163 
 N                    -1.9958   -6.4415    1.0066 
 C                    -2.3856   -5.1683    0.9265 
 H                    -5.5616   -5.6028   -0.119 
 H                    -4.829    -7.9619    0.1051 
 H                    -2.4745   -8.4401    0.8013 
 H                    -1.6499   -4.4219    1.2231 
 C                     0.1328    0.4984   -4.0204 
 C                     0.1181    1.6815   -4.2712 
 C                     0.1573    3.0406   -4.6438 
 C                     0.2873    3.38     -5.9774 
 C                     0.3845    4.7182   -6.3751 
 C                     0.3654    5.7322   -5.4508 
 C                     0.2238    5.4339   -4.0832 
 C                     0.2047    6.4304   -3.0814 
 C                     0.0452    6.076    -1.7734 
 N                    -0.1198    4.7849   -1.3931 
 C                    -0.0881    3.8237   -2.2953 
 C                     0.0988    4.077    -3.6643 
 H                     0.3254    2.5995   -6.7218 
 H                     0.4863    4.9463   -7.4251 
 H                     0.4573    6.762    -5.7584 
 H                     0.3179    7.4654   -3.3621 
 H                     0.0423    6.8178   -0.9767 
 H                    -0.221     2.8038   -1.9407 
 C                     0.1492   -0.8714   -3.6799 
 C                    -0.795    -1.7469   -4.223 
 C                    -0.7936   -3.0775   -3.8577 
 C                     0.1417   -3.56     -2.9406 
 C                     1.1019   -2.6883   -2.4231 
 C                     1.1105   -1.3589   -2.7895 
 H                    -1.5291   -1.3756   -4.921 
 H                    -1.5423   -3.7404   -4.2629 
 H                     1.8642   -3.064    -1.7596 
 H                     1.8649   -0.6923   -2.4032 
 C                     0.0907   -4.9621   -2.5026 
 C                    -0.1499   -6.0128   -3.3933 
 C                    -0.2246   -7.3101   -2.9149 
 C                    -0.0896   -7.537    -1.5552 
 N                     0.1323   -6.534    -0.7033 
 C                     0.24     -5.2837   -1.1556 
 H                    -0.2598   -5.8124   -4.4477 
 H                    -0.3954   -8.136    -3.5861 
 H                    -0.1578   -8.5341   -1.1281 
 H                     0.4389   -4.5178   -0.4069 
 
 ITRead=  0  0  0  0  0  0  0  0  0  0  0  0  0  0  0  0  0  0  0  0
 ITRead=  0  0  0  0  0  0  0  0  0  0  0  0  0  0  0  0  0  0  0  0
 ITRead=  0  0  0  0  0  0  0  0  0  0  0  0  0  0  0  0  0  0  0  0
 ITRead=  0  0  0  0  0  0  0  0  0  0  0  0  0  0  0  0  0  0  0  0
 ITRead=  0  0  0  0  0  0  0  0  0  0  0  0  0  0  0  0  0  0  0  0
 ITRead=  0  0  0  0  0  0  0  0  0  0  0  0  0  0  0  0  0  0  0  0
 ITRead=  0  0  0  0  0  0  0  0  0  0  0  0  0  0  0  0  0  0  0  0
 ITRead=  0  0  0  0  0  0  0  0  0  0  0  0  0  0
 MicOpt= -1 -1 -1 -1 -1 -1 -1 -1 -1 -1 -1 -1 -1 -1 -1 -1 -1 -1 -1 -1
 MicOpt= -1 -1 -1 -1 -1 -1 -1 -1 -1 -1 -1 -1 -1 -1 -1 -1 -1 -1 -1 -1
 MicOpt= -1 -1 -1 -1 -1 -1 -1 -1 -1 -1 -1 -1 -1 -1 -1 -1 -1 -1 -1 -1
 MicOpt= -1 -1 -1 -1 -1 -1 -1 -1 -1 -1 -1 -1 -1 -1 -1 -1 -1 -1 -1 -1
 MicOpt= -1 -1 -1 -1 -1 -1 -1 -1 -1 -1 -1 -1 -1 -1 -1 -1 -1 -1 -1 -1
 MicOpt= -1 -1 -1 -1 -1 -1 -1 -1 -1 -1 -1 -1 -1 -1 -1 -1 -1 -1 -1 -1
 MicOpt= -1 -1 -1 -1 -1 -1 -1 -1 -1 -1 -1 -1 -1 -1 -1 -1 -1 -1 -1 -1
 MicOpt= -1 -1 -1 -1 -1 -1 -1 -1 -1 -1 -1 -1 -1 -1
 NAtoms=    154 NQM=      154 NQMF=       0 NMMI=      0 NMMIF=      0
                NMic=       0 NMicF=      0.
                    Isotopes and Nuclear Properties:
 (Nuclear quadrupole moments (NQMom) in fm**2, nuclear magnetic moments (NMagM)
  in nuclear magnetons)

  Atom         1           2           3           4           5           6           7           8           9          10
 IAtWgt=         106         106          12          12          12          12          12          12          12          12
 AtmWgt= 105.9032000 105.9032000  12.0000000  12.0000000  12.0000000  12.0000000  12.0000000  12.0000000  12.0000000  12.0000000
 NucSpn=           0           0           0           0           0           0           0           0           0           0
 AtZEff=  -0.0000000  -0.0000000  -0.0000000  -0.0000000  -0.0000000  -0.0000000  -0.0000000  -0.0000000  -0.0000000  -0.0000000
 NQMom=    0.0000000   0.0000000   0.0000000   0.0000000   0.0000000   0.0000000   0.0000000   0.0000000   0.0000000   0.0000000
 NMagM=    0.0000000   0.0000000   0.0000000   0.0000000   0.0000000   0.0000000   0.0000000   0.0000000   0.0000000   0.0000000
 AtZNuc=  46.0000000  46.0000000   6.0000000   6.0000000   6.0000000   6.0000000   6.0000000   6.0000000   6.0000000   6.0000000

  Atom        11          12          13          14          15          16          17          18          19          20
 IAtWgt=          12          14          12          12           1           1           1           1           1           1
 AtmWgt=  12.0000000  14.0030740  12.0000000  12.0000000   1.0078250   1.0078250   1.0078250   1.0078250   1.0078250   1.0078250
 NucSpn=           0           2           0           0           1           1           1           1           1           1
 AtZEff=  -0.0000000  -0.0000000  -0.0000000  -0.0000000  -0.0000000  -0.0000000  -0.0000000  -0.0000000  -0.0000000  -0.0000000
 NQMom=    0.0000000   2.0440000   0.0000000   0.0000000   0.0000000   0.0000000   0.0000000   0.0000000   0.0000000   0.0000000
 NMagM=    0.0000000   0.4037610   0.0000000   0.0000000   2.7928460   2.7928460   2.7928460   2.7928460   2.7928460   2.7928460
 AtZNuc=   6.0000000   7.0000000   6.0000000   6.0000000   1.0000000   1.0000000   1.0000000   1.0000000   1.0000000   1.0000000

  Atom        21          22          23          24          25          26          27          28          29          30
 IAtWgt=          12          12          12          12          12          12           1           1           1           1
 AtmWgt=  12.0000000  12.0000000  12.0000000  12.0000000  12.0000000  12.0000000   1.0078250   1.0078250   1.0078250   1.0078250
 NucSpn=           0           0           0           0           0           0           1           1           1           1
 AtZEff=  -0.0000000  -0.0000000  -0.0000000  -0.0000000  -0.0000000  -0.0000000  -0.0000000  -0.0000000  -0.0000000  -0.0000000
 NQMom=    0.0000000   0.0000000   0.0000000   0.0000000   0.0000000   0.0000000   0.0000000   0.0000000   0.0000000   0.0000000
 NMagM=    0.0000000   0.0000000   0.0000000   0.0000000   0.0000000   0.0000000   2.7928460   2.7928460   2.7928460   2.7928460
 AtZNuc=   6.0000000   6.0000000   6.0000000   6.0000000   6.0000000   6.0000000   1.0000000   1.0000000   1.0000000   1.0000000

  Atom        31          32          33          34          35          36          37          38          39          40
 IAtWgt=          12          12          12          12          14          12           1           1           1           1
 AtmWgt=  12.0000000  12.0000000  12.0000000  12.0000000  14.0030740  12.0000000   1.0078250   1.0078250   1.0078250   1.0078250
 NucSpn=           0           0           0           0           2           0           1           1           1           1
 AtZEff=  -0.0000000  -0.0000000  -0.0000000  -0.0000000  -0.0000000  -0.0000000  -0.0000000  -0.0000000  -0.0000000  -0.0000000
 NQMom=    0.0000000   0.0000000   0.0000000   0.0000000   2.0440000   0.0000000   0.0000000   0.0000000   0.0000000   0.0000000
 NMagM=    0.0000000   0.0000000   0.0000000   0.0000000   0.4037610   0.0000000   2.7928460   2.7928460   2.7928460   2.7928460
 AtZNuc=   6.0000000   6.0000000   6.0000000   6.0000000   7.0000000   6.0000000   1.0000000   1.0000000   1.0000000   1.0000000

  Atom        41          42          43          44          45          46          47          48          49          50
 IAtWgt=          12          12          12          12          12          12          12          12          12          14
 AtmWgt=  12.0000000  12.0000000  12.0000000  12.0000000  12.0000000  12.0000000  12.0000000  12.0000000  12.0000000  14.0030740
 NucSpn=           0           0           0           0           0           0           0           0           0           2
 AtZEff=  -0.0000000  -0.0000000  -0.0000000  -0.0000000  -0.0000000  -0.0000000  -0.0000000  -0.0000000  -0.0000000  -0.0000000
 NQMom=    0.0000000   0.0000000   0.0000000   0.0000000   0.0000000   0.0000000   0.0000000   0.0000000   0.0000000   2.0440000
 NMagM=    0.0000000   0.0000000   0.0000000   0.0000000   0.0000000   0.0000000   0.0000000   0.0000000   0.0000000   0.4037610
 AtZNuc=   6.0000000   6.0000000   6.0000000   6.0000000   6.0000000   6.0000000   6.0000000   6.0000000   6.0000000   7.0000000

  Atom        51          52          53          54          55          56          57          58          59          60
 IAtWgt=          12          12           1           1           1           1           1           1          12          12
 AtmWgt=  12.0000000  12.0000000   1.0078250   1.0078250   1.0078250   1.0078250   1.0078250   1.0078250  12.0000000  12.0000000
 NucSpn=           0           0           1           1           1           1           1           1           0           0
 AtZEff=  -0.0000000  -0.0000000  -0.0000000  -0.0000000  -0.0000000  -0.0000000  -0.0000000  -0.0000000  -0.0000000  -0.0000000
 NQMom=    0.0000000   0.0000000   0.0000000   0.0000000   0.0000000   0.0000000   0.0000000   0.0000000   0.0000000   0.0000000
 NMagM=    0.0000000   0.0000000   2.7928460   2.7928460   2.7928460   2.7928460   2.7928460   2.7928460   0.0000000   0.0000000
 AtZNuc=   6.0000000   6.0000000   1.0000000   1.0000000   1.0000000   1.0000000   1.0000000   1.0000000   6.0000000   6.0000000

  Atom        61          62          63          64          65          66          67          68          69          70
 IAtWgt=          12          12          12          12           1           1           1           1          12          12
 AtmWgt=  12.0000000  12.0000000  12.0000000  12.0000000   1.0078250   1.0078250   1.0078250   1.0078250  12.0000000  12.0000000
 NucSpn=           0           0           0           0           1           1           1           1           0           0
 AtZEff=  -0.0000000  -0.0000000  -0.0000000  -0.0000000  -0.0000000  -0.0000000  -0.0000000  -0.0000000  -0.0000000  -0.0000000
 NQMom=    0.0000000   0.0000000   0.0000000   0.0000000   0.0000000   0.0000000   0.0000000   0.0000000   0.0000000   0.0000000
 NMagM=    0.0000000   0.0000000   0.0000000   0.0000000   2.7928460   2.7928460   2.7928460   2.7928460   0.0000000   0.0000000
 AtZNuc=   6.0000000   6.0000000   6.0000000   6.0000000   1.0000000   1.0000000   1.0000000   1.0000000   6.0000000   6.0000000

  Atom        71          72          73          74          75          76          77          78          79          80
 IAtWgt=          12          12          14          12           1           1           1           1          12          12
 AtmWgt=  12.0000000  12.0000000  14.0030740  12.0000000   1.0078250   1.0078250   1.0078250   1.0078250  12.0000000  12.0000000
 NucSpn=           0           0           2           0           1           1           1           1           0           0
 AtZEff=  -0.0000000  -0.0000000  -0.0000000  -0.0000000  -0.0000000  -0.0000000  -0.0000000  -0.0000000  -0.0000000  -0.0000000
 NQMom=    0.0000000   0.0000000   2.0440000   0.0000000   0.0000000   0.0000000   0.0000000   0.0000000   0.0000000   0.0000000
 NMagM=    0.0000000   0.0000000   0.4037610   0.0000000   2.7928460   2.7928460   2.7928460   2.7928460   0.0000000   0.0000000
 AtZNuc=   6.0000000   6.0000000   7.0000000   6.0000000   1.0000000   1.0000000   1.0000000   1.0000000   6.0000000   6.0000000

  Atom        81          82          83          84          85          86          87          88          89          90
 IAtWgt=          12          12          12          12          12          12          12          14          12          12
 AtmWgt=  12.0000000  12.0000000  12.0000000  12.0000000  12.0000000  12.0000000  12.0000000  14.0030740  12.0000000  12.0000000
 NucSpn=           0           0           0           0           0           0           0           2           0           0
 AtZEff=  -0.0000000  -0.0000000  -0.0000000  -0.0000000  -0.0000000  -0.0000000  -0.0000000  -0.0000000  -0.0000000  -0.0000000
 NQMom=    0.0000000   0.0000000   0.0000000   0.0000000   0.0000000   0.0000000   0.0000000   2.0440000   0.0000000   0.0000000
 NMagM=    0.0000000   0.0000000   0.0000000   0.0000000   0.0000000   0.0000000   0.0000000   0.4037610   0.0000000   0.0000000
 AtZNuc=   6.0000000   6.0000000   6.0000000   6.0000000   6.0000000   6.0000000   6.0000000   7.0000000   6.0000000   6.0000000

  Atom        91          92          93          94          95          96          97          98          99         100
 IAtWgt=           1           1           1           1           1           1          12          12          12          12
 AtmWgt=   1.0078250   1.0078250   1.0078250   1.0078250   1.0078250   1.0078250  12.0000000  12.0000000  12.0000000  12.0000000
 NucSpn=           1           1           1           1           1           1           0           0           0           0
 AtZEff=  -0.0000000  -0.0000000  -0.0000000  -0.0000000  -0.0000000  -0.0000000  -0.0000000  -0.0000000  -0.0000000  -0.0000000
 NQMom=    0.0000000   0.0000000   0.0000000   0.0000000   0.0000000   0.0000000   0.0000000   0.0000000   0.0000000   0.0000000
 NMagM=    2.7928460   2.7928460   2.7928460   2.7928460   2.7928460   2.7928460   0.0000000   0.0000000   0.0000000   0.0000000
 AtZNuc=   1.0000000   1.0000000   1.0000000   1.0000000   1.0000000   1.0000000   6.0000000   6.0000000   6.0000000   6.0000000

  Atom       101         102         103         104         105         106         107         108         109         110
 IAtWgt=          12          12           1           1           1           1          12          12          12          12
 AtmWgt=  12.0000000  12.0000000   1.0078250   1.0078250   1.0078250   1.0078250  12.0000000  12.0000000  12.0000000  12.0000000
 NucSpn=           0           0           1           1           1           1           0           0           0           0
 AtZEff=  -0.0000000  -0.0000000  -0.0000000  -0.0000000  -0.0000000  -0.0000000  -0.0000000  -0.0000000  -0.0000000  -0.0000000
 NQMom=    0.0000000   0.0000000   0.0000000   0.0000000   0.0000000   0.0000000   0.0000000   0.0000000   0.0000000   0.0000000
 NMagM=    0.0000000   0.0000000   2.7928460   2.7928460   2.7928460   2.7928460   0.0000000   0.0000000   0.0000000   0.0000000
 AtZNuc=   6.0000000   6.0000000   1.0000000   1.0000000   1.0000000   1.0000000   6.0000000   6.0000000   6.0000000   6.0000000

  Atom       111         112         113         114         115         116         117         118         119         120
 IAtWgt=          14          12           1           1           1           1          12          12          12          12
 AtmWgt=  14.0030740  12.0000000   1.0078250   1.0078250   1.0078250   1.0078250  12.0000000  12.0000000  12.0000000  12.0000000
 NucSpn=           2           0           1           1           1           1           0           0           0           0
 AtZEff=  -0.0000000  -0.0000000  -0.0000000  -0.0000000  -0.0000000  -0.0000000  -0.0000000  -0.0000000  -0.0000000  -0.0000000
 NQMom=    2.0440000   0.0000000   0.0000000   0.0000000   0.0000000   0.0000000   0.0000000   0.0000000   0.0000000   0.0000000
 NMagM=    0.4037610   0.0000000   2.7928460   2.7928460   2.7928460   2.7928460   0.0000000   0.0000000   0.0000000   0.0000000
 AtZNuc=   7.0000000   6.0000000   1.0000000   1.0000000   1.0000000   1.0000000   6.0000000   6.0000000   6.0000000   6.0000000

  Atom       121         122         123         124         125         126         127         128         129         130
 IAtWgt=          12          12          12          12          12          14          12          12           1           1
 AtmWgt=  12.0000000  12.0000000  12.0000000  12.0000000  12.0000000  14.0030740  12.0000000  12.0000000   1.0078250   1.0078250
 NucSpn=           0           0           0           0           0           2           0           0           1           1
 AtZEff=  -0.0000000  -0.0000000  -0.0000000  -0.0000000  -0.0000000  -0.0000000  -0.0000000  -0.0000000  -0.0000000  -0.0000000
 NQMom=    0.0000000   0.0000000   0.0000000   0.0000000   0.0000000   2.0440000   0.0000000   0.0000000   0.0000000   0.0000000
 NMagM=    0.0000000   0.0000000   0.0000000   0.0000000   0.0000000   0.4037610   0.0000000   0.0000000   2.7928460   2.7928460
 AtZNuc=   6.0000000   6.0000000   6.0000000   6.0000000   6.0000000   7.0000000   6.0000000   6.0000000   1.0000000   1.0000000

  Atom       131         132         133         134         135         136         137         138         139         140
 IAtWgt=           1           1           1           1          12          12          12          12          12          12
 AtmWgt=   1.0078250   1.0078250   1.0078250   1.0078250  12.0000000  12.0000000  12.0000000  12.0000000  12.0000000  12.0000000
 NucSpn=           1           1           1           1           0           0           0           0           0           0
 AtZEff=  -0.0000000  -0.0000000  -0.0000000  -0.0000000  -0.0000000  -0.0000000  -0.0000000  -0.0000000  -0.0000000  -0.0000000
 NQMom=    0.0000000   0.0000000   0.0000000   0.0000000   0.0000000   0.0000000   0.0000000   0.0000000   0.0000000   0.0000000
 NMagM=    2.7928460   2.7928460   2.7928460   2.7928460   0.0000000   0.0000000   0.0000000   0.0000000   0.0000000   0.0000000
 AtZNuc=   1.0000000   1.0000000   1.0000000   1.0000000   6.0000000   6.0000000   6.0000000   6.0000000   6.0000000   6.0000000

  Atom       141         142         143         144         145         146         147         148         149         150
 IAtWgt=           1           1           1           1          12          12          12          12          14          12
 AtmWgt=   1.0078250   1.0078250   1.0078250   1.0078250  12.0000000  12.0000000  12.0000000  12.0000000  14.0030740  12.0000000
 NucSpn=           1           1           1           1           0           0           0           0           2           0
 AtZEff=  -0.0000000  -0.0000000  -0.0000000  -0.0000000  -0.0000000  -0.0000000  -0.0000000  -0.0000000  -0.0000000  -0.0000000
 NQMom=    0.0000000   0.0000000   0.0000000   0.0000000   0.0000000   0.0000000   0.0000000   0.0000000   2.0440000   0.0000000
 NMagM=    2.7928460   2.7928460   2.7928460   2.7928460   0.0000000   0.0000000   0.0000000   0.0000000   0.4037610   0.0000000
 AtZNuc=   1.0000000   1.0000000   1.0000000   1.0000000   6.0000000   6.0000000   6.0000000   6.0000000   7.0000000   6.0000000

  Atom       151         152         153         154
 IAtWgt=           1           1           1           1
 AtmWgt=   1.0078250   1.0078250   1.0078250   1.0078250
 NucSpn=           1           1           1           1
 AtZEff=  -0.0000000  -0.0000000  -0.0000000  -0.0000000
 NQMom=    0.0000000   0.0000000   0.0000000   0.0000000
 NMagM=    2.7928460   2.7928460   2.7928460   2.7928460
 AtZNuc=   1.0000000   1.0000000   1.0000000   1.0000000
 Leave Link  101 at Fri Feb 26 10:24:27 2021, MaxMem=  7864320000 cpu:               7.1 elap:               0.2
 (Enter /apps/gaussian/g16-c01-avx/g16/l202.exe)
 Stoichiometry    C88H56N8Pd2(4+)
 Framework group  C1[X(C88H56N8Pd2)]
 Deg. of freedom   456
 Full point group                 C1      NOp   1
 Largest Abelian subgroup         C1      NOp   1
 Largest concise Abelian subgroup C1      NOp   1
                         Standard orientation:                         
 ---------------------------------------------------------------------
 Center     Atomic      Atomic             Coordinates (Angstroms)
 Number     Number       Type             X           Y           Z
 ---------------------------------------------------------------------
      1         46           0       -5.519193   -0.027631   -1.289474
      2         46           0        5.521446    0.018214    1.278712
      3          6           0        2.810786   -3.243392   -2.972713
      4          6           0        3.993251   -3.430267   -2.799195
      5          6           0        5.357600   -3.720072   -2.608090
      6          6           0        5.964879   -4.712167   -3.355982
      7          6           0        7.309471   -5.043864   -3.157221
      8          6           0        8.060507   -4.406851   -2.201120
      9          6           0        7.483790   -3.393415   -1.413719
     10          6           0        8.193598   -2.715963   -0.396821
     11          6           0        7.573455   -1.743846    0.333231
     12          7           0        6.288157   -1.380382    0.101707
     13          6           0        5.589678   -1.993844   -0.833570
     14          6           0        6.122755   -3.025423   -1.622673
     15          1           0        5.391436   -5.238883   -4.103360
     16          1           0        7.752399   -5.819900   -3.762583
     17          1           0        9.092783   -4.675473   -2.040441
     18          1           0        9.220946   -2.979712   -0.202730
     19          1           0        8.085977   -1.217557    1.136136
     20          1           0        4.562920   -1.666246   -0.982358
     21          6           0        1.426420   -3.021609   -3.119997
     22          6           0        0.592145   -4.052139   -3.563636
     23          6           0       -0.767726   -3.844394   -3.668617
     24          6           0       -1.325887   -2.610319   -3.330283
     25          6           0       -0.486140   -1.577700   -2.904952
     26          6           0        0.873515   -1.777597   -2.801293
     27          1           0        1.016202   -5.011840   -3.815427
     28          1           0       -1.404548   -4.654799   -3.987942
     29          1           0       -0.898334   -0.604834   -2.685827
     30          1           0        1.519429   -0.975826   -2.482046
     31          6           0       -2.775685   -2.392838   -3.419066
     32          6           0       -3.540201   -2.896547   -4.476355
     33          6           0       -4.898990   -2.634762   -4.523293
     34          6           0       -5.471889   -1.858779   -3.529183
     35          7           0       -4.744765   -1.383402   -2.516449
     36          6           0       -3.439673   -1.649823   -2.445287
     37          1           0       -3.068423   -3.468019   -5.260560
     38          1           0       -5.505889   -3.014170   -5.329382
     39          1           0       -6.529475   -1.608533   -3.531283
     40          1           0       -2.919525   -1.268980   -1.567306
     41          6           0        2.694248    3.398711   -2.896638
     42          6           0        3.885201    3.538156   -2.738795
     43          6           0        5.262569    3.796161   -2.584158
     44          6           0        5.869873    4.757668   -3.369670
     45          6           0        7.222340    5.076408   -3.203363
     46          6           0        7.982147    4.451278   -2.246950
     47          6           0        7.408332    3.458579   -1.431719
     48          6           0        8.133591    2.783699   -0.424023
     49          6           0        7.522675    1.817788    0.321449
     50          7           0        6.231254    1.459026    0.115190
     51          6           0        5.514825    2.078017   -0.802580
     52          6           0        6.038183    3.105402   -1.605137
     53          1           0        5.288274    5.277862   -4.115328
     54          1           0        7.663120    5.833528   -3.833654
     55          1           0        9.020135    4.710434   -2.109586
     56          1           0        9.166532    3.041162   -0.252828
     57          1           0        8.048791    1.291129    1.115769
     58          1           0        4.482775    1.757267   -0.928372
     59          6           0        1.303478    3.205261   -3.041506
     60          6           0        0.765442    2.829430   -4.275235
     61          6           0       -0.591031    2.608331   -4.398745
     62          6           0       -1.435875    2.750236   -3.296493
     63          6           0       -0.898348    3.155208   -2.073129
     64          6           0        0.455434    3.384205   -1.944494
     65          1           0        1.416358    2.704527   -5.126586
     66          1           0       -0.993418    2.293494   -5.349065
     67          1           0       -1.550301    3.324694   -1.231376
     68          1           0        0.865035    3.714812   -1.003426
     69          6           0       -2.867976    2.443294   -3.419075
     70          6           0       -3.620508    2.829242   -4.532537
     71          6           0       -4.957948    2.478325   -4.607870
     72          6           0       -5.516564    1.724316   -3.589063
     73          7           0       -4.797183    1.349017   -2.529513
     74          6           0       -3.516436    1.708190   -2.429446
     75          1           0       -3.163491    3.410635   -5.318098
     76          1           0       -5.559518    2.777204   -5.450801
     77          1           0       -6.556504    1.409117   -3.609529
     78          1           0       -2.994918    1.381374   -1.530570
     79          6           0       -2.809784    3.230495    2.964532
     80          6           0       -3.990502    3.423624    2.785551
     81          6           0       -5.352299    3.720712    2.587410
     82          6           0       -5.957907    4.716825    3.331012
     83          6           0       -7.299463    5.056092    3.124666
     84          6           0       -8.049101    4.422476    2.165147
     85          6           0       -7.473931    3.404726    1.381956
     86          6           0       -8.182347    2.729880    0.362313
     87          6           0       -7.564074    1.752957   -0.362833
     88          7           0       -6.282101    1.382682   -0.124111
     89          6           0       -5.584990    1.993601    0.813836
     90          6           0       -6.116181    3.029258    1.598633
     91          1           0       -5.385594    5.241122    4.080971
     92          1           0       -7.741237    5.835260    3.726711
     93          1           0       -9.078870    4.696851    1.998542
     94          1           0       -9.207140    2.999254    0.162474
     95          1           0       -8.075293    1.228011   -1.167562
     96          1           0       -4.560858    1.660189    0.968594
     97          6           0       -1.426934    3.003197    3.116901
     98          6           0       -0.875789    1.760388    2.790269
     99          6           0        0.482997    1.556355    2.897285
    100          6           0        1.323479    2.583332    3.334405
    101          6           0        0.767027    3.815786    3.681510
    102          6           0       -0.591871    4.027703    3.572830
    103          1           0       -1.522357    0.962871    2.461999
    104          1           0        0.893716    0.584385    2.671687
    105          1           0        1.404542    4.621771    4.010407
    106          1           0       -1.014596    4.986382    3.831213
    107          6           0        2.772642    2.362349    3.425808
    108          6           0        3.534207    2.853201    4.491180
    109          6           0        4.892559    2.589353    4.539462
    110          6           0        5.467725    1.824155    3.538389
    111          7           0        4.743281    1.360912    2.518084
    112          6           0        3.438641    1.629423    2.445877
    113          1           0        3.060484    3.416435    5.280030
    114          1           0        5.497244    2.958894    5.351692
    115          1           0        6.525110    1.572876    3.540758
    116          1           0        2.920936    1.259032    1.562060
    117          6           0       -2.698641   -3.374415    2.916009
    118          6           0       -3.891740   -3.505433    2.767038
    119          6           0       -5.272261   -3.752871    2.624014
    120          6           0       -5.884828   -4.694040    3.429956
    121          6           0       -7.241132   -5.002533    3.276127
    122          6           0       -7.999739   -4.387590    2.312149
    123          6           0       -7.420603   -3.415321    1.476292
    124          6           0       -8.144430   -2.751494    0.460226
    125          6           0       -7.528580   -1.803953   -0.304494
    126          7           0       -6.233153   -1.453402   -0.110131
    127          6           0       -5.517747   -2.063337    0.814558
    128          6           0       -6.046291   -3.072154    1.636861
    129          1           0       -5.304519   -5.206354    4.181980
    130          1           0       -7.686088   -5.743676    3.922357
    131          1           0       -9.040867   -4.639196    2.184487
    132          1           0       -9.180582   -3.002445    0.298226
    133          1           0       -8.053581   -1.286247   -1.105344
    134          1           0       -4.482266   -1.750094    0.929692
    135          6           0       -1.305709   -3.190470    3.051899
    136          6           0       -0.757969   -2.816930    4.282111
    137          6           0        0.600620   -2.605114    4.397496
    138          6           0        1.437927   -2.753742    3.290477
    139          6           0        0.890641   -3.155936    2.070490
    140          6           0       -0.465321   -3.376199    1.950165
    141          1           0       -1.402993   -2.686549    5.137046
    142          1           0        1.010894   -2.292344    5.345138
    143          1           0        1.536738   -3.330055    1.225076
    144          1           0       -0.882546   -3.705306    1.011913
    145          6           0        2.872770   -2.456324    3.404926
    146          6           0        3.629286   -2.849665    4.513154
    147          6           0        4.969130   -2.506839    4.581885
    148          6           0        5.526059   -1.752459    3.562457
    149          7           0        4.802919   -1.369924    2.508076
    150          6           0        3.519849   -1.722382    2.413591
    151          1           0        3.173108   -3.430286    5.299779
    152          1           0        5.573697   -2.811851    5.420490
    153          1           0        6.567810   -1.442966    3.578048
    154          1           0        2.995605   -1.390811    1.518077
 ---------------------------------------------------------------------
 Rotational constants (GHZ):           0.0230150           0.0104616           0.0102691
 Leave Link  202 at Fri Feb 26 10:24:27 2021, MaxMem=  7864320000 cpu:               1.1 elap:               0.0
 (Enter /apps/gaussian/g16-c01-avx/g16/l301.exe)
 Standard basis: def2SVP (5D, 7F)
 Ernie: Thresh=  0.10000D-02 Tol=  0.10000D-05 Strict=F.
 There are  1792 symmetry adapted cartesian basis functions of A   symmetry.
 There are  1686 symmetry adapted basis functions of A   symmetry.
  1686 basis functions,  2922 primitive gaussians,  1792 cartesian basis functions
   336 alpha electrons      336 beta electrons
       nuclear repulsion energy     18191.9397303614 Hartrees.
 IExCor= 1009 DFT=T Ex+Corr=PBE1PBE ExCW=0 ScaHFX=  0.250000
 ScaDFX=  0.750000  0.750000  1.000000  1.000000 ScalE2=  1.000000  1.000000
 IRadAn=      7 IRanWt=     -1 IRanGd=            0 ICorTp=0 IEmpDi=141
 NAtoms=  154 NActive=  154 NUniq=  154 SFac= 1.00D+00 NAtFMM=   60 NAOKFM=T Big=T
 Integral buffers will be    131072 words long.
 Raffenetti 2 integral format.
 Two-electron integral symmetry is turned on.
 R6Disp:  Grimme-D3(BJ) Dispersion energy=       -0.2554457682 Hartrees.
 Nuclear repulsion after empirical dispersion term =    18191.6842845932 Hartrees.
 ------------------------------------------------------------------------------
 Polarizable Continuum Model (PCM)
 =================================
 Model                : PCM.
 Atomic radii         : UFF (Universal Force Field).
 Polarization charges : Total charges.
 Charge compensation  : None.
 Solution method      : On-the-fly selection.
 Cavity type          : Scaled VdW (van der Waals Surface) (Alpha=1.100).
 Cavity algorithm     : GePol (No added spheres)
                        Default sphere list used, NSphG=  154.
                        Lebedev-Laikov grids with approx.  5.0 points / Ang**2.
                        Smoothing algorithm: York/Karplus (Gamma=1.0000).
                        Polarization charges: spherical gaussians, with
                                              point-specific exponents (IZeta= 3).
                        Self-potential: point-specific (ISelfS= 7).
                        Self-field    : sphere-specific E.n sum rule (ISelfD= 2).
 Solvent              : DiMethylSulfoxide, Eps=  46.826000 Eps(inf)=   2.007889
 ------------------------------------------------------------------------------
 GePol: Number of generator spheres                  =     154
 GePol: Total number of spheres                      =     154
 GePol: Number of exposed spheres                    =     154 (100.00%)
 GePol: Number of points                             =   10991
 GePol: Average weight of points                     =       0.12
 GePol: Minimum weight of points                     =   0.14D-11
 GePol: Maximum weight of points                     =    0.20577
 GePol: Number of points with low weight             =     841
 GePol: Fraction of low-weight points (<1% of avg)   =       7.65%
 GePol: Cavity surface area                          =   1372.944 Ang**2
 GePol: Cavity volume                                =   1674.986 Ang**3
 Leave Link  301 at Fri Feb 26 10:24:27 2021, MaxMem=  7864320000 cpu:               4.5 elap:               0.2
 (Enter /apps/gaussian/g16-c01-avx/g16/l302.exe)
 NPDir=0 NMtPBC=     1 NCelOv=     1 NCel=       1 NClECP=     1 NCelD=      1
         NCelK=      1 NCelE2=     1 NClLst=     1 CellRange=     0.0.
 One-electron integrals computed using PRISM.
 One-electron integral symmetry used in STVInt
   1 Symmetry operations used in ECPInt.
 ECPInt:  NShTT=  293761 NPrTT= 1082631 LenC2=  177303 LenP2D=  374868.
 LDataN:  DoStor=T MaxTD1= 7 Len=  274
 NBasis=  1686 RedAO= T EigKep=  2.46D-04  NBF=  1686
 NBsUse=  1686 1.00D-06 EigRej= -1.00D+00 NBFU=  1686
 Precomputing XC quadrature grid using
 IXCGrd= 4 IRadAn=           7 IRanWt=          -1 IRanGd=           0 AccXCQ= 0.00D+00.
 Generated NRdTot=       0 NPtTot=           0 NUsed=           0 NTot=          32
 NSgBfM=  1507  1463  1482  1501  1507 MxSgAt=   154 MxSgA2=   154.
 Leave Link  302 at Fri Feb 26 10:24:43 2021, MaxMem=  7864320000 cpu:             472.7 elap:              15.0
 (Enter /apps/gaussian/g16-c01-avx/g16/l303.exe)
 DipDrv:  MaxL=1.
 Leave Link  303 at Fri Feb 26 10:24:43 2021, MaxMem=  7864320000 cpu:              18.2 elap:               0.7
 (Enter /apps/gaussian/g16-c01-avx/g16/l401.exe)
 ExpMin= 3.70D-02 ExpMax= 1.71D+03 ExpMxC= 2.58D+02 IAcc=3 IRadAn=         7 AccDes= 0.00D+00
 Harris functional with IExCor= 1009 and IRadAn=       7 diagonalized for initial guess.
 HarFok:  IExCor= 1009 AccDes= 0.00D+00 IRadAn=         7 IDoV= 1 UseB2=F ITyADJ=14
 ICtDFT=  3500011 ScaDFX=  1.000000  1.000000  1.000000  1.000000
 FoFCou: FMM=F IPFlag=           0 FMFlag=      100000 FMFlg1=        2001
         NFxFlg=           0 DoJE=T BraDBF=F KetDBF=T FulRan=T
         wScrn=  0.000000 ICntrl=       500 IOpCl=  0 I1Cent=   200000004 NGrid=           0
         NMat0=    1 NMatS0=      1 NMatT0=    0 NMatD0=    1 NMtDS0=    0 NMtDT0=    0
 Petite list used in FoFCou.
 Harris En= -4075.15035354432    
 JPrj=0 DoOrth=F DoCkMO=F.
 Leave Link  401 at Fri Feb 26 10:25:18 2021, MaxMem=  7864320000 cpu:            1087.3 elap:              34.4
 (Enter /apps/gaussian/g16-c01-avx/g16/l508.exe)
 Integral symmetry usage will be decided dynamically.
 Tight linear equation convergence will be used.
 RPBE1PBE wavefunction.
 Linear searches until partial convergence.
 Full line searches.
 Fock matrices will be formed incrementally for  20 cycles.
 Inv3:  Mode=1 IEnd=   362406243.
 Iteration    1 A*A^-1 deviation from unit magnitude is 1.09D-14 for  10991.
 Iteration    1 A*A^-1 deviation from orthogonality  is 4.14D-15 for  10978  10971.
 Iteration    1 A^-1*A deviation from unit magnitude is 1.09D-14 for  10991.
 Iteration    1 A^-1*A deviation from orthogonality  is 5.44D-15 for  10984   8945.
 FoFJK:  IHMeth= 1 ICntrl=       0 DoSepK=F KAlg= 0 I1Cent=           0 FoldK=F
 IRaf= 610000000 NMat=       1 IRICut=       1 DoRegI=T DoRafI=F ISym2E= 1 IDoP0=0 IntGTp=1.
 Iteration   1 EE= -4046.57838695870                                    Grad=5.592D+00 Max rot=   47.4418 deg.
 Gradient too large for Newton-Raphson -- use scaled steepest descent instead.
 Alpha Gap=     0.085 HL deriv= 1.93D-02
     ILin= 1 X=0.000D+00 Y=-4.046578386959D+03 DE= 0.00D+00 F= -7.72D+01
 RMSU=  1.83D-03    CP:  9.73D-01
     ILin= 2 X=2.000D-01 Y=-4.058178481617D+03 DE=-1.16D+01 F= -3.36D+01 OKLS=F
 RMSU=  1.84D-03    CP:  9.48D-01  1.96D+00
     ILin= 3 X=4.000D-01 Y=-4.061224388522D+03 DE=-1.46D+01 F= -3.50D+00
     Note:  rotation exceeds Pi/2.
 RMSU=  5.36D-04    CP:  9.38D-01  2.35D+00  1.64D+00
     ILin= 4 X=5.000D-01 Y=-4.061361063434D+03 DE=-1.48D+01 F=  3.01D-01
     Note:  rotation exceeds Pi/2.
 RMSU=  1.03D-03    CP:  9.17D-01  3.00D+00  2.66D+00  3.00D+00
     ILin= 5 X=7.000D-01 Y=-4.060328909419D+03 DE=-1.38D+01 F=  1.23D+01
     An  expanding polynomial of degree  5 produced  0.4743
     Minimum is close to point  4 DX= -2.57D-02 DF= -1.52D-02 DXR=  5.41D-02 DFR=  1.03D-03 which will be used.
 Iteration   2 EE= -4061.36106343372     Delta-E=      -14.782676475024 Grad=3.021D+00 Max rot=   26.6024 deg.
 Gradient too large for Newton-Raphson -- use scaled steepest descent instead.
 Alpha Gap=     0.443 HL deriv= 2.86D-04
     ILin= 1 X=0.000D+00 Y=-4.061361063434D+03 DE= 0.00D+00 F= -3.91D+01
 RMSU=  3.12D-03    CP:  9.23D-01  1.29D+00  5.24D-01  2.70D-01  3.10D-02
     ILin= 2 X=4.000D-01 Y=-4.066454504888D+03 DE=-5.09D+00 F=  7.18D+00 OKLS=T
     Accept linear search using points  1 and  2.
     An  expanding polynomial of degree  2 produced  0.1964
 RMSU=  9.16D-04    CP:  9.30D-01  1.79D+00  9.56D-01  4.73D-01 -8.49D-02
                    CP:  4.96D-01
 Iteration   3 EE= -4066.35326313856     Delta-E=       -4.992199704840 Grad=1.703D+00 Max rot=   16.5276 deg.
 Gradient too large for Newton-Raphson -- use scaled steepest descent instead.
 Alpha Gap=     0.403 HL deriv= 1.08D-03
     ILin= 1 X=0.000D+00 Y=-4.066353263139D+03 DE= 0.00D+00 F= -1.64D+01
 RMSU=  1.29D-03    CP:  9.21D-01  1.34D+00  5.20D-01  8.10D-02 -1.20D-01
                    CP:  5.98D-01  8.33D-01
     ILin= 2 X=3.000D-01 Y=-4.068742584294D+03 DE=-2.39D+00 F= -1.25D+00 OKLS=F
 RMSU=  3.34D-04    CP:  9.19D-01  1.20D+00  3.99D-01  1.93D-03 -1.15D-01
                    CP:  6.05D-01  7.25D-01  1.22D+00
     ILin= 3 X=4.000D-01 Y=-4.068767185748D+03 DE=-2.41D+00 F=  5.28D-01
     Accept linear search using points  2 and  3.
     An  expanding polynomial of degree  3 produced  0.3417
 RMSU=  1.08D-05    CP:  9.20D-01  1.28D+00  4.68D-01  4.52D-02 -1.18D-01
                    CP:  6.02D-01  7.90D-01  1.11D+00  3.73D-01
 Iteration   4 EE= -4068.77464949093     Delta-E=       -2.421386352373 Grad=1.331D+00 Max rot=    5.0172 deg.
 Gradient too large for Newton-Raphson -- use scaled steepest descent instead.
 Alpha Gap=     0.179 HL deriv= 4.92D-04
     ILin= 1 X=0.000D+00 Y=-4.068774649491D+03 DE= 0.00D+00 F= -6.38D+00
 RMSU=  6.72D-04    CP:  9.18D-01  1.03D+00  2.73D-01 -6.76D-02 -2.05D-01
                    CP:  5.26D-01  6.37D-01  1.03D+00  2.03D-01 -3.00D+00
     ILin= 2 X=3.000D-01 Y=-4.070453215821D+03 DE=-1.68D+00 F= -4.57D+00 OKLS=F
 RMSU=  7.15D-05    CP:  9.18D-01  9.52D-01  2.16D-01 -9.21D-02 -2.11D-01
                    CP:  4.98D-01  5.78D-01  9.90D-01  1.97D-01 -3.00D+00
                    CP:  1.30D+00
     ILin= 3 X=4.000D-01 Y=-4.070865474967D+03 DE=-2.09D+00 F= -3.65D+00
 RMSU=  1.11D-05    CP:  9.17D-01  8.75D-01  1.63D-01 -1.16D-01 -2.06D-01
                    CP:  4.68D-01  5.15D-01  9.45D-01  2.14D-01 -3.00D+00
                    CP:  1.56D+00  2.43D+00
     ILin= 4 X=5.000D-01 Y=-4.071176989984D+03 DE=-2.40D+00 F= -2.56D+00
 RMSU=  2.41D-04    CP:  9.16D-01  7.32D-01  7.71D-02 -1.74D-01 -1.63D-01
                    CP:  4.06D-01  3.83D-01  8.45D-01  3.07D-01 -3.00D+00
                    CP:  1.96D+00  3.00D+00  3.00D+00
     ILin= 5 X=7.000D-01 Y=-4.071434368962D+03 DE=-2.66D+00 F=  8.33D-02
 RMSU=  1.73D-04    CP:  9.15D-01  5.45D-01  5.26D-03 -3.04D-01 -3.14D-02
                    CP:  3.16D-01  1.87D-01  6.87D-01  5.50D-01 -3.00D+00
                    CP:  2.22D+00  3.00D+00  3.00D+00  3.00D+00
     ILin= 6 X=1.000D+00 Y=-4.070698768311D+03 DE=-1.92D+00 F=  4.95D+00
     An  expanding polynomial of degree  6 produced  0.6944
     Minimum is close to point  5 DX= -5.60D-03 DF= -2.29D-04 DXR=  8.07D-03 DFR=  8.60D-05 which will be used.
 Iteration   5 EE= -4071.43436896208     Delta-E=       -2.659719471143 Grad=8.101D-01 Max rot=    7.9084 deg.
 Gradient too large for Newton-Raphson -- use scaled steepest descent instead.
 Alpha Gap=     0.527 HL deriv= 4.49D-04
     ILin= 1 X=0.000D+00 Y=-4.071434368962D+03 DE= 0.00D+00 F= -3.01D+00
 RMSU=  7.70D-04    CP:  9.10D-01  7.01D-01  1.03D-02  2.53D-03 -7.45D-02
                    CP:  4.13D-01  3.28D-01  9.18D-01  3.90D-01 -3.00D+00
                    CP:  1.77D+00  3.00D+00  3.00D+00  1.10D+00  1.64D-01
     ILin= 2 X=5.000D-01 Y=-4.071953642343D+03 DE=-5.19D-01 F=  5.74D-01 OKLS=T
     Accept linear search using points  1 and  2.
     An  expanding polynomial of degree  2 produced  0.2797
 RMSU=  6.97D-05    CP:  9.12D-01  7.16D-01  3.67D-02 -9.56D-02 -1.08D-01
                    CP:  4.13D-01  3.58D-01  8.95D-01  3.26D-01 -3.00D+00
                    CP:  1.89D+00  3.00D+00  3.00D+00  1.03D+00  7.27D-02
                    CP:  5.66D-01
 Iteration   6 EE= -4071.94899745279     Delta-E=       -0.514628490717 Grad=4.975D-01 Max rot=    4.1198 deg.
 Gradient too large for Newton-Raphson -- use scaled steepest descent instead.
 Alpha Gap=     0.322 HL deriv= 1.12D-03
     ILin= 1 X=0.000D+00 Y=-4.071948997453D+03 DE= 0.00D+00 F= -1.28D+00
 RMSU=  5.81D-04    CP:  9.09D-01  6.05D-01 -3.93D-02  2.48D-03 -1.77D-02
                    CP:  3.34D-01  2.12D-01  8.06D-01  2.96D-01 -3.00D+00
                    CP:  1.87D+00  3.00D+00  3.00D+00  1.33D+00  7.97D-01
                    CP:  9.22D-01 -2.11D+00
     ILin= 2 X=7.000D-01 Y=-4.072611472480D+03 DE=-6.62D-01 F= -4.56D-01 OKLS=T
     Reject lnstep IMin12=  1  2 Big=T Turn=F Min= 1.278D+00 FVal=-4.072894146585D+03 Lims=  0.00D+00  7.00D-01
 RMSU=  2.05D-04    CP:  9.08D-01  5.50D-01 -5.90D-02  9.46D-02  1.95D-03
                    CP:  3.03D-01  1.55D-01  7.59D-01  2.73D-01 -3.00D+00
                    CP:  1.80D+00  3.00D+00  3.00D+00  1.49D+00  1.10D+00
                    CP:  9.92D-01 -3.00D+00  1.27D+00
     ILin= 3 X=1.000D+00 Y=-4.072657608881D+03 DE=-7.09D-01 F=  1.70D-01
     Accept linear search using points  2 and  3.
     An  expanding polynomial of degree  3 produced  0.8488
 RMSU=  2.26D-05    CP:  9.08D-01  5.78D-01 -5.07D-02  4.78D-02 -5.84D-03
                    CP:  3.18D-01  1.83D-01  7.83D-01  2.84D-01 -3.00D+00
                    CP:  1.84D+00  3.00D+00  3.00D+00  1.41D+00  9.49D-01
                    CP:  9.64D-01 -3.00D+00  1.15D+00  3.68D-01
 Iteration   7 EE= -4072.65789260832     Delta-E=       -0.708895155523 Grad=3.481D-01 Max rot=    2.9482 deg.
 Gradient too large for Newton-Raphson -- use scaled steepest descent instead.
 Alpha Gap=     0.416 HL deriv= 1.00D-03
     ILin= 1 X=0.000D+00 Y=-4.072657892608D+03 DE= 0.00D+00 F= -5.23D-01
 Restarting incremental Fock formation.
     ILin= 2 X=5.000D-01 Y=-4.072813845422D+03 DE=-1.56D-01 F= -1.07D-01 OKLS=F
 RMSU=  1.30D-04    CP:  1.00D+00
     ILin= 3 X=7.000D-01 Y=-4.072819976044D+03 DE=-1.62D-01 F=  4.34D-02
     Accept linear search using points  2 and  3.
     An  expanding polynomial of degree  3 produced  0.5907
 RMSU=  2.19D-06    CP:  1.00D+00  4.53D-01
 Iteration   8 EE= -4072.82035325947     Delta-E=       -0.162460651158 Grad=3.060D-01 Max rot=    1.6711 deg.
 Gradient too large for Newton-Raphson -- use scaled steepest descent instead.
 Alpha Gap=     0.297 HL deriv= 6.25D-04
     ILin= 1 X=0.000D+00 Y=-4.072820353259D+03 DE= 0.00D+00 F= -3.62D-01
 RMSU=  3.57D-04    CP:  9.97D-01  6.58D-01 -3.00D+00
     ILin= 2 X=7.000D-01 Y=-4.072904791384D+03 DE=-8.44D-02 F=  1.27D-01 OKLS=T
     Accept linear search using points  1 and  2.
     An  expanding polynomial of degree  2 produced  0.4551
 RMSU=  1.47D-05    CP:  9.98D-01  5.92D-01 -3.00D+00  6.52D-01
 Iteration   9 EE= -4072.91442681177     Delta-E=       -0.094073552300 Grad=1.914D-01 Max rot=    1.8439 deg.
 Gradient too large for Newton-Raphson -- use scaled steepest descent instead.
 Alpha Gap=     0.379 HL deriv= 6.05D-04
     ILin= 1 X=0.000D+00 Y=-4.072914426812D+03 DE= 0.00D+00 F= -1.60D-01
 RMSU=  1.14D-04    CP:  9.98D-01  1.63D+00 -3.00D+00  6.81D-01 -7.88D-01
     ILin= 2 X=5.000D-01 Y=-4.072966613773D+03 DE=-5.22D-02 F= -4.83D-02 OKLS=F
 RMSU=  9.58D-06    CP:  9.98D-01  2.03D+00 -3.00D+00  6.90D-01 -2.00D+00
                    CP:  1.40D+00
     ILin= 3 X=7.000D-01 Y=-4.072971882934D+03 DE=-5.75D-02 F= -4.61D-03
 RMSU=  3.60D-05    CP:  9.97D-01  2.78D+00 -3.00D+00  7.05D-01 -3.00D+00
                    CP:  2.15D+00  3.00D+00
     ILin= 4 X=1.100D+00 Y=-4.072957226471D+03 DE=-4.28D-02 F=  7.60D-02
     An  expanding polynomial of degree  4 produced  0.7230
     Minimum is close to point  3 DX=  2.30D-02 DF= -5.61D-05 DXR=  3.18D-02 DFR=  9.77D-04 which will be used.
 Iteration  10 EE= -4072.97188293422     Delta-E=       -0.057456122446 Grad=2.307D-01 Max rot=    2.4255 deg.
 Gradient too large for Newton-Raphson -- use scaled steepest descent instead.
 Alpha Gap=     0.309 HL deriv= 6.42D-04
     ILin= 1 X=0.000D+00 Y=-4.072971882934D+03 DE= 0.00D+00 F= -2.08D-01
 RMSU=  1.44D-04    CP:  9.96D-01  1.93D+00 -3.00D+00  1.27D+00 -3.00D+00
                    CP:  1.18D+00  1.76D+00  9.91D-01
     ILin= 2 X=6.000D-01 Y=-4.073013261268D+03 DE=-4.14D-02 F=  7.18D-02 OKLS=T
     Accept linear search using points  1 and  2.
     An  expanding polynomial of degree  2 produced  0.3664
 RMSU=  9.12D-06    CP:  9.97D-01  1.98D+00 -3.00D+00  1.05D+00 -3.00D+00
                    CP:  1.28D+00  1.35D+00  2.97D-01  6.10D-01
 Iteration  11 EE= -4073.01720043243     Delta-E=       -0.045317498207 Grad=1.428D-01 Max rot=    3.1088 deg.
 Gradient too large for Newton-Raphson -- use scaled steepest descent instead.
 Alpha Gap=     0.343 HL deriv= 4.24D-04
     ILin= 1 X=0.000D+00 Y=-4.073017200432D+03 DE= 0.00D+00 F= -1.09D-01
 RMSU=  8.50D-05    CP:  9.96D-01  2.44D+00 -3.00D+00  1.11D+00 -3.00D+00
                    CP:  2.19D+00  3.00D+00  1.93D+00  7.81D-01 -6.29D-01
     ILin= 2 X=5.000D-01 Y=-4.073060398284D+03 DE=-4.32D-02 F= -6.31D-02 OKLS=F
 RMSU=  1.36D-05    CP:  9.96D-01  2.61D+00 -3.00D+00  1.13D+00 -3.00D+00
                    CP:  2.50D+00  3.00D+00  2.89D+00  8.21D-01 -7.83D-01
                    CP:  1.42D+00
     ILin= 3 X=7.000D-01 Y=-4.073071124738D+03 DE=-5.39D-02 F= -4.43D-02
 RMSU=  5.54D-05    CP:  9.95D-01  2.83D+00 -3.00D+00  1.15D+00 -3.00D+00
                    CP:  2.89D+00  3.00D+00  3.00D+00  8.50D-01 -8.74D-01
                    CP:  2.04D+00  3.00D+00
     ILin= 4 X=1.000D+00 Y=-4.073080400238D+03 DE=-6.32D-02 F= -1.80D-02
 RMSU=  7.68D-05    CP:  9.94D-01  3.00D+00 -3.00D+00  1.17D+00 -3.00D+00
                    CP:  3.00D+00  3.00D+00  3.00D+00  8.02D-01 -6.55D-01
                    CP:  2.96D+00  3.00D+00  3.00D+00
     ILin= 5 X=1.500D+00 Y=-4.073080216375D+03 DE=-6.30D-02 F=  1.66D-02
     An  expanding polynomial of degree  5 produced  1.2352
 RMSU=  6.73D-06    CP:  9.94D-01  2.98D+00 -3.00D+00  1.17D+00 -3.00D+00
                    CP:  3.00D+00  3.00D+00  3.00D+00  8.43D-01 -8.27D-01
                    CP:  2.50D+00  3.00D+00  1.96D+00  4.02D-01
 Iteration  12 EE= -4073.08248104006     Delta-E=       -0.065280607629 Grad=3.256D-01 Max rot=    4.4690 deg.
 Gradient too large for Newton-Raphson -- use scaled steepest descent instead.
 Alpha Gap=     0.292 HL deriv= 1.39D-03
     ILin= 1 X=0.000D+00 Y=-4.073082481040D+03 DE= 0.00D+00 F= -5.96D-01
 RMSU=  4.57D-04    CP:  9.91D-01  2.20D+00 -3.00D+00  1.55D+00 -3.00D+00
                    CP:  1.53D+00  3.00D+00  3.00D+00  2.18D+00 -3.00D+00
                    CP:  1.60D+00  3.00D+00  3.00D+00  1.88D+00  3.00D+00
     ILin= 2 X=7.000D-01 Y=-4.073221985963D+03 DE=-1.40D-01 F=  1.57D-01 OKLS=T
     Accept linear search using points  1 and  2.
     An  expanding polynomial of degree  2 produced  0.4562
 RMSU=  7.21D-05    CP:  9.92D-01  2.53D+00 -3.00D+00  1.45D+00 -3.00D+00
                    CP:  2.24D+00  3.00D+00  3.00D+00  1.96D+00 -3.00D+00
                    CP:  2.09D+00  3.00D+00  3.00D+00  1.26D+00  3.00D+00
                    CP:  6.45D-01
 Iteration  13 EE= -4073.23320166117     Delta-E=       -0.150720621117 Grad=2.329D-01 Max rot=    3.0718 deg.
 Gradient too large for Newton-Raphson -- use scaled steepest descent instead.
 Alpha Gap=     0.278 HL deriv= 7.89D-04
     ILin= 1 X=0.000D+00 Y=-4.073233201661D+03 DE= 0.00D+00 F= -2.56D-01
 RMSU=  2.54D-04    CP:  9.90D-01  2.41D+00 -3.00D+00  1.38D+00 -3.00D+00
                    CP:  2.14D+00  3.00D+00  3.00D+00  7.17D-01 -3.00D+00
                    CP:  3.00D+00  3.00D+00  3.00D+00  2.55D+00 -1.00D+00
                    CP:  9.87D-01  1.31D-01
     ILin= 2 X=8.000D-01 Y=-4.073307662182D+03 DE=-7.45D-02 F=  6.83D-02 OKLS=T
     Accept linear search using points  1 and  2.
     An  expanding polynomial of degree  2 produced  0.5750
 RMSU=  1.77D-05    CP:  9.91D-01  2.46D+00 -3.00D+00  1.41D+00 -3.00D+00
                    CP:  2.24D+00  3.00D+00  3.00D+00  1.11D+00 -3.00D+00
                    CP:  3.00D+00  3.00D+00  3.00D+00  2.19D+00  6.38D-01
                    CP:  9.19D-01  4.98D-01  7.04D-01
 Iteration  14 EE= -4073.31295130330     Delta-E=       -0.079749642129 Grad=1.658D-01 Max rot=    1.5316 deg.
 Gradient too large for Newton-Raphson -- use scaled steepest descent instead.
 Alpha Gap=     0.292 HL deriv= 5.97D-04
     ILin= 1 X=0.000D+00 Y=-4.073312951303D+03 DE= 0.00D+00 F= -9.96D-02
 RMSU=  9.13D-05    CP:  9.90D-01  2.32D+00 -3.00D+00  1.45D+00 -3.00D+00
                    CP:  1.80D+00  3.00D+00  3.00D+00  1.26D+00 -3.00D+00
                    CP:  2.71D+00  3.00D+00  3.00D+00  2.64D+00  1.48D+00
                    CP:  1.02D+00 -5.43D-02  6.55D-01  5.60D-01
     ILin= 2 X=5.000D-01 Y=-4.073340356380D+03 DE=-2.74D-02 F= -1.04D-02 OKLS=F
 Restarting incremental Fock formation.
     ILin= 3 X=8.000D-01 Y=-4.073335636281D+03 DE=-2.27D-02 F=  4.17D-02
     An  expanding polynomial of degree  3 produced  0.5608
 RMSU=  6.45D-05    CP:  1.00D+00
 Iteration  15 EE= -4073.34066721402     Delta-E=       -0.027715910717 Grad=1.054D-01 Max rot=    0.9513 deg.
 Gradient too large for Newton-Raphson -- use scaled steepest descent instead.
 Alpha Gap=     0.288 HL deriv= 3.22D-04
     ILin= 1 X=0.000D+00 Y=-4.073340667214D+03 DE= 0.00D+00 F= -4.05D-02
 RMSU=  1.01D-04    CP:  1.00D+00  1.06D+00
     ILin= 2 X=6.000D-01 Y=-4.073352214846D+03 DE=-1.15D-02 F=  1.99D-03 OKLS=T
     Accept linear search using points  1 and  2.
     An  expanding polynomial of degree  2 produced  0.4805
 RMSU=  9.35D-07    CP:  1.00D+00  1.05D+00  8.01D-01
 Iteration  16 EE= -4073.35194785612     Delta-E=       -0.011280642102 Grad=5.447D-02 Max rot=    0.6600 deg.
 Gradient too large for Newton-Raphson -- use scaled steepest descent instead.
 Alpha Gap=     0.291 HL deriv= 7.31D-05
     ILin= 1 X=0.000D+00 Y=-4.073351947856D+03 DE= 0.00D+00 F= -1.31D-02
 RMSU=  1.13D-05    CP:  1.00D+00  3.79D-01  9.36D-01 -3.00D+00
     ILin= 2 X=5.000D-01 Y=-4.073356562914D+03 DE=-4.62D-03 F= -5.37D-03 OKLS=F
 RMSU=  5.42D-06    CP:  1.00D+00 -1.50D-01  1.04D+00 -3.00D+00  1.83D+00
     ILin= 3 X=9.000D-01 Y=-4.073357472549D+03 DE=-5.52D-03 F=  8.29D-04
     Accept linear search using points  2 and  3.
     An  expanding polynomial of degree  3 produced  0.7193
 RMSU=  6.81D-08    CP:  1.00D+00  8.83D-02  9.94D-01 -3.00D+00  1.46D+00
                    CP:  4.98D-01
 Iteration  17 EE= -4073.35736890881     Delta-E=       -0.005421052691 Grad=4.464D-02 Max rot=    0.3358 deg.
 Gradient too large for Newton-Raphson -- use scaled steepest descent instead.
 Alpha Gap=     0.290 HL deriv= 7.83D-05
     ILin= 1 X=0.000D+00 Y=-4.073357368909D+03 DE= 0.00D+00 F= -7.08D-03
 RMSU=  1.03D-05    CP:  1.00D+00  1.43D-01  1.38D+00 -3.00D+00  1.42D+00
                    CP:  1.54D+00  3.00D+00
     ILin= 2 X=6.000D-01 Y=-4.073359153045D+03 DE=-1.78D-03 F=  1.13D-03 OKLS=T
     Accept linear search using points  1 and  2.
     An  expanding polynomial of degree  2 produced  0.4114
 RMSU=  7.98D-08    CP:  1.00D+00  1.25D-01  1.26D+00 -3.00D+00  1.43D+00
                    CP:  1.18D+00  3.00D+00  6.86D-01
 Iteration  18 EE= -4073.35912300105     Delta-E=       -0.001754092238 Grad=2.014D-02 Max rot=    0.2547 deg.
 Gradient too large for Newton-Raphson -- use scaled steepest descent instead.
 Alpha Gap=     0.290 HL deriv= 2.00D-05
     ILin= 1 X=0.000D+00 Y=-4.073359123001D+03 DE= 0.00D+00 F= -1.96D-03
 RMSU=  1.85D-06    CP:  1.00D+00 -8.08D-02  1.34D+00 -3.00D+00  2.07D+00
                    CP:  1.85D+00  3.00D+00  8.16D-01 -2.64D+00
     ILin= 2 X=5.000D-01 Y=-4.073359891129D+03 DE=-7.68D-04 F= -1.11D-03 OKLS=F
 RMSU=  3.13D-07    CP:  1.00D+00 -3.26D-01  1.43D+00 -3.00D+00  2.84D+00
                    CP:  2.80D+00  3.00D+00  9.71D-01 -3.00D+00  2.20D+00
     ILin= 3 X=1.100D+00 Y=-4.073360251290D+03 DE=-1.13D-03 F= -8.84D-05
     Reject lnstep IMin12=  2  3 Big=T Turn=F Min= 1.420D+00 FVal=-4.073360287922D+03 Lims=  5.00D-01  1.10D+00
 RMSU=  1.78D-05    CP:  9.99D-01 -7.67D-01  1.60D+00 -3.00D+00  3.00D+00
                    CP:  3.00D+00  3.00D+00  1.25D+00 -3.00D+00  3.00D+00
                    CP:  3.00D+00
     ILin= 4 X=2.200D+00 Y=-4.073359312235D+03 DE=-1.89D-04 F=  1.80D-03
     An  expanding polynomial of degree  4 produced  1.1517
     Minimum is close to point  3 DX=  5.17D-02 DF= -2.29D-06 DXR=  4.49D-02 DFR=  2.03D-03 which will be used.
 Iteration  19 EE= -4073.36025129027     Delta-E=       -0.001128289223 Grad=2.113D-02 Max rot=    0.0650 deg.
 Gradient too large for Newton-Raphson -- use scaled steepest descent instead.
 Alpha Gap=     0.291 HL deriv= 2.47D-05
     ILin= 1 X=0.000D+00 Y=-4.073360251290D+03 DE= 0.00D+00 F= -1.40D-03
 RMSU=  2.58D-06    CP:  1.00D+00 -2.38D-01  1.58D+00 -3.00D+00  2.51D+00
                    CP:  3.00D+00  3.00D+00  1.96D+00 -3.00D+00  1.59D+00
                    CP:  1.44D+00  5.09D-02
     ILin= 2 X=7.000D-01 Y=-4.073360308100D+03 DE=-5.68D-05 F=  1.24D-03 OKLS=T
     Accept linear search using points  1 and  2.
     An  expanding polynomial of degree  2 produced  0.3618
 RMSU=  3.79D-07    CP:  1.00D+00 -2.81D-01  1.51D+00 -3.00D+00  2.67D+00
                    CP:  3.00D+00  3.00D+00  1.48D+00 -3.00D+00  1.88D+00
                    CP:  1.19D+00  8.72D-03  4.37D-01
 Iteration  20 EE= -4073.36051188084     Delta-E=       -0.000260590572 Grad=5.736D-03 Max rot=    0.0578 deg.
 SCF Done:  E(RPBE1PBE) =  -4073.36051188     a.u. after   20 cycles
            Convg  =    0.5736D-02                    54 Fock formations.
              S**2 =  0.0000                  -V/T =  2.0509
 Leave Link  508 at Fri Feb 26 11:54:10 2021, MaxMem=  7864320000 cpu:          167321.1 elap:            5331.9
 (Enter /apps/gaussian/g16-c01-avx/g16/l502.exe)
 Integral symmetry usage will be decided dynamically.
 Closed shell SCF:
 Using DIIS extrapolation, IDIIS=  1040.
 NGot=  7864320000 LenX=  7857818442 LenY=  7854605386
 Requested convergence on RMS density matrix=1.00D-08 within 128 cycles.
 Requested convergence on MAX density matrix=1.00D-06.
 Requested convergence on             energy=1.00D-06.
 No special actions if energy rises.
 Fock matrices will be formed incrementally for  20 cycles.

 Cycle   1  Pass 1  IDiag  1:
 FoFJK:  IHMeth= 1 ICntrl=       0 DoSepK=F KAlg= 0 I1Cent=           0 FoldK=F
 IRaf= 610000000 NMat=       1 IRICut=       1 DoRegI=T DoRafI=F ISym2E= 0 IDoP0=0 IntGTp=1.
 FoFCou: FMM=T IPFlag=           0 FMFlag=      100000 FMFlg1=        2001
         NFxFlg=           0 DoJE=F BraDBF=F KetDBF=F FulRan=T
         wScrn=  0.000000 ICntrl=         0 IOpCl=  0 I1Cent=           0 NGrid=           0
         NMat0=    1 NMatS0=      1 NMatT0=    0 NMatD0=    1 NMtDS0=    0 NMtDT0=    0
 Symmetry not used in FoFCou.
 FMM levels:  10  Number of levels for PrismC:   9
 E= -4073.36051188096    
 DIIS: error= 1.39D-04 at cycle   1 NSaved=   1.
 NSaved= 1 IEnMin= 1 EnMin= -4073.36051188096     IErMin= 1 ErrMin= 1.39D-04
 ErrMax= 1.39D-04  0.00D+00 EMaxC= 1.00D-01 BMatC= 1.64D-05 BMatP= 1.64D-05
 IDIUse=3 WtCom= 9.99D-01 WtEn= 1.39D-03
 Coeff-Com:  0.100D+01
 Coeff-En:   0.100D+01
 Coeff:      0.100D+01
 Gap=     0.290 Goal=   None    Shift=    0.000
 RMSDP=1.45D-05 MaxDP=1.57D-03              OVMax= 8.79D-03

 Cycle   2  Pass 1  IDiag  1:
 RMSU=  1.45D-05    CP:  1.00D+00
 E= -4073.36061701457     Delta-E=       -0.000105133608 Rises=F Damp=F
 DIIS: error= 5.68D-05 at cycle   2 NSaved=   2.
 NSaved= 2 IEnMin= 2 EnMin= -4073.36061701457     IErMin= 2 ErrMin= 5.68D-05
 ErrMax= 5.68D-05  0.00D+00 EMaxC= 1.00D-01 BMatC= 1.29D-05 BMatP= 1.64D-05
 IDIUse=1 WtCom= 1.00D+00 WtEn= 0.00D+00
 Coeff-Com:  0.452D+00 0.548D+00
 Coeff:      0.452D+00 0.548D+00
 Gap=     0.144 Goal=   None    Shift=    0.000
 RMSDP=3.64D-06 MaxDP=5.14D-04 DE=-1.05D-04 OVMax= 8.02D-04

 Cycle   3  Pass 1  IDiag  1:
 RMSU=  3.62D-06    CP:  1.00D+00  1.02D+00
 E= -4073.36062532587     Delta-E=       -0.000008311294 Rises=F Damp=F
 DIIS: error= 3.68D-05 at cycle   3 NSaved=   3.
 NSaved= 3 IEnMin= 3 EnMin= -4073.36062532587     IErMin= 3 ErrMin= 3.68D-05
 ErrMax= 3.68D-05  0.00D+00 EMaxC= 1.00D-01 BMatC= 6.19D-06 BMatP= 1.29D-05
 IDIUse=1 WtCom= 1.00D+00 WtEn= 0.00D+00
 Coeff-Com: -0.109D+00 0.423D+00 0.686D+00
 Coeff:     -0.109D+00 0.423D+00 0.686D+00
 Gap=     0.144 Goal=   None    Shift=    0.000
 RMSDP=2.11D-06 MaxDP=2.77D-04 DE=-8.31D-06 OVMax= 9.04D-04

 Cycle   4  Pass 1  IDiag  1:
 RMSU=  1.02D-06    CP:  1.00D+00  1.13D+00  7.09D-01
 E= -4073.36063222813     Delta-E=       -0.000006902261 Rises=F Damp=F
 DIIS: error= 9.22D-06 at cycle   4 NSaved=   4.
 NSaved= 4 IEnMin= 4 EnMin= -4073.36063222813     IErMin= 4 ErrMin= 9.22D-06
 ErrMax= 9.22D-06  0.00D+00 EMaxC= 1.00D-01 BMatC= 1.90D-07 BMatP= 6.19D-06
 IDIUse=1 WtCom= 1.00D+00 WtEn= 0.00D+00
 Coeff-Com: -0.612D-01 0.205D+00 0.356D+00 0.501D+00
 Coeff:     -0.612D-01 0.205D+00 0.356D+00 0.501D+00
 Gap=     0.144 Goal=   None    Shift=    0.000
 RMSDP=3.83D-07 MaxDP=6.74D-05 DE=-6.90D-06 OVMax= 1.09D-04

 Cycle   5  Pass 1  IDiag  1:
 RMSU=  3.62D-07    CP:  1.00D+00  1.13D+00  7.31D-01  9.17D-01
 E= -4073.36063239114     Delta-E=       -0.000000163018 Rises=F Damp=F
 DIIS: error= 4.30D-06 at cycle   5 NSaved=   5.
 NSaved= 5 IEnMin= 5 EnMin= -4073.36063239114     IErMin= 5 ErrMin= 4.30D-06
 ErrMax= 4.30D-06  0.00D+00 EMaxC= 1.00D-01 BMatC= 4.72D-08 BMatP= 1.90D-07
 IDIUse=1 WtCom= 1.00D+00 WtEn= 0.00D+00
 Coeff-Com: -0.114D-02-0.130D-01-0.410D-02 0.333D+00 0.685D+00
 Coeff:     -0.114D-02-0.130D-01-0.410D-02 0.333D+00 0.685D+00
 Gap=     0.144 Goal=   None    Shift=    0.000
 RMSDP=1.69D-07 MaxDP=2.47D-05 DE=-1.63D-07 OVMax= 4.91D-05

 Cycle   6  Pass 1  IDiag  1:
 RMSU=  9.88D-08    CP:  1.00D+00  1.13D+00  7.38D-01  1.02D+00  7.82D-01
 E= -4073.36063243790     Delta-E=       -0.000000046755 Rises=F Damp=F
 DIIS: error= 7.29D-07 at cycle   6 NSaved=   6.
 NSaved= 6 IEnMin= 6 EnMin= -4073.36063243790     IErMin= 6 ErrMin= 7.29D-07
 ErrMax= 7.29D-07  0.00D+00 EMaxC= 1.00D-01 BMatC= 4.18D-09 BMatP= 4.72D-08
 IDIUse=1 WtCom= 1.00D+00 WtEn= 0.00D+00
 Coeff-Com:  0.322D-02-0.242D-01-0.297D-01 0.171D+00 0.409D+00 0.471D+00
 Coeff:      0.322D-02-0.242D-01-0.297D-01 0.171D+00 0.409D+00 0.471D+00
 Gap=     0.144 Goal=   None    Shift=    0.000
 RMSDP=4.81D-08 MaxDP=5.35D-06 DE=-4.68D-08 OVMax= 8.07D-06

 Cycle   7  Pass 1  IDiag  1:
 RMSU=  3.17D-08    CP:  1.00D+00  1.14D+00  7.38D-01  1.04D+00  8.10D-01
                    CP:  7.03D-01
 E= -4073.36063244181     Delta-E=       -0.000000003907 Rises=F Damp=F
 DIIS: error= 1.77D-07 at cycle   7 NSaved=   7.
 NSaved= 7 IEnMin= 7 EnMin= -4073.36063244181     IErMin= 7 ErrMin= 1.77D-07
 ErrMax= 1.77D-07  0.00D+00 EMaxC= 1.00D-01 BMatC= 1.48D-10 BMatP= 4.18D-09
 IDIUse=1 WtCom= 1.00D+00 WtEn= 0.00D+00
 Coeff-Com:  0.167D-02-0.995D-02-0.134D-01 0.453D-01 0.111D+00 0.171D+00
 Coeff-Com:  0.695D+00
 Coeff:      0.167D-02-0.995D-02-0.134D-01 0.453D-01 0.111D+00 0.171D+00
 Coeff:      0.695D+00
 Gap=     0.144 Goal=   None    Shift=    0.000
 RMSDP=1.54D-08 MaxDP=2.39D-06 DE=-3.91D-09 OVMax= 5.51D-06

 Cycle   8  Pass 1  IDiag  1:
 RMSU=  1.34D-08    CP:  1.00D+00  1.14D+00  7.38D-01  1.04D+00  8.15D-01
                    CP:  7.50D-01  9.38D-01
 E= -4073.36063244236     Delta-E=       -0.000000000553 Rises=F Damp=F
 DIIS: error= 2.44D-07 at cycle   8 NSaved=   8.
 NSaved= 8 IEnMin= 8 EnMin= -4073.36063244236     IErMin= 7 ErrMin= 1.77D-07
 ErrMax= 2.44D-07  0.00D+00 EMaxC= 1.00D-01 BMatC= 8.81D-11 BMatP= 1.48D-10
 IDIUse=1 WtCom= 1.00D+00 WtEn= 0.00D+00
 Coeff-Com:  0.399D-03-0.150D-02-0.242D-02-0.276D-02-0.884D-02-0.543D-03
 Coeff-Com:  0.450D+00 0.566D+00
 Coeff:      0.399D-03-0.150D-02-0.242D-02-0.276D-02-0.884D-02-0.543D-03
 Coeff:      0.450D+00 0.566D+00
 Gap=     0.144 Goal=   None    Shift=    0.000
 RMSDP=7.59D-09 MaxDP=1.29D-06 DE=-5.53D-10 OVMax= 2.26D-06

 Cycle   9  Pass 1  IDiag  1:
 RMSU=  5.15D-09    CP:  1.00D+00  1.14D+00  7.38D-01  1.04D+00  8.16D-01
                    CP:  7.61D-01  1.07D+00  7.55D-01
 E= -4073.36063244252     Delta-E=       -0.000000000156 Rises=F Damp=F
 DIIS: error= 6.33D-08 at cycle   9 NSaved=   9.
 NSaved= 9 IEnMin= 9 EnMin= -4073.36063244252     IErMin= 9 ErrMin= 6.33D-08
 ErrMax= 6.33D-08  0.00D+00 EMaxC= 1.00D-01 BMatC= 7.52D-12 BMatP= 8.81D-11
 IDIUse=1 WtCom= 1.00D+00 WtEn= 0.00D+00
 Coeff-Com: -0.255D-05 0.517D-03 0.473D-03-0.775D-02-0.206D-01-0.279D-01
 Coeff-Com:  0.156D+00 0.303D+00 0.596D+00
 Coeff:     -0.255D-05 0.517D-03 0.473D-03-0.775D-02-0.206D-01-0.279D-01
 Coeff:      0.156D+00 0.303D+00 0.596D+00
 Gap=     0.144 Goal=   None    Shift=    0.000
 RMSDP=2.50D-09 MaxDP=3.67D-07 DE=-1.56D-10 OVMax= 4.93D-07

 Error on total polarization charges =  0.02528
 SCF Done:  E(RPBE1PBE) =  -4073.36063244     A.U. after    9 cycles
            NFock=  9  Conv=0.25D-08     -V/T= 2.0509
 KE= 3.876122116942D+03 PE=-4.556807207819D+04 EE= 1.942690504421D+04
 Leave Link  502 at Fri Feb 26 12:07:58 2021, MaxMem=  7864320000 cpu:           25913.5 elap:             822.7
 (Enter /apps/gaussian/g16-c01-avx/g16/l508.exe)
 QCSCF skips out because SCF is already converged.
 Leave Link  508 at Fri Feb 26 12:07:58 2021, MaxMem=  7864320000 cpu:               0.6 elap:               0.4
 (Enter /apps/gaussian/g16-c01-avx/g16/l601.exe)
 Copying SCF densities to generalized density rwf, IOpCl= 0 IROHF=0.
 Hyperfine terms turned off by default for NAtoms > 100.

 **********************************************************************

            Population analysis using the SCF Density.

 **********************************************************************

 Orbital symmetries:
       Occupied  (A) (A) (A) (A) (A) (A) (A) (A) (A) (A) (A) (A)
                 (A) (A) (A) (A) (A) (A) (A) (A) (A) (A) (A) (A)
                 (A) (A) (A) (A) (A) (A) (A) (A) (A) (A) (A) (A)
                 (A) (A) (A) (A) (A) (A) (A) (A) (A) (A) (A) (A)
                 (A) (A) (A) (A) (A) (A) (A) (A) (A) (A) (A) (A)
                 (A) (A) (A) (A) (A) (A) (A) (A) (A) (A) (A) (A)
                 (A) (A) (A) (A) (A) (A) (A) (A) (A) (A) (A) (A)
                 (A) (A) (A) (A) (A) (A) (A) (A) (A) (A) (A) (A)
                 (A) (A) (A) (A) (A) (A) (A) (A) (A) (A) (A) (A)
                 (A) (A) (A) (A) (A) (A) (A) (A) (A) (A) (A) (A)
                 (A) (A) (A) (A) (A) (A) (A) (A) (A) (A) (A) (A)
                 (A) (A) (A) (A) (A) (A) (A) (A) (A) (A) (A) (A)
                 (A) (A) (A) (A) (A) (A) (A) (A) (A) (A) (A) (A)
                 (A) (A) (A) (A) (A) (A) (A) (A) (A) (A) (A) (A)
                 (A) (A) (A) (A) (A) (A) (A) (A) (A) (A) (A) (A)
                 (A) (A) (A) (A) (A) (A) (A) (A) (A) (A) (A) (A)
                 (A) (A) (A) (A) (A) (A) (A) (A) (A) (A) (A) (A)
                 (A) (A) (A) (A) (A) (A) (A) (A) (A) (A) (A) (A)
                 (A) (A) (A) (A) (A) (A) (A) (A) (A) (A) (A) (A)
                 (A) (A) (A) (A) (A) (A) (A) (A) (A) (A) (A) (A)
                 (A) (A) (A) (A) (A) (A) (A) (A) (A) (A) (A) (A)
                 (A) (A) (A) (A) (A) (A) (A) (A) (A) (A) (A) (A)
                 (A) (A) (A) (A) (A) (A) (A) (A) (A) (A) (A) (A)
                 (A) (A) (A) (A) (A) (A) (A) (A) (A) (A) (A) (A)
                 (A) (A) (A) (A) (A) (A) (A) (A) (A) (A) (A) (A)
                 (A) (A) (A) (A) (A) (A) (A) (A) (A) (A) (A) (A)
                 (A) (A) (A) (A) (A) (A) (A) (A) (A) (A) (A) (A)
                 (A) (A) (A) (A) (A) (A) (A) (A) (A) (A) (A) (A)
       Virtual   (A) (A) (A) (A) (A) (A) (A) (A) (A) (A) (A) (A)
                 (A) (A) (A) (A) (A) (A) (A) (A) (A) (A) (A) (A)
                 (A) (A) (A) (A) (A) (A) (A) (A) (A) (A) (A) (A)
                 (A) (A) (A) (A) (A) (A) (A) (A) (A) (A) (A) (A)
                 (A) (A) (A) (A) (A) (A) (A) (A) (A) (A) (A) (A)
                 (A) (A) (A) (A) (A) (A) (A) (A) (A) (A) (A) (A)
                 (A) (A) (A) (A) (A) (A) (A) (A) (A) (A) (A) (A)
                 (A) (A) (A) (A) (A) (A) (A) (A) (A) (A) (A) (A)
                 (A) (A) (A) (A) (A) (A) (A) (A) (A) (A) (A) (A)
                 (A) (A) (A) (A) (A) (A) (A) (A) (A) (A) (A) (A)
                 (A) (A) (A) (A) (A) (A) (A) (A) (A) (A) (A) (A)
                 (A) (A) (A) (A) (A) (A) (A) (A) (A) (A) (A) (A)
                 (A) (A) (A) (A) (A) (A) (A) (A) (A) (A) (A) (A)
                 (A) (A) (A) (A) (A) (A) (A) (A) (A) (A) (A) (A)
                 (A) (A) (A) (A) (A) (A) (A) (A) (A) (A) (A) (A)
                 (A) (A) (A) (A) (A) (A) (A) (A) (A) (A) (A) (A)
                 (A) (A) (A) (A) (A) (A) (A) (A) (A) (A) (A) (A)
                 (A) (A) (A) (A) (A) (A) (A) (A) (A) (A) (A) (A)
                 (A) (A) (A) (A) (A) (A) (A) (A) (A) (A) (A) (A)
                 (A) (A) (A) (A) (A) (A) (A) (A) (A) (A) (A) (A)
                 (A) (A) (A) (A) (A) (A) (A) (A) (A) (A) (A) (A)
                 (A) (A) (A) (A) (A) (A) (A) (A) (A) (A) (A) (A)
                 (A) (A) (A) (A) (A) (A) (A) (A) (A) (A) (A) (A)
                 (A) (A) (A) (A) (A) (A) (A) (A) (A) (A) (A) (A)
                 (A) (A) (A) (A) (A) (A) (A) (A) (A) (A) (A) (A)
                 (A) (A) (A) (A) (A) (A) (A) (A) (A) (A) (A) (A)
                 (A) (A) (A) (A) (A) (A) (A) (A) (A) (A) (A) (A)
                 (A) (A) (A) (A) (A) (A) (A) (A) (A) (A) (A) (A)
                 (A) (A) (A) (A) (A) (A) (A) (A) (A) (A) (A) (A)
                 (A) (A) (A) (A) (A) (A) (A) (A) (A) (A) (A) (A)
                 (A) (A) (A) (A) (A) (A) (A) (A) (A) (A) (A) (A)
                 (A) (A) (A) (A) (A) (A) (A) (A) (A) (A) (A) (A)
                 (A) (A) (A) (A) (A) (A) (A) (A) (A) (A) (A) (A)
                 (A) (A) (A) (A) (A) (A) (A) (A) (A) (A) (A) (A)
                 (A) (A) (A) (A) (A) (A) (A) (A) (A) (A) (A) (A)
                 (A) (A) (A) (A) (A) (A) (A) (A) (A) (A) (A) (A)
                 (A) (A) (A) (A) (A) (A) (A) (A) (A) (A) (A) (A)
                 (A) (A) (A) (A) (A) (A) (A) (A) (A) (A) (A) (A)
                 (A) (A) (A) (A) (A) (A) (A) (A) (A) (A) (A) (A)
                 (A) (A) (A) (A) (A) (A) (A) (A) (A) (A) (A) (A)
                 (A) (A) (A) (A) (A) (A) (A) (A) (A) (A) (A) (A)
                 (A) (A) (A) (A) (A) (A) (A) (A) (A) (A) (A) (A)
                 (A) (A) (A) (A) (A) (A) (A) (A) (A) (A) (A) (A)
                 (A) (A) (A) (A) (A) (A) (A) (A) (A) (A) (A) (A)
                 (A) (A) (A) (A) (A) (A) (A) (A) (A) (A) (A) (A)
                 (A) (A) (A) (A) (A) (A) (A) (A) (A) (A) (A) (A)
                 (A) (A) (A) (A) (A) (A) (A) (A) (A) (A) (A) (A)
                 (A) (A) (A) (A) (A) (A) (A) (A) (A) (A) (A) (A)
                 (A) (A) (A) (A) (A) (A) (A) (A) (A) (A) (A) (A)
                 (A) (A) (A) (A) (A) (A) (A) (A) (A) (A) (A) (A)
                 (A) (A) (A) (A) (A) (A) (A) (A) (A) (A) (A) (A)
                 (A) (A) (A) (A) (A) (A) (A) (A) (A) (A) (A) (A)
[...]
 Alpha virt. eigenvalues --    1.81211   1.81464   1.81736   1.82212   1.82467
 Alpha virt. eigenvalues --    1.82819   1.82982   1.83309   1.83467   1.83634
 Alpha virt. eigenvalues --    1.83680   1.83981   1.84193   1.84597   1.84612
 Alpha virt. eigenvalues --    1.85514   1.85565   1.85634   1.85673   1.85765
 Alpha virt. eigenvalues --    1.86011   1.86229   1.86542   1.87125   1.87151
 Alpha virt. eigenvalues --    1.87619   1.87705   1.88067   1.88421   1.88494
 Alpha virt. eigenvalues --    1.88532   1.88721   1.89010   1.89683   1.89844
 Alpha virt. eigenvalues --    1.90856   1.91001   1.91881   1.91996   1.92062
 Alpha virt. eigenvalues --    1.92225   1.92624   1.92680   1.93000   1.93139
 Alpha virt. eigenvalues --    1.93229   1.93259   1.93533   1.93753   1.93929
 Alpha virt. eigenvalues --    1.93962   1.94418   1.94477   1.94651   1.94741
 Alpha virt. eigenvalues --    1.95029   1.95067   1.95422   1.95621   1.95669
 Alpha virt. eigenvalues --    1.95809   1.96124   1.96311   1.96332   1.96510
 Alpha virt. eigenvalues --    1.96763   1.96897   1.97048   1.97283   1.97378
 Alpha virt. eigenvalues --    1.97594   1.97749   1.97816   1.97946   1.97979
 Alpha virt. eigenvalues --    1.98112   1.98245   1.98503   1.98638   1.98757
 Alpha virt. eigenvalues --    1.98928   1.99300   1.99418   1.99833   1.99854
 Alpha virt. eigenvalues --    2.00015   2.00231   2.00534   2.00721   2.00901
 Alpha virt. eigenvalues --    2.00992   2.01230   2.01492   2.01616   2.02087
 Alpha virt. eigenvalues --    2.02568   2.02887   2.03092   2.03216   2.03419
 Alpha virt. eigenvalues --    2.03463   2.03785   2.03822   2.04648   2.04741
 Alpha virt. eigenvalues --    2.05123   2.05595   2.06019   2.06442   2.06763
 Alpha virt. eigenvalues --    2.07087   2.07089   2.07221   2.07625   2.07892
 Alpha virt. eigenvalues --    2.07921   2.08234   2.08670   2.08992   2.09834
 Alpha virt. eigenvalues --    2.09926   2.10148   2.10273   2.10428   2.10754
 Alpha virt. eigenvalues --    2.10972   2.11012   2.11226   2.11669   2.12234
 Alpha virt. eigenvalues --    2.12275   2.12331   2.12470   2.12541   2.12604
 Alpha virt. eigenvalues --    2.12759   2.12841   2.13048   2.13128   2.13309
 Alpha virt. eigenvalues --    2.13421   2.13652   2.14030   2.14484   2.15026
 Alpha virt. eigenvalues --    2.15344   2.15866   2.16496   2.17160   2.17297
 Alpha virt. eigenvalues --    2.17677   2.17732   2.17891   2.18251   2.18456
 Alpha virt. eigenvalues --    2.19204   2.19327   2.20062   2.20072   2.20336
 Alpha virt. eigenvalues --    2.20650   2.20692   2.21412   2.21731   2.22046
 Alpha virt. eigenvalues --    2.22099   2.22424   2.23043   2.23412   2.23489
 Alpha virt. eigenvalues --    2.23509   2.23605   2.24163   2.24484   2.24487
 Alpha virt. eigenvalues --    2.24955   2.25005   2.25224   2.25381   2.25576
 Alpha virt. eigenvalues --    2.25901   2.26312   2.26487   2.26716   2.26836
 Alpha virt. eigenvalues --    2.27156   2.27191   2.27629   2.27635   2.28018
 Alpha virt. eigenvalues --    2.28128   2.28500   2.28582   2.28795   2.28930
 Alpha virt. eigenvalues --    2.29006   2.29027   2.29434   2.29639   2.29691
 Alpha virt. eigenvalues --    2.29872   2.30011   2.30261   2.30478   2.30780
 Alpha virt. eigenvalues --    2.30972   2.31177   2.32342   2.32553   2.32668
 Alpha virt. eigenvalues --    2.32780   2.33215   2.33406   2.33662   2.33733
 Alpha virt. eigenvalues --    2.34136   2.34555   2.34684   2.35144   2.35356
 Alpha virt. eigenvalues --    2.35382   2.35386   2.35411   2.35898   2.36012
 Alpha virt. eigenvalues --    2.36156   2.36334   2.36358   2.36449   2.36690
 Alpha virt. eigenvalues --    2.36737   2.36949   2.37055   2.37480   2.37541
 Alpha virt. eigenvalues --    2.37770   2.38175   2.38332   2.38497   2.38725
 Alpha virt. eigenvalues --    2.38728   2.38984   2.39214   2.39383   2.39550
 Alpha virt. eigenvalues --    2.39813   2.39849   2.40108   2.40138   2.41240
 Alpha virt. eigenvalues --    2.41386   2.42905   2.43367   2.43573   2.43701
 Alpha virt. eigenvalues --    2.44563   2.44710   2.44805   2.44990   2.45770
 Alpha virt. eigenvalues --    2.46121   2.47033   2.47049   2.48102   2.48125
 Alpha virt. eigenvalues --    2.48746   2.48813   2.48942   2.49212   2.50391
 Alpha virt. eigenvalues --    2.50791   2.51978   2.52110   2.52663   2.53353
 Alpha virt. eigenvalues --    2.53734   2.54438   2.54909   2.54999   2.55371
 Alpha virt. eigenvalues --    2.55441   2.56420   2.56435   2.56760   2.56867
 Alpha virt. eigenvalues --    2.57114   2.57676   2.58379   2.58603   2.59112
 Alpha virt. eigenvalues --    2.59363   2.59730   2.59832   2.60411   2.60508
 Alpha virt. eigenvalues --    2.61014   2.61077   2.61307   2.61525   2.61783
 Alpha virt. eigenvalues --    2.61981   2.63535   2.64016   2.64388   2.64392
 Alpha virt. eigenvalues --    2.64527   2.64695   2.64716   2.64842   2.64900
 Alpha virt. eigenvalues --    2.65205   2.65294   2.65377   2.65656   2.65804
 Alpha virt. eigenvalues --    2.66608   2.66704   2.66781   2.66957   2.67457
 Alpha virt. eigenvalues --    2.67585   2.68228   2.68322   2.68466   2.68492
 Alpha virt. eigenvalues --    2.69101   2.69949   2.71021   2.71173   2.71956
 Alpha virt. eigenvalues --    2.72416   2.72569   2.72619   2.73360   2.73547
 Alpha virt. eigenvalues --    2.73760   2.73893   2.74511   2.74708   2.75026
 Alpha virt. eigenvalues --    2.75107   2.75523   2.75545   2.76070   2.76186
 Alpha virt. eigenvalues --    2.76329   2.76344   2.76515   2.76527   2.76847
 Alpha virt. eigenvalues --    2.76940   2.76995   2.77008   2.77126   2.77130
 Alpha virt. eigenvalues --    2.77271   2.77478   2.77632   2.77691   2.78042
 Alpha virt. eigenvalues --    2.78299   2.78326   2.79402   2.80922   2.81938
 Alpha virt. eigenvalues --    2.82006   2.82307   2.82624   2.82821   2.83036
 Alpha virt. eigenvalues --    2.83039   2.84573   2.85086   2.87765   2.88184
 Alpha virt. eigenvalues --    2.88415   2.88506   2.88664   2.88827   2.89222
 Alpha virt. eigenvalues --    2.89891   2.90418   2.90592   2.90666   2.90761
 Alpha virt. eigenvalues --    2.92130   2.92150   2.92872   2.92919   2.95971
 Alpha virt. eigenvalues --    2.95993   2.96100   2.96262   2.96693   2.96979
 Alpha virt. eigenvalues --    2.97107   2.97608   2.97801   2.98104   2.98378
 Alpha virt. eigenvalues --    2.99111   2.99474   2.99623   2.99690   3.00167
 Alpha virt. eigenvalues --    3.00872   3.01719   3.02127   3.02714   3.03723
 Alpha virt. eigenvalues --    3.04178   3.05451   3.05463   3.07263   3.07312
 Alpha virt. eigenvalues --    3.07501   3.07938   3.09215   3.09315   3.10424
 Alpha virt. eigenvalues --    3.10781   3.11560   3.11791   3.12247   3.12515
 Alpha virt. eigenvalues --    3.13773   3.13781   3.14088   3.14244   3.14575
 Alpha virt. eigenvalues --    3.14658   3.15507   3.15969   3.16805   3.17128
 Alpha virt. eigenvalues --    3.17474   3.17604   3.19596   3.19744   3.19963
 Alpha virt. eigenvalues --    3.21329   3.25176   3.25332   3.26135   3.28742
 Alpha virt. eigenvalues --    3.31692   3.31815   3.31960   3.34121   3.37526
 Alpha virt. eigenvalues --    3.37833   3.39484   3.39800   3.48054   3.48203
 Alpha virt. eigenvalues --    3.48277   3.48357   3.56300   3.56476   3.56620
 Alpha virt. eigenvalues --    3.56829   3.62230   3.62363   3.62783   3.62935
 Alpha virt. eigenvalues --    3.67394   3.67513   3.67765   3.67919   3.80191
 Alpha virt. eigenvalues --    3.80291   3.80530   3.80633  51.73088  51.73295
          Condensed to atoms (all electrons):
 Mulliken charges:
               1
     1  Pd   0.489100
     2  Pd   0.488679
     3  C    0.007541
     4  C   -0.058328
     5  C   -0.010721
     6  C    0.005855
     7  C    0.014855
     8  C    0.007805
     9  C    0.030038
    10  C   -0.015007
    11  C    0.141093
    12  N   -0.317041
    13  C    0.182769
    14  C   -0.011523
    15  H    0.042343
    16  H    0.056256
    17  H    0.041940
    18  H    0.053984
    19  H    0.096171
    20  H    0.083052
    21  C   -0.071873
    22  C    0.015880
    23  C   -0.018247
    24  C    0.027419
    25  C   -0.021082
    26  C    0.010424
    27  H    0.037768
    28  H    0.040303
    29  H    0.033454
    30  H    0.033547
    31  C   -0.032323
    32  C    0.071285
    33  C   -0.031191
    34  C    0.150478
    35  N   -0.314100
    36  C    0.143621
    37  H    0.063457
    38  H    0.068256
    39  H    0.108858
    40  H    0.087934
    41  C    0.012919
    42  C   -0.061892
    43  C   -0.016241
    44  C    0.009174
    45  C    0.014164
    46  C    0.008522
    47  C    0.028777
    48  C   -0.013953
    49  C    0.140634
    50  N   -0.316402
    51  C    0.180588
    52  C   -0.008712
    53  H    0.042376
    54  H    0.056342
    55  H    0.042040
    56  H    0.054071
    57  H    0.096830
    58  H    0.085034
    59  C   -0.081030
    60  C    0.018662
    61  C   -0.013238
    62  C    0.010976
    63  C   -0.019293
    64  C    0.016648
    65  H    0.037176
    66  H    0.040180
    67  H    0.038484
    68  H    0.033884
    69  C   -0.031597
    70  C    0.071004
    71  C   -0.031510
    72  C    0.150704
    73  N   -0.314026
    74  C    0.146846
    75  H    0.063169
    76  H    0.068291
    77  H    0.109011
    78  H    0.087496
    79  C    0.007337
    80  C   -0.058124
    81  C   -0.010502
    82  C    0.005761
    83  C    0.014892
    84  C    0.007875
    85  C    0.029886
    86  C   -0.014995
    87  C    0.140874
    88  N   -0.317182
    89  C    0.182337
    90  C   -0.011344
    91  H    0.042349
    92  H    0.056221
    93  H    0.041920
    94  H    0.053994
    95  H    0.096447
    96  H    0.083106
    97  C   -0.071711
    98  C    0.010296
    99  C   -0.020807
   100  C    0.027199
   101  C   -0.018037
   102  C    0.015702
   103  H    0.033545
   104  H    0.033426
   105  H    0.040292
   106  H    0.037854
   107  C   -0.032652
   108  C    0.071520
   109  C   -0.031003
   110  C    0.150404
   111  N   -0.314236
   112  C    0.143686
   113  H    0.063432
   114  H    0.068254
   115  H    0.108835
   116  H    0.087977
   117  C    0.013048
   118  C   -0.061923
   119  C   -0.016227
   120  C    0.009136
   121  C    0.014136
   122  C    0.008479
   123  C    0.028762
   124  C   -0.014188
   125  C    0.141039
   126  N   -0.316643
   127  C    0.180696
   128  C   -0.008660
   129  H    0.042326
   130  H    0.056358
   131  H    0.042051
   132  H    0.054134
   133  H    0.096811
   134  H    0.084983
   135  C   -0.080931
   136  C    0.018651
   137  C   -0.012904
   138  C    0.010105
   139  C   -0.018899
   140  C    0.016567
   141  H    0.037159
   142  H    0.040189
   143  H    0.038487
   144  H    0.033896
   145  C   -0.032070
   146  C    0.071329
   147  C   -0.031446
   148  C    0.150583
   149  N   -0.314286
   150  C    0.147529
   151  H    0.063175
   152  H    0.068318
   153  H    0.109070
   154  H    0.087500
 Sum of Mulliken charges =   4.00000
 Mulliken charges with hydrogens summed into heavy atoms:
               1
     1  Pd   0.489100
     2  Pd   0.488679
     3  C    0.007541
     4  C   -0.058328
     5  C   -0.010721
     6  C    0.048199
     7  C    0.071110
     8  C    0.049745
     9  C    0.030038
    10  C    0.038978
    11  C    0.237265
    12  N   -0.317041
    13  C    0.265821
    14  C   -0.011523
    21  C   -0.071873
    22  C    0.053648
    23  C    0.022056
    24  C    0.027419
    25  C    0.012373
    26  C    0.043971
    31  C   -0.032323
    32  C    0.134742
    33  C    0.037065
    34  C    0.259336
    35  N   -0.314100
    36  C    0.231555
    41  C    0.012919
    42  C   -0.061892
    43  C   -0.016241
    44  C    0.051550
    45  C    0.070506
    46  C    0.050562
    47  C    0.028777
    48  C    0.040118
    49  C    0.237464
    50  N   -0.316402
    51  C    0.265622
    52  C   -0.008712
    59  C   -0.081030
    60  C    0.055838
    61  C    0.026943
    62  C    0.010976
    63  C    0.019190
    64  C    0.050531
    69  C   -0.031597
    70  C    0.134173
    71  C    0.036780
    72  C    0.259715
    73  N   -0.314026
    74  C    0.234341
    79  C    0.007337
    80  C   -0.058124
    81  C   -0.010502
    82  C    0.048110
    83  C    0.071112
    84  C    0.049795
    85  C    0.029886
    86  C    0.038999
    87  C    0.237322
    88  N   -0.317182
    89  C    0.265443
    90  C   -0.011344
    97  C   -0.071711
    98  C    0.043840
    99  C    0.012618
   100  C    0.027199
   101  C    0.022255
   102  C    0.053556
   107  C   -0.032652
   108  C    0.134952
   109  C    0.037250
   110  C    0.259239
   111  N   -0.314236
   112  C    0.231663
   117  C    0.013048
   118  C   -0.061923
   119  C   -0.016227
   120  C    0.051461
   121  C    0.070494
   122  C    0.050529
   123  C    0.028762
   124  C    0.039946
   125  C    0.237850
   126  N   -0.316643
   127  C    0.265679
   128  C   -0.008660
   135  C   -0.080931
   136  C    0.055810
   137  C    0.027285
   138  C    0.010105
   139  C    0.019588
   140  C    0.050462
   145  C   -0.032070
   146  C    0.134504
   147  C    0.036872
   148  C    0.259652
   149  N   -0.314286
   150  C    0.235029
 Electronic spatial extent (au):  <R**2>=         104484.0693
 Charge=              4.0000 electrons
 Dipole moment (field-independent basis, Debye):
    X=              0.0028    Y=             -0.0224    Z=              0.0005  Tot=              0.0225
 Quadrupole moment (field-independent basis, Debye-Ang):
   XX=            165.9704   YY=           -390.4047   ZZ=           -359.0442
   XY=              2.5550   XZ=             91.5237   YZ=              9.8993
 Traceless Quadrupole moment (field-independent basis, Debye-Ang):
   XX=            360.4632   YY=           -195.9119   ZZ=           -164.5514
   XY=              2.5550   XZ=             91.5237   YZ=              9.8993
 Octapole moment (field-independent basis, Debye-Ang**2):
  XXX=              0.0731  YYY=              4.8250  ZZZ=              1.4829  XYY=              4.7780
  XXY=              0.5619  XXZ=              1.5864  XZZ=             -3.1893  YZZ=             -3.8974
  YYZ=             -3.0387  XYZ=              1.5291
 Hexadecapole moment (field-independent basis, Debye-Ang**3):
 XXXX=         -45042.0949 YYYY=         -27401.4401 ZZZZ=         -23136.6129 XXXY=            -14.8571
 XXXZ=           2035.1324 YYYX=              3.6301 YYYZ=            764.3617 ZZZX=           3570.8338
 ZZZY=           -159.8330 XXYY=         -11485.0345 XXZZ=         -13878.5991 YYZZ=          -6603.3241
 XXYZ=            -16.8317 YYXZ=          -1604.4573 ZZXY=            145.1559
 N-N= 1.819168428459D+04 E-N=-4.556807212856D+04  KE= 3.876122116942D+03
 Leave Link  601 at Fri Feb 26 12:08:00 2021, MaxMem=  7864320000 cpu:              46.3 elap:               1.8
 (Enter /apps/gaussian/g16-c01-avx/g16/l9999.exe)
 Unable to Open any file for archive entry.
 1\1\GINC-CX3-4-12\SP\RPBE1PBE\def2SVP\C88H56N8Pd2(4+)\ATARZIA\26-Feb-2
 021\0\\#P PBE1PBE/Def2SVP SP SCF=(YQC,MaxCycle=900) int=(Grid=Superfin
 egrid) EmpiricalDispersion=GD3BJ SCRF=(PCM,Solvent=DiMethylSulfoxide)\
 \_s_4b1_c\\4,1\Pd,0,-0.3792,4.4635,0.5467\Pd,0,-0.0667,-6.8458,1.2506\
 C,0,4.5784,-3.0653,1.6879\C,0,4.8221,-4.2498,1.7166\C,0,5.1662,-5.6149
 ,1.7094\C,0,6.4948,-5.9932,1.7734\C,0,6.8632,-7.3422,1.7294\C,0,5.9177
 ,-8.3291,1.6028\C,0,4.5538,-7.9912,1.5303\C,0,3.5328,-8.9557,1.3749\C,
 0,2.2283,-8.5602,1.3084\N,0,1.8656,-7.258,1.4105\C,0,2.7893,-6.3271,1.
 5489\C,0,4.1607,-6.623,1.601\H,0,7.2585,-5.2352,1.8573\H,0,7.9093,-7.6
 015,1.787\H,0,6.2064,-9.3673,1.5542\H,0,3.7965,-9.9988,1.3036\H,0,1.42
 05,-9.276,1.1691\H,0,2.4487,-5.2968,1.6274\C,0,4.2567,-1.6947,1.615\C,
 0,5.1795,-0.7822,1.0948\C,0,4.8471,0.5525,0.9875\C,0,3.5897,1.0059,1.3
 904\C,0,2.6774,0.0935,1.9267\C,0,3.0045,-1.2405,2.0399\H,0,6.1487,-1.1
 285,0.7708\H,0,5.5581,1.2431,0.5611\H,0,1.72,0.4381,2.2859\H,0,2.3018,
 -1.9399,2.463\C,0,3.2243,2.4221,1.2564\C,0,4.1261,3.4531,1.539\C,0,3.7
 167,4.7707,1.4234\C,0,2.411,5.0417,1.0488\N,0,1.5518,4.059,0.7724\C,0,
 1.9407,2.7857,0.8547\H,0,5.1281,3.2209,1.8649\H,0,4.3965,5.5798,1.6362
 \H,0,2.0354,6.0579,0.9629\H,0,1.2009,2.0388,0.5696\C,0,-0.6243,-2.8826
 ,5.8153\C,0,-0.6219,-4.0661,6.0644\C,0,-0.6769,-5.4254,6.4344\C,0,-0.8
 36,-5.7654,7.7646\C,0,-0.9494,-7.1034,8.1587\C,0,-0.9176,-8.1165,7.233
 8\C,0,-0.7467,-7.8176,5.8697\C,0,-0.7137,-8.8132,4.8674\C,0,-0.5274,-8
 .4582,3.5631\N,0,-0.3481,-7.1676,3.1873\C,0,-0.3912,-6.2073,4.0899\C,0
 ,-0.6054,-6.4611,5.4549\H,0,-0.8843,-4.9854,8.509\H,0,-1.074,-7.3319,9
 .2061\H,0,-1.0218,-9.146,7.5383\H,0,-0.8381,-9.8477,5.1447\H,0,-0.5134
 ,-9.1993,2.7658\H,0,-0.2454,-5.1877,3.7392\C,0,-0.6275,-1.5124,5.4759\
 C,0,0.3223,-0.6452,6.0224\C,0,0.3334,0.6856,5.6577\C,0,-0.5951,1.1766,
 4.7381\C,0,-1.5612,0.3133,4.2176\C,0,-1.582,-1.0163,4.5829\H,0,1.051,-
 1.0231,6.7226\H,0,1.0867,1.3417,6.0654\H,0,-2.3187,0.6956,3.5525\H,0,-
 2.3406,-1.6764,4.1937\C,0,-0.5313,2.5783,4.3007\C,0,-0.2811,3.6266,5.1
 915\C,0,-0.1957,4.9234,4.7134\C,0,-0.3309,5.1521,3.354\N,0,-0.5622,4.1
 513,2.502\C,0,-0.6789,2.9017,2.9539\H,0,-0.1723,3.4251,6.2458\H,0,-0.0
 17,5.7476,5.3846\H,0,-0.255,6.1488,2.9273\H,0,-0.884,2.1375,2.2051\C,0
 ,-5.0234,0.6834,0.105\C,0,-5.2683,1.8679,0.0847\C,0,-5.6133,3.2327,0.1
 023\C,0,-6.9421,3.6107,0.0444\C,0,-7.3112,4.9591,0.0995\C,0,-6.366,5.9
 457,0.2311\C,0,-5.0016,5.608,0.2974\C,0,-3.9807,6.572,0.4568\C,0,-2.67
 58,6.1768,0.5162\N,0,-2.3128,4.8756,0.4037\C,0,-3.2364,3.9452,0.2614\C
 ,0,-4.608,4.2406,0.2155\H,0,-7.7057,2.853,-0.0432\H,0,-8.3575,5.2183,0
 .0466\H,0,-6.6551,6.9833,0.2883\H,0,-4.2448,7.6144,0.5365\H,0,-1.8677,
 6.8919,0.658\H,0,-2.8954,2.9156,0.1742\C,0,-4.7008,-0.6873,0.1703\C,0,
 -3.445,-1.1375,-0.2484\C,0,-3.1169,-2.4717,-0.1405\C,0,-4.0319,-3.3883
 ,0.3837\C,0,-5.2931,-2.9391,0.7795\C,0,-5.6263,-1.6042,0.6778\H,0,-2.7
 402,-0.4348,-0.6623\H,0,-2.1565,-2.813,-0.4947\H,0,-6.0064,-3.6332,1.1
 962\H,0,-6.5985,-1.2611,0.9966\C,0,-3.6655,-4.8047,0.5134\C,0,-4.5628,
 -5.8354,0.216\C,0,-4.1527,-7.153,0.3292\C,0,-2.8507,-7.424,0.7163\N,0,
 -1.9958,-6.4415,1.0066\C,0,-2.3856,-5.1683,0.9265\H,0,-5.5616,-5.6028,
 -0.119\H,0,-4.829,-7.9619,0.1051\H,0,-2.4745,-8.4401,0.8013\H,0,-1.649
 9,-4.4219,1.2231\C,0,0.1328,0.4984,-4.0204\C,0,0.1181,1.6815,-4.2712\C
 ,0,0.1573,3.0406,-4.6438\C,0,0.2873,3.38,-5.9774\C,0,0.3845,4.7182,-6.
 3751\C,0,0.3654,5.7322,-5.4508\C,0,0.2238,5.4339,-4.0832\C,0,0.2047,6.
 4304,-3.0814\C,0,0.0452,6.076,-1.7734\N,0,-0.1198,4.7849,-1.3931\C,0,-
 0.0881,3.8237,-2.2953\C,0,0.0988,4.077,-3.6643\H,0,0.3254,2.5995,-6.72
 18\H,0,0.4863,4.9463,-7.4251\H,0,0.4573,6.762,-5.7584\H,0,0.3179,7.465
 4,-3.3621\H,0,0.0423,6.8178,-0.9767\H,0,-0.221,2.8038,-1.9407\C,0,0.14
 92,-0.8714,-3.6799\C,0,-0.795,-1.7469,-4.223\C,0,-0.7936,-3.0775,-3.85
 77\C,0,0.1417,-3.56,-2.9406\C,0,1.1019,-2.6883,-2.4231\C,0,1.1105,-1.3
 589,-2.7895\H,0,-1.5291,-1.3756,-4.921\H,0,-1.5423,-3.7404,-4.2629\H,0
 ,1.8642,-3.064,-1.7596\H,0,1.8649,-0.6923,-2.4032\C,0,0.0907,-4.9621,-
 2.5026\C,0,-0.1499,-6.0128,-3.3933\C,0,-0.2246,-7.3101,-2.9149\C,0,-0.
 0896,-7.537,-1.5552\N,0,0.1323,-6.534,-0.7033\C,0,0.24,-5.2837,-1.1556
 \H,0,-0.2598,-5.8124,-4.4477\H,0,-0.3954,-8.136,-3.5861\H,0,-0.1578,-8
 .5341,-1.1281\H,0,0.4389,-4.5178,-0.4069\\Version=ES64L-G16RevC.01\Sta
 te=1-A\HF=-4073.3606324\RMSD=2.503e-09\Dipole=0.0068763,-0.0012468,-0.
 0054633\Quadrupole=-132.5054219,272.759032,-140.2536101,-25.2213381,10
 .0374394,-46.2614389\PG=C01 [X(C88H56N8Pd2)]\\@
 The archive entry for this job was punched.


 THE PROBLEM WITH THE LADDER OF SUCCESS IS YOU CAN'T
 CLIMB IT WHILE YOU'RE TWIDDLING YOUR THUMBS.
 Job cpu time:       2 days  6 hours  8 minutes 14.3 seconds.
 Elapsed time:       0 days  1 hours 43 minutes 32.5 seconds.
 File lengths (MBytes):  RWF=   3638 Int=      0 D2E=      0 Chk=    169 Scr=      2
 Normal termination of Gaussian 16 at Fri Feb 26 12:08:01 2021.
