 Entering Gaussian System, Link 0=g16
 Input=m3_l1_FINAL.com
 Output=m3_l1_FINAL.log
 Initial command:
 /apps/gaussian/g16-c01-avx/g16/l1.exe "/rds/general/user/vposligu/home/work/Pd2L4_cages/New_Cages/opt/PBE0-def2svp-solvent/SP_FINAL/m3_l1/Gau-3420284.inp" -scrdir="/rds/general/user/vposligu/home/work/Pd2L4_cages/New_Cages/opt/PBE0-def2svp-solvent/SP_FINAL/m3_l1/"
 Entering Link 1 = /apps/gaussian/g16-c01-avx/g16/l1.exe PID=   3420285.
  
 Copyright (c) 1988-2019, Gaussian, Inc.  All Rights Reserved.
  
 This is part of the Gaussian(R) 16 program.  It is based on
 the Gaussian(R) 09 system (copyright 2009, Gaussian, Inc.),
 the Gaussian(R) 03 system (copyright 2003, Gaussian, Inc.),
 the Gaussian(R) 98 system (copyright 1998, Gaussian, Inc.),
 the Gaussian(R) 94 system (copyright 1995, Gaussian, Inc.),
 the Gaussian 92(TM) system (copyright 1992, Gaussian, Inc.),
 the Gaussian 90(TM) system (copyright 1990, Gaussian, Inc.),
 the Gaussian 88(TM) system (copyright 1988, Gaussian, Inc.),
 the Gaussian 86(TM) system (copyright 1986, Carnegie Mellon
 University), and the Gaussian 82(TM) system (copyright 1983,
 Carnegie Mellon University). Gaussian is a federally registered
 trademark of Gaussian, Inc.
  
 This software contains proprietary and confidential information,
 including trade secrets, belonging to Gaussian, Inc.
  
 This software is provided under written license and may be
 used, copied, transmitted, or stored only in accord with that
 written license.
  
 The following legend is applicable only to US Government
 contracts under FAR:
  
                    RESTRICTED RIGHTS LEGEND
  
 Use, reproduction and disclosure by the US Government is
 subject to restrictions as set forth in subparagraphs (a)
 and (c) of the Commercial Computer Software - Restricted
 Rights clause in FAR 52.227-19.
  
 Gaussian, Inc.
 340 Quinnipiac St., Bldg. 40, Wallingford CT 06492
  
  
 ---------------------------------------------------------------
 Warning -- This program may not be used in any manner that
 competes with the business of Gaussian, Inc. or will provide
 assistance to any competitor of Gaussian, Inc.  The licensee
 of this program is prohibited from giving any competitor of
 Gaussian, Inc. access to this program.  By using this program,
 the user acknowledges that Gaussian, Inc. is engaged in the
 business of creating and licensing software in the field of
 computational chemistry and represents and warrants to the
 licensee that it is not a competitor of Gaussian, Inc. and that
 it will not use this program in any manner prohibited above.
 ---------------------------------------------------------------
  

 Cite this work as:
 Gaussian 16, Revision C.01,
 M. J. Frisch, G. W. Trucks, H. B. Schlegel, G. E. Scuseria, 
 M. A. Robb, J. R. Cheeseman, G. Scalmani, V. Barone, 
 G. A. Petersson, H. Nakatsuji, X. Li, M. Caricato, A. V. Marenich, 
 J. Bloino, B. G. Janesko, R. Gomperts, B. Mennucci, H. P. Hratchian, 
 J. V. Ortiz, A. F. Izmaylov, J. L. Sonnenberg, D. Williams-Young, 
 F. Ding, F. Lipparini, F. Egidi, J. Goings, B. Peng, A. Petrone, 
 T. Henderson, D. Ranasinghe, V. G. Zakrzewski, J. Gao, N. Rega, 
 G. Zheng, W. Liang, M. Hada, M. Ehara, K. Toyota, R. Fukuda, 
 J. Hasegawa, M. Ishida, T. Nakajima, Y. Honda, O. Kitao, H. Nakai, 
 T. Vreven, K. Throssell, J. A. Montgomery, Jr., J. E. Peralta, 
 F. Ogliaro, M. J. Bearpark, J. J. Heyd, E. N. Brothers, K. N. Kudin, 
 V. N. Staroverov, T. A. Keith, R. Kobayashi, J. Normand, 
 K. Raghavachari, A. P. Rendell, J. C. Burant, S. S. Iyengar, 
 J. Tomasi, M. Cossi, J. M. Millam, M. Klene, C. Adamo, R. Cammi, 
 J. W. Ochterski, R. L. Martin, K. Morokuma, O. Farkas, 
 J. B. Foresman, and D. J. Fox, Gaussian, Inc., Wallingford CT, 2019.
 
 ******************************************
 Gaussian 16:  ES64L-G16RevC.01  3-Jul-2019
                 2-Jun-2023 
 ******************************************
 %chk=m3_l1_FINAL.chk
 %nprocshared=48
 Will use up to   48 processors via shared memory.
 %mem=120GB
 ------------------------------------------------------------------
 # SP PBE1PBE/def2svp empiricaldispersion=GD3BJ scrf=(solvent=dmso)
 ------------------------------------------------------------------
 1/38=1,172=1/1;
 2/12=2,17=6,18=5,40=1/2;
 3/5=43,7=101,11=2,25=1,30=1,70=2201,72=21,74=-13,124=41/1,2,3;
 4//1;
 5/5=2,38=5,53=21/2;
 6/7=2,8=2,9=2,10=2,28=1/1;
 99/5=1,9=1/99;
 -----
 m3_l1
 -----
 Symbolic Z-matrix:
 Charge =  6 Multiplicity = 1
 Pd                    1.8156   -7.1076    0.1433 
 Pd                   -7.6792    2.108    -0.1973 
 Pd                    5.6594    5.215    -0.1415 
 C                     3.0824   -6.02      2.5289 
 N                     3.2169   -7.0088    1.6323 
 C                     4.413    -7.6058    1.5029 
 C                     5.5367   -7.1619    2.1856 
 C                     5.4418   -6.0317    3.0088 
 C                     6.6237   -5.3124    3.5221 
 C                     7.7226   -5.9579    4.1259 
 C                     8.8428   -5.2478    4.5571 
 C                     8.8461   -3.8758    4.3351 
 O                     9.8563   -3.0081    4.6314 
 C                     9.4719   -1.7838    4.1739 
 C                     10.2125  -0.609     4.2277 
 C                     9.6493    0.5227    3.6403 
 C                     8.3865    0.488     3.0086 
 C                     7.8341    1.6554    2.2964 
 C                     7.0302    1.4531    1.1633 
 C                     6.4744    2.5303    0.5071 
 N                     6.68      3.7969    0.9049 
 C                     7.4613    4.0227    1.9712 
 C                     8.0536    2.9865    2.6818 
 C                     7.6488   -0.7023    3.005 
 C                     8.1947   -1.8376    3.5894 
 C                     7.7747   -3.213     3.7128 
 C                     6.6488   -3.9275    3.3221 
 C                     4.1592   -5.509     3.2277 
 H                     2.0879   -5.5919    2.6563 
 H                     4.4799   -8.4234    0.7827 
 H                     6.4972   -7.643     1.9954 
 H                     7.6906   -7.0391    4.2775 
 H                     9.6849   -5.7489    5.036 
 H                     11.2012  -0.5792    4.687 
 H                     10.2258   1.45      3.6356 
 H                     6.8459    0.4537    0.77 
 H                     5.8446    2.3798   -0.3719 
 H                     7.602     5.0639    2.2669 
 H                     8.6609    3.2303    3.5544 
 H                     6.6567   -0.7453    2.5532 
 H                     5.8194   -3.4237    2.8221 
 H                     4.0012   -4.6748    3.9119 
 C                     3.7536   -5.2001   -0.7886 
 N                     3.2643   -6.4098   -1.1066 
 C                     3.7445   -7.0369   -2.1902 
 C                     4.7341   -6.4757   -2.9868 
 C                     5.2641   -5.2151   -2.6699 
 C                     6.3272   -4.5513   -3.4481 
 C                     7.3049   -5.2933   -4.1478 
 C                     8.3736   -4.6808   -4.7985 
 C                     8.4413   -3.2944   -4.7331 
 O                     9.4296   -2.5079   -5.2416 
 C                     9.125    -1.2225   -4.9031 
 C                     9.9035   -0.0988   -5.1529 
 C                     9.4353    1.1189   -4.6615 
 C                     8.2093    1.217    -3.9713 
 C                     7.7174    2.4758   -3.3791 
 C                     6.3574    2.808    -3.4651 
 C                     5.8494    3.8237   -2.678 
 N                     6.6156    4.5144   -1.818 
 C                     7.9422    4.3039   -1.8252 
 C                     8.5284    3.3147   -2.6024 
 C                     7.4363    0.0708   -3.7499 
 C                     7.9087   -1.1563   -4.2018 
 C                     7.4647   -2.5255   -4.0759 
 C                     6.4029   -3.1523   -3.4355 
 C                     4.7401   -4.5852   -1.5297 
 H                     3.348    -4.7163    0.1016 
 H                     3.3175   -8.0141   -2.4232 
 H                     5.0714   -7.0279   -3.8647 
 H                     7.2523   -6.3838   -4.1478 
 H                     9.138    -5.2651   -5.312 
 H                     10.8468  -0.1697   -5.6957 
 H                     10.0275   2.0208   -4.8313 
 H                     5.6806    2.2478   -4.111 
 H                     4.7847    4.0591   -2.6986 
 H                     8.5387    4.9023   -1.1344 
 H                     9.6022    3.1413   -2.5172 
 H                     6.5043    0.1308   -3.1845 
 H                     5.6442   -2.5526   -2.9311 
 H                     5.1168   -3.6217   -1.1882 
 C                    -0.3217   -6.3025    1.8578 
 N                     0.2652   -7.4306    1.4268 
 C                    -0.3131   -8.6072    1.7076 
 C                    -1.5304   -8.6902    2.3739 
 C                    -2.1908   -7.519     2.7732 
 C                    -3.5523   -7.4796    3.3393 
 C                    -4.092    -8.5003    4.1528 
 C                    -5.3821   -8.4223    4.6803 
 C                    -6.1296   -7.2924    4.3655 
 O                    -7.4037   -7.007     4.7645 
 C                    -7.7333   -5.8048    4.208 
 C                    -8.9329   -5.1146    4.3447 
 C                    -9.045    -3.8943    3.6766 
 C                    -7.997    -3.372     2.8864 
 C                    -8.0947   -2.0973    2.1511 
 C                    -7.352    -1.9301    0.9714 
 C                    -7.3309   -0.7115    0.3302 
 N                    -8.029     0.3472    0.7745 
 C                    -8.7892    0.2023    1.8709 
 C                    -8.8492   -0.9935    2.576 
 C                    -6.7975   -4.0855    2.7815 
 C                    -6.6732   -5.2987    3.4395 
 C                    -5.6189   -6.2728    3.5471 
 C                    -4.3363   -6.3621    3.0307 
 C                    -1.5171   -6.309     2.542 
 H                     0.1711   -5.3579    1.6201 
 H                     0.2014   -9.5052    1.3599 
 H                    -1.9766   -9.6736    2.5284 
 H                    -3.4787   -9.3689    4.4023 
 H                    -5.7821   -9.2121    5.3173 
 H                    -9.7555   -5.5114    4.9408 
 H                    -9.9861   -3.3451    3.751 
 H                    -6.7807   -2.7496    0.5372 
 H                    -6.7274   -0.5757   -0.5678 
 H                    -9.3453    1.0806    2.2032 
 H                    -9.4571   -1.036     3.4807 
 H                    -5.9543   -3.6915    2.2132 
 H                    -3.9637   -5.5786    2.3702 
 H                    -1.9289   -5.3574    2.8762 
 C                     0.0117   -5.7912   -1.7557 
 N                     0.4114   -6.998    -1.3259 
 C                    -0.252    -8.0866   -1.7434 
 C                    -1.3625   -8.0012   -2.5664 
 C                    -1.8325   -6.7479   -2.9904 
 C                    -3.0686   -6.6066   -3.7846 
 C                    -3.5078   -7.6528   -4.6274 
 C                    -4.7011   -7.5806   -5.3378 
 C                    -5.4576   -6.4272   -5.1788 
 O                    -6.668    -6.1833   -5.748 
 C                    -7.0692   -4.9578   -5.3111 
 C                    -8.2745   -4.3393   -5.6175 
 C                    -8.5092   -3.093    -5.0423 
 C                    -7.5546   -2.4711   -4.2116 
 C                    -7.7993   -1.1631   -3.5752 
 C                    -6.7751   -0.2064   -3.5189 
 C                    -6.9205    0.9058   -2.7118 
 N                    -8.0149    1.1069   -1.959 
 C                    -9.0592    0.2748   -2.1063 
 C                    -8.9968   -0.8508   -2.916 
 C                    -6.344    -3.1159   -3.9245 
 C                    -6.1076   -4.3769   -4.4643 
 C                    -5.0443   -5.3555   -4.366 
 C                    -3.8428   -5.4437   -3.6668 
 C                    -1.0865   -5.6306   -2.5819 
 H                     0.5882   -4.9281   -1.4165 
 H                     0.1073   -9.0525   -1.3836 
 H                    -1.8815   -8.9222   -2.8325 
 H                    -2.8902   -8.5455   -4.742 
 H                    -5.0315   -8.3935   -5.9852 
 H                    -9.0046   -4.813    -6.2747 
 H                    -9.4461   -2.5762   -5.2612 
 H                    -5.8458   -0.343    -4.0728 
 H                    -6.1124    1.6322   -2.6232 
 H                    -9.943     0.4831   -1.5007 
 H                    -9.852    -1.5276   -2.9463 
 H                    -5.6151   -2.6542   -3.2553 
 H                    -3.5376   -4.6317   -3.0046 
 H                    -1.352    -4.6228   -2.9016 
 C                    -5.8542    2.5102    2.0116 
 N                    -7.0129    2.9769    1.5185 
 C                    -7.4825    4.1527    1.962 
 C                    -6.7746    4.9336    2.8627 
 C                    -5.5166    4.5094    3.3162 
 C                    -4.6417    5.3683    4.1356 
 C                    -5.1685    6.2068    5.1415 
 C                    -4.3555    7.0441    5.8998 
 C                    -2.9978    7.0349    5.6079 
 O                    -2.0471    7.8001    6.21 
 C                    -0.8652    7.5105    5.6021 
 C                     0.3623    8.0929    5.8893 
 C                     1.4477    7.6843    5.1208 
 C                     1.3212    6.7118    4.1045 
 C                     2.4754    6.3303    3.2695 
 C                     2.5977    5.0326    2.7485 
 C                     3.6225    4.7342    1.8698 
 N                     4.525     5.6521    1.4885 
 C                     4.4698    6.8809    2.023 
 C                     3.4743    7.2495    2.9138 
 C                     0.0724    6.1292    3.8504 
 C                    -1.0281    6.5373    4.5992 
 C                    -2.4409    6.22      4.6054 
 C                    -3.2657    5.3723    3.8714 
 C                    -5.0885    3.2394    2.9016 
 H                    -5.5217    1.5322    1.6582 
 H                    -8.4342    4.4916    1.5488 
 H                    -7.1832    5.9026    3.1522 
 H                    -6.2403    6.1855    5.3493 
 H                    -4.7641    7.6819    6.6843 
 H                     0.4676    8.8393    6.6773 
 H                     2.4276    8.1193    5.3269 
 H                     1.8937    4.2453    3.0192 
 H                     3.7218    3.7348    1.4419 
 H                     5.2286    7.5959    1.7006 
 H                     3.456     8.2761    3.2813 
 H                    -0.0494    5.3968    3.0504 
 H                    -2.849     4.7528    3.075 
 H                    -4.15      2.8154    3.2598 
 C                    -5.635     3.7805   -1.288 
 N                    -6.9686    3.7726   -1.1287 
 C                    -7.6645    4.8661   -1.4695 
 C                    -7.0456    6.0104   -1.9581 
 C                    -5.6514    6.0466   -2.1208 
 C                    -4.9021    7.2224   -2.6048 
 C                    -5.5055    8.2484   -3.3675 
 C                    -4.7776    9.3209   -3.8818 
 C                    -3.4122    9.3426   -3.6208 
 O                    -2.5032    10.2531  -4.073 
 C                    -1.2786    9.8407   -3.6344 
 C                    -0.0498    10.4298  -3.9095 
 C                     1.086     9.7916   -3.4113 
 C                     1.0079    8.5987   -2.6584 
 C                     2.2027    7.8676   -2.196 
 C                     2.1289    6.4766   -2.0151 
 C                     3.2019    5.7872   -1.4938 
 N                     4.3576    6.3925   -1.1761 
 C                     4.4791    7.7098   -1.3928 
 C                     3.4321    8.4731   -1.8951 
 C                    -0.2484    8.0545   -2.3651 
 C                    -1.3859    8.6731   -2.8615 
 C                    -2.7901    8.3476   -2.8497 
 C                    -3.5309    7.2976   -2.3299 
 C                    -4.9585    4.87     -1.7891 
 H                    -5.0914    2.8801   -0.9947 
 H                    -8.7465    4.8258   -1.331 
 H                    -7.6679    6.8763   -2.1863 
 H                    -6.5714    8.1938   -3.5961 
 H                    -5.2561    10.0935  -4.4847 
 H                     0.0269    11.3361  -4.5113 
 H                     2.0649    10.2135  -3.6483 
 H                     1.2334    5.9148   -2.2771 
 H                     3.1317    4.7129   -1.3082 
 H                     5.4364    8.1658   -1.1327 
 H                     3.579     9.5476   -2.0114 
 H                    -0.3457    7.156    -1.7548 
 H                    -3.0322    6.5481   -1.7163 
 H                    -3.8819    4.7806   -1.9212 
 
 Stoichiometry    C132H84N12O6Pd3(6+)
 Framework group  C1[X(C132H84N12O6Pd3)]
 Deg. of freedom   705
 Full point group                 C1      NOp   1
 Largest Abelian subgroup         C1      NOp   1
 Largest concise Abelian subgroup C1      NOp   1
                         Standard orientation:                         
 ---------------------------------------------------------------------
 Center     Atomic      Atomic             Coordinates (Angstroms)
 Number     Number       Type             X           Y           Z
 ---------------------------------------------------------------------
      1         46           0        1.815605   -7.107606    0.143301
      2         46           0       -7.679202    2.107986   -0.197299
      3         46           0        5.659395    5.214997   -0.141499
      4          6           0        3.082404   -6.020005    2.528901
      5          7           0        3.216905   -7.008805    1.632301
      6          6           0        4.413005   -7.605804    1.502901
      7          6           0        5.536705   -7.161903    2.185601
      8          6           0        5.441804   -6.031703    3.008801
      9          6           0        6.623704   -5.312403    3.522101
     10          6           0        7.722604   -5.957902    4.125901
     11          6           0        8.842804   -5.247801    4.557101
     12          6           0        8.846102   -3.875801    4.335101
     13          8           0        9.856302   -3.008100    4.631401
     14          6           0        9.471901   -1.783800    4.173901
     15          6           0       10.212500   -0.609000    4.227701
     16          6           0        9.649299    0.522700    3.640301
     17          6           0        8.386499    0.487999    3.008601
     18          6           0        7.834098    1.655398    2.296401
     19          6           0        7.030198    1.453098    1.163301
     20          6           0        6.474398    2.530297    0.507101
     21          7           0        6.679997    3.796898    0.904901
     22          6           0        7.461296    4.022698    1.971201
     23          6           0        8.053597    2.986499    2.681801
     24          6           0        7.648800   -0.702302    3.005001
     25          6           0        8.194701   -1.837601    3.589401
     26          6           0        7.774702   -3.213002    3.712801
     27          6           0        6.648803   -3.927503    3.322101
     28          6           0        4.159204   -5.509004    3.227701
     29          1           0        2.087904   -5.591906    2.656301
     30          1           0        4.479906   -8.423404    0.782701
     31          1           0        6.497205   -7.643003    1.995401
     32          1           0        7.690605   -7.039102    4.277501
     33          1           0        9.684904   -5.748900    5.036001
     34          1           0       11.201200   -0.579199    4.687001
     35          1           0       10.225798    1.450000    3.635601
     36          1           0        6.845899    0.453698    0.770001
     37          1           0        5.844598    2.379797   -0.371899
     38          1           0        7.601996    5.063898    2.266901
     39          1           0        8.660897    3.230299    3.554401
     40          1           0        6.656700   -0.745303    2.553201
     41          1           0        5.819402   -3.423703    2.822101
     42          1           0        4.001203   -4.674805    3.911901
     43          6           0        3.753604   -5.200105   -0.788599
     44          7           0        3.264304   -6.409805   -1.106599
     45          6           0        3.744505   -7.036905   -2.190199
     46          6           0        4.734105   -6.475704   -2.986799
     47          6           0        5.264104   -5.215104   -2.669899
     48          6           0        6.327203   -4.551303   -3.448099
     49          6           0        7.304904   -5.293302   -4.147799
     50          6           0        8.373603   -4.680801   -4.798499
     51          6           0        8.441302   -3.294401   -4.733099
     52          8           0        9.429601   -2.507900   -5.241599
     53          6           0        9.125000   -1.222501   -4.903099
     54          6           0        9.903500   -0.098800   -5.152899
     55          6           0        9.435299    1.118900   -4.661499
     56          6           0        8.209299    1.216999   -3.971299
     57          6           0        7.717398    2.475798   -3.379099
     58          6           0        6.357397    2.807997   -3.465099
     59          6           0        5.849397    3.823697   -2.677999
     60          7           0        6.615596    4.514397   -1.817999
     61          6           0        7.942196    4.303898   -1.825199
     62          6           0        8.528397    3.314699   -2.602399
     63          6           0        7.436299    0.070798   -3.749899
     64          6           0        7.908700   -1.156302   -4.201799
     65          6           0        7.464701   -2.525502   -4.075899
     66          6           0        6.402902   -3.152303   -3.435499
     67          6           0        4.740103   -4.585204   -1.529699
     68          1           0        3.348003   -4.716305    0.101601
     69          1           0        3.317506   -8.014105   -2.423199
     70          1           0        5.071405   -7.027904   -3.864699
     71          1           0        7.252304   -6.383802   -4.147799
     72          1           0        9.138004   -5.265101   -5.311999
     73          1           0       10.846800   -0.169699   -5.695699
     74          1           0       10.027498    2.020800   -4.831299
     75          1           0        5.680598    2.247797   -4.110999
     76          1           0        4.784696    4.059096   -2.698599
     77          1           0        8.538696    4.902299   -1.134399
     78          1           0        9.602197    3.141300   -2.517199
     79          1           0        6.504299    0.130797   -3.184499
     80          1           0        5.644201   -2.552603   -2.931099
     81          1           0        5.116802   -3.621704   -1.188199
     82          6           0       -0.321696   -6.302508    1.857801
     83          7           0        0.265205   -7.430607    1.426801
     84          6           0       -0.313094   -8.607208    1.707601
     85          6           0       -1.530394   -8.690209    2.373901
     86          6           0       -2.190795   -7.519009    2.773201
     87          6           0       -3.552295   -7.479610    3.339301
     88          6           0       -4.091994   -8.500311    4.152801
     89          6           0       -5.382094   -8.422312    4.680301
     90          6           0       -6.129595   -7.292412    4.365501
     91          8           0       -7.403695   -7.007013    4.764501
     92          6           0       -7.733296   -5.804814    4.208001
     93          6           0       -8.932897   -5.114615    4.344701
     94          6           0       -9.044997   -3.894315    3.676601
     95          6           0       -7.996998   -3.372014    2.886401
     96          6           0       -8.094699   -2.097314    2.151101
     97          6           0       -7.351999   -1.930113    0.971401
     98          6           0       -7.330900   -0.711513    0.330201
     99          7           0       -8.029001    0.347186    0.774501
    100          6           0       -8.789201    0.202285    1.870901
    101          6           0       -8.849200   -0.993515    2.576001
    102          6           0       -6.797497   -4.085513    2.781501
    103          6           0       -6.673196   -5.298713    3.439501
    104          6           0       -5.618896   -6.272812    3.547101
    105          6           0       -4.336296   -6.362111    3.030701
    106          6           0       -1.517096   -6.309009    2.542001
    107          1           0        0.171104   -5.357908    1.620101
    108          1           0        0.201407   -9.505208    1.359901
    109          1           0       -1.976593   -9.673609    2.528401
    110          1           0       -3.478693   -9.368910    4.402301
    111          1           0       -5.782093   -9.212112    5.317301
    112          1           0       -9.755496   -5.511415    4.940801
    113          1           0       -9.986098   -3.345115    3.751001
    114          1           0       -6.780698   -2.749613    0.537201
    115          1           0       -6.727400   -0.575713   -0.567799
    116          1           0       -9.345301    1.080585    2.203201
    117          1           0       -9.457100   -1.036015    3.480701
    118          1           0       -5.954298   -3.691512    2.213201
    119          1           0       -3.963696   -5.578611    2.370201
    120          1           0       -1.928896   -5.357409    2.876201
    121          6           0        0.011704   -5.791208   -1.755699
    122          7           0        0.411405   -6.998007   -1.325899
    123          6           0       -0.251994   -8.086608   -1.743399
    124          6           0       -1.362494   -8.001209   -2.566399
    125          6           0       -1.832495   -6.747909   -2.990399
    126          6           0       -3.068595   -6.606610   -3.784599
    127          6           0       -3.507795   -7.652810   -4.627399
    128          6           0       -4.701095   -7.580611   -5.337799
    129          6           0       -5.457596   -6.427212   -5.178799
    130          8           0       -6.667996   -6.183313   -5.747999
    131          6           0       -7.069197   -4.957813   -5.311099
    132          6           0       -8.274497   -4.339314   -5.617499
    133          6           0       -8.509198   -3.093014   -5.042299
    134          6           0       -7.554599   -2.471114   -4.211599
    135          6           0       -7.799300   -1.163114   -3.575199
    136          6           0       -6.775100   -0.206413   -3.518899
    137          6           0       -6.920501    0.905787   -2.711799
    138          7           0       -8.014901    1.106886   -1.958999
    139          6           0       -9.059201    0.274785   -2.106299
    140          6           0       -8.996800   -0.850815   -2.915999
    141          6           0       -6.343998   -3.115913   -3.924499
    142          6           0       -6.107597   -4.376912   -4.464299
    143          6           0       -5.044296   -5.355512   -4.365999
    144          6           0       -3.842796   -5.443711   -3.666799
    145          6           0       -1.086496   -5.630609   -2.581899
    146          1           0        0.588203   -4.928107   -1.416499
    147          1           0        0.107307   -9.052508   -1.383599
    148          1           0       -1.881494   -8.922209   -2.832499
    149          1           0       -2.890194   -8.545510   -4.741999
    150          1           0       -5.031494   -8.393512   -5.985199
    151          1           0       -9.004597   -4.813015   -6.274699
    152          1           0       -9.446099   -2.576215   -5.261199
    153          1           0       -5.845800   -0.343012   -4.072799
    154          1           0       -6.112402    1.632188   -2.623199
    155          1           0       -9.943001    0.483085   -1.500699
    156          1           0       -9.851999   -1.527615   -2.946299
    157          1           0       -5.615098   -2.654212   -3.255299
    158          1           0       -3.537597   -4.631710   -3.004599
    159          1           0       -1.351997   -4.622809   -2.901599
    160          6           0       -5.854202    2.510188    2.011601
    161          7           0       -7.012903    2.976887    1.518501
    162          6           0       -7.482504    4.152687    1.962001
    163          6           0       -6.774604    4.933587    2.862701
    164          6           0       -5.516604    4.509388    3.316201
    165          6           0       -4.641705    5.368289    4.135601
    166          6           0       -5.168505    6.206788    5.141501
    167          6           0       -4.355506    7.044089    5.899801
    168          6           0       -2.997806    7.034890    5.607901
    169          8           0       -2.047107    7.800091    6.210001
    170          6           0       -0.865206    7.510492    5.602101
    171          6           0        0.362293    8.092893    5.889301
    172          6           0        1.447694    7.684293    5.120801
    173          6           0        1.321194    6.711793    4.104501
    174          6           0        2.475395    6.330294    3.269501
    175          6           0        2.597696    5.032594    2.748501
    176          6           0        3.622496    4.734195    1.869801
    177          7           0        4.524995    5.652096    1.488501
    178          6           0        4.469794    6.880896    2.023001
    179          6           0        3.474294    7.249495    2.913801
    180          6           0        0.072395    6.129192    3.850401
    181          6           0       -1.028106    6.537292    4.599201
    182          6           0       -2.440905    6.219990    4.605401
    183          6           0       -3.265705    5.372290    3.871401
    184          6           0       -5.088503    3.239388    2.901601
    185          1           0       -5.521702    1.532188    1.658201
    186          1           0       -8.434204    4.491586    1.548801
    187          1           0       -7.183205    5.902587    3.152201
    188          1           0       -6.240305    6.185487    5.349301
    189          1           0       -4.764106    7.681889    6.684301
    190          1           0        0.467593    8.839293    6.677301
    191          1           0        2.427593    8.119294    5.326901
    192          1           0        1.893696    4.245294    3.019201
    193          1           0        3.721797    3.734795    1.441901
    194          1           0        5.228594    7.595896    1.700601
    195          1           0        3.455993    8.276095    3.281301
    196          1           0       -0.049405    5.396792    3.050401
    197          1           0       -2.849004    4.752790    3.075001
    198          1           0       -4.150003    2.815389    3.259801
    199          6           0       -5.635003    3.780488   -1.287999
    200          7           0       -6.968603    3.772587   -1.128699
    201          6           0       -7.664504    4.866086   -1.469499
    202          6           0       -7.045605    6.010387   -1.958099
    203          6           0       -5.651405    6.046588   -2.120799
    204          6           0       -4.902106    7.222389   -2.604799
    205          6           0       -5.505507    8.248388   -3.367499
    206          6           0       -4.777608    9.320889   -3.881799
    207          6           0       -3.412208    9.342590   -3.620799
    208          8           0       -2.503208   10.253090   -4.072999
    209          6           0       -1.278608    9.840691   -3.634399
    210          6           0       -0.049809   10.429792   -3.909499
    211          6           0        1.085992    9.791593   -3.411299
    212          6           0        1.007893    8.598693   -2.658399
    213          6           0        2.202693    7.867594   -2.195999
    214          6           0        2.128894    6.476594   -2.015099
    215          6           0        3.201895    5.787195   -1.493799
    216          7           0        4.357595    6.392496   -1.176099
    217          6           0        4.479093    7.709796   -1.392799
    218          6           0        3.432093    8.473095   -1.895099
    219          6           0       -0.248407    8.054492   -2.365099
    220          6           0       -1.385907    8.673091   -2.861499
    221          6           0       -2.790107    8.347590   -2.849699
    222          6           0       -3.530906    7.297590   -2.329899
    223          6           0       -4.958504    4.869988   -1.789099
    224          1           0       -5.091403    2.880088   -0.994699
    225          1           0       -8.746504    4.825786   -1.330999
    226          1           0       -7.667906    6.876286   -2.186299
    227          1           0       -6.571407    8.193787   -3.596099
    228          1           0       -5.256108   10.093488   -4.484699
    229          1           0        0.026891   11.336092   -4.511299
    230          1           0        2.064892   10.213494   -3.648299
    231          1           0        1.233395    5.914793   -2.277099
    232          1           0        3.131696    4.712895   -1.308199
    233          1           0        5.436393    8.165797   -1.132699
    234          1           0        3.578992    9.547595   -2.011399
    235          1           0       -0.345706    7.155992   -1.754799
    236          1           0       -3.032206    6.548090   -1.716299
    237          1           0       -3.881904    4.780589   -1.921199
 ---------------------------------------------------------------------
 Rotational constants (GHZ):           0.0053953           0.0049272           0.0033514
 Standard basis: def2SVP (5D, 7F)
 There are  2778 symmetry adapted cartesian basis functions of A   symmetry.
 There are  2613 symmetry adapted basis functions of A   symmetry.
  2613 basis functions,  4533 primitive gaussians,  2778 cartesian basis functions
   528 alpha electrons      528 beta electrons
       nuclear repulsion energy     34229.5274427511 Hartrees.
 NAtoms=  237 NActive=  237 NUniq=  237 SFac= 1.00D+00 NAtFMM=   60 NAOKFM=T Big=T
 Integral buffers will be    131072 words long.
 Raffenetti 2 integral format.
 Two-electron integral symmetry is turned on.
 Nuclear repulsion after empirical dispersion term =    34229.1427936560 Hartrees.
 ------------------------------------------------------------------------------
 Polarizable Continuum Model (PCM)
 =================================
 Model                : PCM.
 Atomic radii         : UFF (Universal Force Field).
 Polarization charges : Total charges.
 Charge compensation  : None.
 Solution method      : On-the-fly selection.
 Cavity type          : Scaled VdW (van der Waals Surface) (Alpha=1.100).
 Cavity algorithm     : GePol (No added spheres)
                        Default sphere list used, NSphG=  237.
                        Lebedev-Laikov grids with approx.  5.0 points / Ang**2.
                        Smoothing algorithm: York/Karplus (Gamma=1.0000).
                        Polarization charges: spherical gaussians, with
                                              point-specific exponents (IZeta= 3).
                        Self-potential: point-specific (ISelfS= 7).
                        Self-field    : sphere-specific E.n sum rule (ISelfD= 2).
 Solvent              : DiMethylSulfoxide, Eps=  46.826000 Eps(inf)=   2.007889
 ------------------------------------------------------------------------------
 One-electron integrals computed using PRISM.
   1 Symmetry operations used in ECPInt.
 ECPInt:  NShTT=  702705 NPrTT= 2595750 LenC2=  262773 LenP2D=  539484.
 LDataN:  DoStor=T MaxTD1= 7 Len=  274
 Number of processors reduced to  44 by ecpmxn.
 NBasis=  2613 RedAO= T EigKep=  2.20D-04  NBF=  2613
 NBsUse=  2613 1.00D-06 EigRej= -1.00D+00 NBFU=  2613
 Defaulting to unpruned grid for atomic number  46.
 ExpMin= 3.70D-02 ExpMax= 2.27D+03 ExpMxC= 3.41D+02 IAcc=3 IRadAn=         5 AccDes= 0.00D+00
 Harris functional with IExCor= 1009 and IRadAn=       5 diagonalized for initial guess.
 HarFok:  IExCor= 1009 AccDes= 0.00D+00 IRadAn=         5 IDoV= 1 UseB2=F ITyADJ=14
 ICtDFT=  3500011 ScaDFX=  1.000000  1.000000  1.000000  1.000000
 Defaulting to unpruned grid for atomic number  46.
 FoFCou: FMM=F IPFlag=           0 FMFlag=      100000 FMFlg1=        2001
         NFxFlg=           0 DoJE=T BraDBF=F KetDBF=T FulRan=T
         wScrn=  0.000000 ICntrl=       500 IOpCl=  0 I1Cent=   200000004 NGrid=           0
         NMat0=    1 NMatS0=      1 NMatT0=    0 NMatD0=    1 NMtDS0=    0 NMtDT0=    0
 Petite list used in FoFCou.
 Requested convergence on RMS density matrix=1.00D-08 within 128 cycles.
 Requested convergence on MAX density matrix=1.00D-06.
 Requested convergence on             energy=1.00D-06.
 No special actions if energy rises.
 Defaulting to unpruned grid for atomic number  46.
 Defaulting to unpruned grid for atomic number  46.
 Defaulting to unpruned grid for atomic number  46.
 Defaulting to unpruned grid for atomic number  46.
 Defaulting to unpruned grid for atomic number  46.
 Defaulting to unpruned grid for atomic number  46.
 Defaulting to unpruned grid for atomic number  46.
 Defaulting to unpruned grid for atomic number  46.
 Defaulting to unpruned grid for atomic number  46.
 Defaulting to unpruned grid for atomic number  46.
 Defaulting to unpruned grid for atomic number  46.
 Defaulting to unpruned grid for atomic number  46.
 Defaulting to unpruned grid for atomic number  46.
 Defaulting to unpruned grid for atomic number  46.
 Defaulting to unpruned grid for atomic number  46.
 Defaulting to unpruned grid for atomic number  46.
 Defaulting to unpruned grid for atomic number  46.
 Defaulting to unpruned grid for atomic number  46.
 Defaulting to unpruned grid for atomic number  46.
 Defaulting to unpruned grid for atomic number  46.
 Defaulting to unpruned grid for atomic number  46.
 Defaulting to unpruned grid for atomic number  46.
 Defaulting to unpruned grid for atomic number  46.
 Defaulting to unpruned grid for atomic number  46.
 Defaulting to unpruned grid for atomic number  46.
 Defaulting to unpruned grid for atomic number  46.
 Defaulting to unpruned grid for atomic number  46.
 Defaulting to unpruned grid for atomic number  46.
 Defaulting to unpruned grid for atomic number  46.
 Defaulting to unpruned grid for atomic number  46.
 Defaulting to unpruned grid for atomic number  46.
 Defaulting to unpruned grid for atomic number  46.
 Defaulting to unpruned grid for atomic number  46.
 Defaulting to unpruned grid for atomic number  46.
 Defaulting to unpruned grid for atomic number  46.
 Defaulting to unpruned grid for atomic number  46.
 Defaulting to unpruned grid for atomic number  46.
 Defaulting to unpruned grid for atomic number  46.
 Defaulting to unpruned grid for atomic number  46.
 Defaulting to unpruned grid for atomic number  46.
 Defaulting to unpruned grid for atomic number  46.
 Defaulting to unpruned grid for atomic number  46.
 Defaulting to unpruned grid for atomic number  46.
 Defaulting to unpruned grid for atomic number  46.
 Defaulting to unpruned grid for atomic number  46.
 Defaulting to unpruned grid for atomic number  46.
 Defaulting to unpruned grid for atomic number  46.
 Defaulting to unpruned grid for atomic number  46.
 Inv3:  Mode=1 IEnd=   779563200.
 Iteration    1 A*A^-1 deviation from unit magnitude is 9.77D-15 for  16118.
 Iteration    1 A*A^-1 deviation from orthogonality  is 4.62D-15 for  12804   8632.
 Iteration    1 A^-1*A deviation from unit magnitude is 9.66D-15 for  16101.
 Iteration    1 A^-1*A deviation from orthogonality  is 2.45D-14 for   9290   9282.
 EnCoef did   100 forward-backward iterations
 EnCoef did     3 forward-backward iterations
 EnCoef did     2 forward-backward iterations
 EnCoef did     2 forward-backward iterations
 Error on total polarization charges =  0.03259
 SCF Done:  E(RPBE1PBE) =  -6561.00289251     A.U. after   20 cycles
            NFock= 20  Conv=0.16D-08     -V/T= 2.0483
 Hyperfine terms turned off by default for NAtoms > 100.

 **********************************************************************

            Population analysis using the SCF Density.

 **********************************************************************

 Orbital symmetries:
       Occupied  (A) (A) (A) (A) (A) (A) (A) (A) (A) (A) (A) (A)
                 (A) (A) (A) (A) (A) (A) (A) (A) (A) (A) (A) (A)
                 (A) (A) (A) (A) (A) (A) (A) (A) (A) (A) (A) (A)
                 (A) (A) (A) (A) (A) (A) (A) (A) (A) (A) (A) (A)
                 (A) (A) (A) (A) (A) (A) (A) (A) (A) (A) (A) (A)
                 (A) (A) (A) (A) (A) (A) (A) (A) (A) (A) (A) (A)
                 (A) (A) (A) (A) (A) (A) (A) (A) (A) (A) (A) (A)
                 (A) (A) (A) (A) (A) (A) (A) (A) (A) (A) (A) (A)
                 (A) (A) (A) (A) (A) (A) (A) (A) (A) (A) (A) (A)
                 (A) (A) (A) (A) (A) (A) (A) (A) (A) (A) (A) (A)
                 (A) (A) (A) (A) (A) (A) (A) (A) (A) (A) (A) (A)
                 (A) (A) (A) (A) (A) (A) (A) (A) (A) (A) (A) (A)
                 (A) (A) (A) (A) (A) (A) (A) (A) (A) (A) (A) (A)
                 (A) (A) (A) (A) (A) (A) (A) (A) (A) (A) (A) (A)
                 (A) (A) (A) (A) (A) (A) (A) (A) (A) (A) (A) (A)
                 (A) (A) (A) (A) (A) (A) (A) (A) (A) (A) (A) (A)
                 (A) (A) (A) (A) (A) (A) (A) (A) (A) (A) (A) (A)
                 (A) (A) (A) (A) (A) (A) (A) (A) (A) (A) (A) (A)
                 (A) (A) (A) (A) (A) (A) (A) (A) (A) (A) (A) (A)
                 (A) (A) (A) (A) (A) (A) (A) (A) (A) (A) (A) (A)
                 (A) (A) (A) (A) (A) (A) (A) (A) (A) (A) (A) (A)
                 (A) (A) (A) (A) (A) (A) (A) (A) (A) (A) (A) (A)
                 (A) (A) (A) (A) (A) (A) (A) (A) (A) (A) (A) (A)
                 (A) (A) (A) (A) (A) (A) (A) (A) (A) (A) (A) (A)
                 (A) (A) (A) (A) (A) (A) (A) (A) (A) (A) (A) (A)
                 (A) (A) (A) (A) (A) (A) (A) (A) (A) (A) (A) (A)
                 (A) (A) (A) (A) (A) (A) (A) (A) (A) (A) (A) (A)
                 (A) (A) (A) (A) (A) (A) (A) (A) (A) (A) (A) (A)
                 (A) (A) (A) (A) (A) (A) (A) (A) (A) (A) (A) (A)
                 (A) (A) (A) (A) (A) (A) (A) (A) (A) (A) (A) (A)
                 (A) (A) (A) (A) (A) (A) (A) (A) (A) (A) (A) (A)
                 (A) (A) (A) (A) (A) (A) (A) (A) (A) (A) (A) (A)
                 (A) (A) (A) (A) (A) (A) (A) (A) (A) (A) (A) (A)
                 (A) (A) (A) (A) (A) (A) (A) (A) (A) (A) (A) (A)
                 (A) (A) (A) (A) (A) (A) (A) (A) (A) (A) (A) (A)
                 (A) (A) (A) (A) (A) (A) (A) (A) (A) (A) (A) (A)
                 (A) (A) (A) (A) (A) (A) (A) (A) (A) (A) (A) (A)
                 (A) (A) (A) (A) (A) (A) (A) (A) (A) (A) (A) (A)
                 (A) (A) (A) (A) (A) (A) (A) (A) (A) (A) (A) (A)
                 (A) (A) (A) (A) (A) (A) (A) (A) (A) (A) (A) (A)
                 (A) (A) (A) (A) (A) (A) (A) (A) (A) (A) (A) (A)
                 (A) (A) (A) (A) (A) (A) (A) (A) (A) (A) (A) (A)
                 (A) (A) (A) (A) (A) (A) (A) (A) (A) (A) (A) (A)
                 (A) (A) (A) (A) (A) (A) (A) (A) (A) (A) (A) (A)
       Virtual   (A) (A) (A) (A) (A) (A) (A) (A) (A) (A) (A) (A)
                 (A) (A) (A) (A) (A) (A) (A) (A) (A) (A) (A) (A)
                 (A) (A) (A) (A) (A) (A) (A) (A) (A) (A) (A) (A)
                 (A) (A) (A) (A) (A) (A) (A) (A) (A) (A) (A) (A)
                 (A) (A) (A) (A) (A) (A) (A) (A) (A) (A) (A) (A)
                 (A) (A) (A) (A) (A) (A) (A) (A) (A) (A) (A) (A)
                 (A) (A) (A) (A) (A) (A) (A) (A) (A) (A) (A) (A)
                 (A) (A) (A) (A) (A) (A) (A) (A) (A) (A) (A) (A)
                 (A) (A) (A) (A) (A) (A) (A) (A) (A) (A) (A) (A)
                 (A) (A) (A) (A) (A) (A) (A) (A) (A) (A) (A) (A)
                 (A) (A) (A) (A) (A) (A) (A) (A) (A) (A) (A) (A)
                 (A) (A) (A) (A) (A) (A) (A) (A) (A) (A) (A) (A)
                 (A) (A) (A) (A) (A) (A) (A) (A) (A) (A) (A) (A)
                 (A) (A) (A) (A) (A) (A) (A) (A) (A) (A) (A) (A)
                 (A) (A) (A) (A) (A) (A) (A) (A) (A) (A) (A) (A)
                 (A) (A) (A) (A) (A) (A) (A) (A) (A) (A) (A) (A)
                 (A) (A) (A) (A) (A) (A) (A) (A) (A) (A) (A) (A)
                 (A) (A) (A) (A) (A) (A) (A) (A) (A) (A) (A) (A)
                 (A) (A) (A) (A) (A) (A) (A) (A) (A) (A) (A) (A)
                 (A) (A) (A) (A) (A) (A) (A) (A) (A) (A) (A) (A)
                 (A) (A) (A) (A) (A) (A) (A) (A) (A) (A) (A) (A)
                 (A) (A) (A) (A) (A) (A) (A) (A) (A) (A) (A) (A)
                 (A) (A) (A) (A) (A) (A) (A) (A) (A) (A) (A) (A)
                 (A) (A) (A) (A) (A) (A) (A) (A) (A) (A) (A) (A)
                 (A) (A) (A) (A) (A) (A) (A) (A) (A) (A) (A) (A)
                 (A) (A) (A) (A) (A) (A) (A) (A) (A) (A) (A) (A)
                 (A) (A) (A) (A) (A) (A) (A) (A) (A) (A) (A) (A)
                 (A) (A) (A) (A) (A) (A) (A) (A) (A) (A) (A) (A)
                 (A) (A) (A) (A) (A) (A) (A) (A) (A) (A) (A) (A)
                 (A) (A) (A) (A) (A) (A) (A) (A) (A) (A) (A) (A)
                 (A) (A) (A) (A) (A) (A) (A) (A) (A) (A) (A) (A)
                 (A) (A) (A) (A) (A) (A) (A) (A) (A) (A) (A) (A)
                 (A) (A) (A) (A) (A) (A) (A) (A) (A) (A) (A) (A)
                 (A) (A) (A) (A) (A) (A) (A) (A) (A) (A) (A) (A)
                 (A) (A) (A) (A) (A) (A) (A) (A) (A) (A) (A) (A)
                 (A) (A) (A) (A) (A) (A) (A) (A) (A) (A) (A) (A)
                 (A) (A) (A) (A) (A) (A) (A) (A) (A) (A) (A) (A)
                 (A) (A) (A) (A) (A) (A) (A) (A) (A) (A) (A) (A)
                 (A) (A) (A) (A) (A) (A) (A) (A) (A) (A) (A) (A)
                 (A) (A) (A) (A) (A) (A) (A) (A) (A) (A) (A) (A)
                 (A) (A) (A) (A) (A) (A) (A) (A) (A) (A) (A) (A)
                 (A) (A) (A) (A) (A) (A) (A) (A) (A) (A) (A) (A)
                 (A) (A) (A) (A) (A) (A) (A) (A) (A) (A) (A) (A)
                 (A) (A) (A) (A) (A) (A) (A) (A) (A) (A) (A) (A)
                 (A) (A) (A) (A) (A) (A) (A) (A) (A) (A) (A) (A)
                 (A) (A) (A) (A) (A) (A) (A) (A) (A) (A) (A) (A)
                 (A) (A) (A) (A) (A) (A) (A) (A) (A) (A) (A) (A)
                 (A) (A) (A) (A) (A) (A) (A) (A) (A) (A) (A) (A)
                 (A) (A) (A) (A) (A) (A) (A) (A) (A) (A) (A) (A)
                 (A) (A) (A) (A) (A) (A) (A) (A) (A) (A) (A) (A)
                 (A) (A) (A) (A) (A) (A) (A) (A) (A) (A) (A) (A)
                 (A) (A) (A) (A) (A) (A) (A) (A) (A) (A) (A) (A)
                 (A) (A) (A) (A) (A) (A) (A) (A) (A) (A) (A) (A)
                 (A) (A) (A) (A) (A) (A) (A) (A) (A) (A) (A) (A)
                 (A) (A) (A) (A) (A) (A) (A) (A) (A) (A) (A) (A)
                 (A) (A) (A) (A) (A) (A) (A) (A) (A) (A) (A) (A)
                 (A) (A) (A) (A) (A) (A) (A) (A) (A) (A) (A) (A)
                 (A) (A) (A) (A) (A) (A) (A) (A) (A) (A) (A) (A)
                 (A) (A) (A) (A) (A) (A) (A) (A) (A) (A) (A) (A)
                 (A) (A) (A) (A) (A) (A) (A) (A) (A) (A) (A) (A)
                 (A) (A) (A) (A) (A) (A) (A) (A) (A) (A) (A) (A)
                 (A) (A) (A) (A) (A) (A) (A) (A) (A) (A) (A) (A)
                 (A) (A) (A) (A) (A) (A) (A) (A) (A) (A) (A) (A)
                 (A) (A) (A) (A) (A) (A) (A) (A) (A) (A) (A) (A)
                 (A) (A) (A) (A) (A) (A) (A) (A) (A) (A) (A) (A)
                 (A) (A) (A) (A) (A) (A) (A) (A) (A) (A) (A) (A)
                 (A) (A) (A) (A) (A) (A) (A) (A) (A) (A) (A) (A)
                 (A) (A) (A) (A) (A) (A) (A) (A) (A) (A) (A) (A)
                 (A) (A) (A) (A) (A) (A) (A) (A) (A) (A) (A) (A)
                 (A) (A) (A) (A) (A) (A) (A) (A) (A) (A) (A) (A)
                 (A) (A) (A) (A) (A) (A) (A) (A) (A) (A) (A) (A)
                 (A) (A) (A) (A) (A) (A) (A) (A) (A) (A) (A) (A)
                 (A) (A) (A) (A) (A) (A) (A) (A) (A) (A) (A) (A)
                 (A) (A) (A) (A) (A) (A) (A) (A) (A) (A) (A) (A)
                 (A) (A) (A) (A) (A) (A) (A) (A) (A) (A) (A) (A)
                 (A) (A) (A) (A) (A) (A) (A) (A) (A) (A) (A) (A)
                 (A) (A) (A) (A) (A) (A) (A) (A) (A) (A) (A) (A)
                 (A) (A) (A) (A) (A) (A) (A) (A) (A) (A) (A) (A)
                 (A) (A) (A) (A) (A) (A) (A) (A) (A) (A) (A) (A)
                 (A) (A) (A) (A) (A) (A) (A) (A) (A) (A) (A) (A)
                 (A) (A) (A) (A) (A) (A) (A) (A) (A) (A) (A) (A)
                 (A) (A) (A) (A) (A) (A) (A) (A) (A) (A) (A) (A)
                 (A) (A) (A) (A) (A) (A) (A) (A) (A) (A) (A) (A)
                 (A) (A) (A) (A) (A) (A) (A) (A) (A) (A) (A) (A)
                 (A) (A) (A) (A) (A) (A) (A) (A) (A) (A) (A) (A)
                 (A) (A) (A) (A) (A) (A) (A) (A) (A) (A) (A) (A)
                 (A) (A) (A) (A) (A) (A) (A) (A) (A) (A) (A) (A)
                 (A) (A) (A) (A) (A) (A) (A) (A) (A) (A) (A) (A)
                 (A) (A) (A) (A) (A) (A) (A) (A) (A) (A) (A) (A)
                 (A) (A) (A) (A) (A) (A) (A) (A) (A) (A) (A) (A)
                 (A) (A) (A) (A) (A) (A) (A) (A) (A) (A) (A) (A)
                 (A) (A) (A) (A) (A) (A) (A) (A) (A) (A) (A) (A)
                 (A) (A) (A) (A) (A) (A) (A) (A) (A) (A) (A) (A)
                 (A) (A) (A) (A) (A) (A) (A) (A) (A) (A) (A) (A)
                 (A) (A) (A) (A) (A) (A) (A) (A) (A) (A) (A) (A)
                 (A) (A) (A) (A) (A) (A) (A) (A) (A) (A) (A) (A)
                 (A) (A) (A) (A) (A) (A) (A) (A) (A) (A) (A) (A)
                 (A) (A) (A) (A) (A) (A) (A) (A) (A) (A) (A) (A)
                 (A) (A) (A) (A) (A) (A) (A) (A) (A) (A) (A) (A)
                 (A) (A) (A) (A) (A) (A) (A) (A) (A) (A) (A) (A)
                 (A) (A) (A) (A) (A) (A) (A) (A) (A) (A) (A) (A)
                 (A) (A) (A) (A) (A) (A) (A) (A) (A) (A) (A) (A)
                 (A) (A) (A) (A) (A) (A) (A) (A) (A) (A) (A) (A)
                 (A) (A) (A) (A) (A) (A) (A) (A) (A) (A) (A) (A)
                 (A) (A) (A) (A) (A) (A) (A) (A) (A) (A) (A) (A)
                 (A) (A) (A) (A) (A) (A) (A) (A) (A) (A) (A) (A)
                 (A) (A) (A) (A) (A) (A) (A) (A) (A) (A) (A) (A)
                 (A) (A) (A) (A) (A) (A) (A) (A) (A) (A) (A) (A)
                 (A) (A) (A) (A) (A) (A) (A) (A) (A) (A) (A) (A)
                 (A) (A) (A) (A) (A) (A) (A) (A) (A) (A) (A) (A)
                 (A) (A) (A) (A) (A) (A) (A) (A) (A) (A) (A) (A)
                 (A) (A) (A) (A) (A) (A) (A) (A) (A) (A) (A) (A)
                 (A) (A) (A) (A) (A) (A) (A) (A) (A) (A) (A) (A)
                 (A) (A) (A) (A) (A) (A) (A) (A) (A) (A) (A) (A)
                 (A) (A) (A) (A) (A) (A) (A) (A) (A) (A) (A) (A)
                 (A) (A) (A) (A) (A) (A) (A) (A) (A) (A) (A) (A)
                 (A) (A) (A) (A) (A) (A) (A) (A) (A) (A) (A) (A)
                 (A) (A) (A) (A) (A) (A) (A) (A) (A) (A) (A) (A)
                 (A) (A) (A) (A) (A) (A) (A) (A) (A) (A) (A) (A)
                 (A) (A) (A) (A) (A) (A) (A) (A) (A) (A) (A) (A)
                 (A) (A) (A) (A) (A) (A) (A) (A) (A) (A) (A) (A)
                 (A) (A) (A) (A) (A) (A) (A) (A) (A) (A) (A) (A)
                 (A) (A) (A) (A) (A) (A) (A) (A) (A) (A) (A) (A)
                 (A) (A) (A) (A) (A) (A) (A) (A) (A) (A) (A) (A)
                 (A) (A) (A) (A) (A) (A) (A) (A) (A) (A) (A) (A)
                 (A) (A) (A) (A) (A) (A) (A) (A) (A) (A) (A) (A)
                 (A) (A) (A) (A) (A) (A) (A) (A) (A) (A) (A) (A)
                 (A) (A) (A) (A) (A) (A) (A) (A) (A) (A) (A) (A)
                 (A) (A) (A) (A) (A) (A) (A) (A) (A) (A) (A) (A)
                 (A) (A) (A) (A) (A) (A) (A) (A) (A) (A) (A) (A)
                 (A) (A) (A) (A) (A) (A) (A) (A) (A) (A) (A) (A)
                 (A) (A) (A) (A) (A) (A) (A) (A) (A) (A) (A) (A)
                 (A) (A) (A) (A) (A) (A) (A) (A) (A) (A) (A) (A)
                 (A) (A) (A) (A) (A) (A) (A) (A) (A) (A) (A) (A)
                 (A) (A) (A) (A) (A) (A) (A) (A) (A) (A) (A) (A)
                 (A) (A) (A) (A) (A) (A) (A) (A) (A) (A) (A) (A)
                 (A) (A) (A) (A) (A) (A) (A) (A) (A) (A) (A) (A)
                 (A) (A) (A) (A) (A) (A) (A) (A) (A) (A) (A) (A)
                 (A) (A) (A) (A) (A) (A) (A) (A) (A) (A) (A) (A)
                 (A) (A) (A) (A) (A) (A) (A) (A) (A) (A) (A) (A)
                 (A) (A) (A) (A) (A) (A) (A) (A) (A) (A) (A) (A)
                 (A) (A) (A) (A) (A) (A) (A) (A) (A) (A) (A) (A)
                 (A) (A) (A) (A) (A) (A) (A) (A) (A) (A) (A) (A)
                 (A) (A) (A) (A) (A) (A) (A) (A) (A) (A) (A) (A)
                 (A) (A) (A) (A) (A) (A) (A) (A) (A) (A) (A) (A)
                 (A) (A) (A) (A) (A) (A) (A) (A) (A) (A) (A) (A)
                 (A) (A) (A) (A) (A) (A) (A) (A) (A) (A) (A) (A)
                 (A) (A) (A) (A) (A) (A) (A) (A) (A) (A) (A) (A)
                 (A) (A) (A) (A) (A) (A) (A) (A) (A) (A) (A) (A)
                 (A) (A) (A) (A) (A) (A) (A) (A) (A) (A) (A) (A)
                 (A) (A) (A) (A) (A) (A) (A) (A) (A) (A) (A) (A)
                 (A) (A) (A) (A) (A) (A) (A) (A) (A) (A) (A) (A)
                 (A) (A) (A) (A) (A) (A) (A) (A) (A) (A) (A) (A)
                 (A) (A) (A) (A) (A) (A) (A) (A) (A) (A) (A) (A)
                 (A) (A) (A) (A) (A) (A) (A) (A) (A) (A) (A) (A)
                 (A) (A) (A) (A) (A) (A) (A) (A) (A) (A) (A) (A)
                 (A) (A) (A) (A) (A) (A) (A) (A) (A) (A) (A) (A)
                 (A) (A) (A) (A) (A) (A) (A) (A) (A) (A) (A) (A)
                 (A) (A) (A) (A) (A) (A) (A) (A) (A) (A) (A) (A)
                 (A) (A) (A) (A) (A) (A) (A) (A) (A) (A) (A) (A)
                 (A) (A) (A) (A) (A) (A) (A) (A) (A) (A) (A) (A)
                 (A) (A) (A) (A) (A) (A) (A) (A) (A) (A) (A) (A)
                 (A) (A) (A) (A) (A) (A) (A) (A) (A) (A) (A) (A)
                 (A) (A) (A) (A) (A) (A) (A) (A) (A) (A) (A) (A)
                 (A) (A) (A) (A) (A) (A) (A) (A) (A) (A) (A) (A)
                 (A) (A) (A) (A) (A) (A) (A) (A) (A) (A) (A) (A)
                 (A) (A) (A) (A) (A) (A) (A) (A) (A) (A) (A) (A)
                 (A) (A) (A) (A) (A) (A) (A) (A) (A) (A) (A) (A)
                 (A) (A) (A) (A) (A) (A) (A) (A) (A) (A) (A) (A)
                 (A) (A) (A) (A) (A) (A) (A) (A) (A) (A) (A) (A)
                 (A) (A) (A) (A) (A) (A) (A) (A) (A) (A) (A) (A)
                 (A) (A) (A) (A) (A) (A) (A) (A) (A) (A) (A) (A)
                 (A) (A) (A) (A) (A) (A) (A) (A) (A) (A) (A) (A)
                 (A) (A) (A) (A) (A) (A) (A) (A) (A)
 The electronic state is 1-A.
 Alpha  occ. eigenvalues --  -19.30563 -19.30488 -19.30434 -19.30423 -19.30403
 Alpha  occ. eigenvalues --  -19.30364 -14.48565 -14.48520 -14.48506 -14.48499
 Alpha  occ. eigenvalues --  -14.48488 -14.48477 -14.48465 -14.48437 -14.48426
 Alpha  occ. eigenvalues --  -14.48309 -14.48286 -14.48217 -10.32653 -10.32617
 Alpha  occ. eigenvalues --  -10.32573 -10.32562 -10.32530 -10.32529 -10.32515
 Alpha  occ. eigenvalues --  -10.32490 -10.32488 -10.32455 -10.32446 -10.32410
 Alpha  occ. eigenvalues --  -10.32119 -10.32092 -10.32091 -10.32090 -10.32080
 Alpha  occ. eigenvalues --  -10.32031 -10.32029 -10.32023 -10.32019 -10.32012
 Alpha  occ. eigenvalues --  -10.32010 -10.32008 -10.32006 -10.32005 -10.32002
 Alpha  occ. eigenvalues --  -10.31998 -10.31986 -10.31985 -10.31962 -10.31945
 Alpha  occ. eigenvalues --  -10.31915 -10.31913 -10.31877 -10.31858 -10.30636
 Alpha  occ. eigenvalues --  -10.30562 -10.30539 -10.30484 -10.30467 -10.30466
 Alpha  occ. eigenvalues --  -10.30466 -10.30462 -10.30461 -10.30455 -10.30448
 Alpha  occ. eigenvalues --  -10.30412 -10.28475 -10.28412 -10.28405 -10.28404
 Alpha  occ. eigenvalues --  -10.28387 -10.28373 -10.28343 -10.28338 -10.28321
 Alpha  occ. eigenvalues --  -10.28319 -10.28288 -10.28278 -10.28244 -10.28233
 Alpha  occ. eigenvalues --  -10.28231 -10.28229 -10.28215 -10.28205 -10.28200
 Alpha  occ. eigenvalues --  -10.28192 -10.28152 -10.28143 -10.28136 -10.28057
 Alpha  occ. eigenvalues --  -10.28055 -10.27987 -10.27971 -10.27933 -10.27932
 Alpha  occ. eigenvalues --  -10.27931 -10.27925 -10.27900 -10.27897 -10.27882
 Alpha  occ. eigenvalues --  -10.27869 -10.27825 -10.27592 -10.27552 -10.27517
 Alpha  occ. eigenvalues --  -10.27493 -10.27446 -10.27446 -10.27443 -10.27423
 Alpha  occ. eigenvalues --  -10.27416 -10.27411 -10.27408 -10.27398 -10.27394
 Alpha  occ. eigenvalues --  -10.27380 -10.27378 -10.27348 -10.27347 -10.27339
 Alpha  occ. eigenvalues --  -10.27336 -10.27319 -10.27298 -10.27289 -10.27273
 Alpha  occ. eigenvalues --  -10.27264 -10.27248 -10.27231 -10.27231 -10.27228
 Alpha  occ. eigenvalues --  -10.27224 -10.27222 -10.27213 -10.27212 -10.27193
 Alpha  occ. eigenvalues --  -10.27185 -10.27129 -10.27107 -10.27080 -10.27063
 Alpha  occ. eigenvalues --  -10.27051 -10.27047 -10.26955 -10.26943 -10.26938
 Alpha  occ. eigenvalues --  -10.26924 -10.26920 -10.26913 -10.26909 -10.26905
 Alpha  occ. eigenvalues --   -3.57186  -3.57129  -3.57075  -2.25164  -2.25107
 Alpha  occ. eigenvalues --   -2.25045  -2.24873  -2.24807  -2.24759  -2.20857
 Alpha  occ. eigenvalues --   -2.20812  -2.20758  -1.16603  -1.16592  -1.16492
 Alpha  occ. eigenvalues --   -1.16445  -1.16367  -1.16355  -1.03623  -1.03569
 Alpha  occ. eigenvalues --   -1.03517  -1.03069  -1.03027  -1.02987  -1.02776
 Alpha  occ. eigenvalues --   -1.02752  -1.02712  -1.02636  -1.02630  -1.02622
 Alpha  occ. eigenvalues --   -0.92389  -0.92349  -0.92257  -0.92236  -0.92234
 Alpha  occ. eigenvalues --   -0.92224  -0.91805  -0.91760  -0.91743  -0.91730
 Alpha  occ. eigenvalues --   -0.91721  -0.91692  -0.88042  -0.87949  -0.87912
 Alpha  occ. eigenvalues --   -0.87857  -0.87844  -0.87813  -0.87591  -0.87561
 Alpha  occ. eigenvalues --   -0.87476  -0.87449  -0.87443  -0.87411  -0.83275
 Alpha  occ. eigenvalues --   -0.83201  -0.83181  -0.83168  -0.83154  -0.83118
 Alpha  occ. eigenvalues --   -0.82966  -0.82889  -0.82881  -0.82778  -0.82734
 Alpha  occ. eigenvalues --   -0.82713  -0.82678  -0.82666  -0.82656  -0.82633
 Alpha  occ. eigenvalues --   -0.82583  -0.82542  -0.80815  -0.80769  -0.80740
 Alpha  occ. eigenvalues --   -0.80704  -0.80688  -0.80655  -0.78793  -0.78726
 Alpha  occ. eigenvalues --   -0.78653  -0.78612  -0.78604  -0.78586  -0.77382
 Alpha  occ. eigenvalues --   -0.77359  -0.77351  -0.77293  -0.77285  -0.77244
 Alpha  occ. eigenvalues --   -0.71392  -0.71244  -0.71217  -0.71194  -0.71158
 Alpha  occ. eigenvalues --   -0.71121  -0.71090  -0.71070  -0.71052  -0.71020
 Alpha  occ. eigenvalues --   -0.70965  -0.70930  -0.70214  -0.70067  -0.69924
 Alpha  occ. eigenvalues --   -0.69921  -0.69890  -0.69769  -0.69711  -0.69576
 Alpha  occ. eigenvalues --   -0.69511  -0.69488  -0.69422  -0.69397  -0.67717
 Alpha  occ. eigenvalues --   -0.67662  -0.67608  -0.67591  -0.67545  -0.67512
 Alpha  occ. eigenvalues --   -0.64931  -0.64841  -0.64759  -0.64742  -0.64736
 Alpha  occ. eigenvalues --   -0.64710  -0.63714  -0.63660  -0.63507  -0.63488
 Alpha  occ. eigenvalues --   -0.63466  -0.63461  -0.62830  -0.62778  -0.62759
 Alpha  occ. eigenvalues --   -0.62746  -0.62738  -0.62711  -0.60615  -0.60205
 Alpha  occ. eigenvalues --   -0.60131  -0.59689  -0.59663  -0.59607  -0.59111
 Alpha  occ. eigenvalues --   -0.59082  -0.58758  -0.58658  -0.58614  -0.58512
 Alpha  occ. eigenvalues --   -0.57645  -0.57501  -0.57480  -0.57304  -0.57182
 Alpha  occ. eigenvalues --   -0.57119  -0.56971  -0.56853  -0.56811  -0.56771
 Alpha  occ. eigenvalues --   -0.56744  -0.56710  -0.55188  -0.55154  -0.55133
 Alpha  occ. eigenvalues --   -0.55113  -0.55076  -0.55061  -0.54694  -0.54249
 Alpha  occ. eigenvalues --   -0.54210  -0.53940  -0.53925  -0.53746  -0.53413
 Alpha  occ. eigenvalues --   -0.53312  -0.53267  -0.53131  -0.53035  -0.52651
 Alpha  occ. eigenvalues --   -0.51948  -0.51847  -0.51818  -0.51770  -0.51685
 Alpha  occ. eigenvalues --   -0.51551  -0.51513  -0.51480  -0.51471  -0.51442
 Alpha  occ. eigenvalues --   -0.51400  -0.51380  -0.51372  -0.51313  -0.51306
 Alpha  occ. eigenvalues --   -0.51260  -0.51175  -0.51162  -0.50936  -0.50844
 Alpha  occ. eigenvalues --   -0.50603  -0.50600  -0.50376  -0.50343  -0.50098
 Alpha  occ. eigenvalues --   -0.49957  -0.49923  -0.49151  -0.49099  -0.49032
 Alpha  occ. eigenvalues --   -0.48917  -0.48886  -0.48862  -0.48840  -0.48835
 Alpha  occ. eigenvalues --   -0.48749  -0.48702  -0.48690  -0.48647  -0.48628
 Alpha  occ. eigenvalues --   -0.48581  -0.48512  -0.48490  -0.48305  -0.48249
 Alpha  occ. eigenvalues --   -0.48219  -0.48103  -0.48071  -0.47986  -0.47912
 Alpha  occ. eigenvalues --   -0.47832  -0.47728  -0.47681  -0.47641  -0.47577
 Alpha  occ. eigenvalues --   -0.47566  -0.47467  -0.47418  -0.47322  -0.47251
 Alpha  occ. eigenvalues --   -0.46963  -0.46909  -0.46693  -0.46621  -0.46523
 Alpha  occ. eigenvalues --   -0.46465  -0.46449  -0.46376  -0.46369  -0.46224
 Alpha  occ. eigenvalues --   -0.46105  -0.46056  -0.45987  -0.45587  -0.45550
 Alpha  occ. eigenvalues --   -0.45160  -0.45107  -0.44798  -0.43879  -0.43782
 Alpha  occ. eigenvalues --   -0.43765  -0.43589  -0.43572  -0.43475  -0.42654
 Alpha  occ. eigenvalues --   -0.42644  -0.42549  -0.42465  -0.42432  -0.42406
 Alpha  occ. eigenvalues --   -0.42339  -0.42300  -0.42186  -0.42154  -0.42129
 Alpha  occ. eigenvalues --   -0.42084  -0.42057  -0.41907  -0.41870  -0.41794
 Alpha  occ. eigenvalues --   -0.41739  -0.41721  -0.41514  -0.41329  -0.41201
 Alpha  occ. eigenvalues --   -0.41101  -0.41062  -0.41024  -0.40956  -0.40856
 Alpha  occ. eigenvalues --   -0.40752  -0.40701  -0.40650  -0.40562  -0.40515
 Alpha  occ. eigenvalues --   -0.40460  -0.40407  -0.40377  -0.40301  -0.40186
 Alpha  occ. eigenvalues --   -0.39002  -0.38960  -0.38900  -0.38869  -0.38855
 Alpha  occ. eigenvalues --   -0.38761  -0.38462  -0.38415  -0.38313  -0.37514
 Alpha  occ. eigenvalues --   -0.37420  -0.37394  -0.37372  -0.37347  -0.37333
 Alpha  occ. eigenvalues --   -0.37060  -0.37012  -0.36891  -0.36789  -0.36753
 Alpha  occ. eigenvalues --   -0.36728  -0.36070  -0.35889  -0.35852  -0.35802
 Alpha  occ. eigenvalues --   -0.35733  -0.35635  -0.35379  -0.35288  -0.35236
 Alpha  occ. eigenvalues --   -0.33915  -0.33684  -0.33607  -0.33585  -0.33396
 Alpha  occ. eigenvalues --   -0.33361  -0.33255  -0.33061  -0.32832  -0.32577
 Alpha  occ. eigenvalues --   -0.32491  -0.32458  -0.32382  -0.32329  -0.32320
 Alpha  occ. eigenvalues --   -0.32233  -0.32172  -0.32093  -0.32025  -0.31957
 Alpha  occ. eigenvalues --   -0.31810  -0.31748  -0.31657  -0.31614  -0.31576
 Alpha  occ. eigenvalues --   -0.31524  -0.31477  -0.29457  -0.29450  -0.29428
 Alpha  occ. eigenvalues --   -0.29384  -0.29231  -0.29211  -0.29073  -0.29037
 Alpha  occ. eigenvalues --   -0.28989  -0.26451  -0.26445  -0.26437  -0.26412
 Alpha  occ. eigenvalues --   -0.26396  -0.26378  -0.26365  -0.26356  -0.26329
 Alpha  occ. eigenvalues --   -0.26312  -0.26279  -0.26250
 Alpha virt. eigenvalues --   -0.10141  -0.09913  -0.09636  -0.09503  -0.09246
 Alpha virt. eigenvalues --   -0.09076  -0.08899  -0.08838  -0.08753  -0.08667
 Alpha virt. eigenvalues --   -0.08383  -0.08319  -0.07433  -0.07354  -0.07291
 Alpha virt. eigenvalues --   -0.06766  -0.06669  -0.06586  -0.06579  -0.06573
 Alpha virt. eigenvalues --   -0.06515  -0.05858  -0.05748  -0.05641  -0.05489
 Alpha virt. eigenvalues --   -0.05364  -0.05169  -0.05000  -0.04895  -0.04707
 Alpha virt. eigenvalues --   -0.04583  -0.04413  -0.04383  -0.01841  -0.01814
 Alpha virt. eigenvalues --   -0.01781  -0.01746  -0.01652  -0.01513  -0.00603
 Alpha virt. eigenvalues --   -0.00557  -0.00549  -0.00499  -0.00375  -0.00272
 Alpha virt. eigenvalues --    0.00633   0.00765   0.00834   0.01021   0.01095
 Alpha virt. eigenvalues --    0.01152   0.01207   0.01306   0.01352   0.02249
 Alpha virt. eigenvalues --    0.02512   0.02637   0.04656   0.04805   0.05338
 Alpha virt. eigenvalues --    0.05447   0.05488   0.05539   0.06354   0.06638
 Alpha virt. eigenvalues --    0.06820   0.07064   0.07273   0.07348   0.07636
 Alpha virt. eigenvalues --    0.07697   0.07742   0.07797   0.07821   0.07910
 Alpha virt. eigenvalues --    0.08006   0.08061   0.08157   0.08174   0.08212
 Alpha virt. eigenvalues --    0.08265   0.08490   0.08569   0.08736   0.08842
 Alpha virt. eigenvalues --    0.09067   0.09090   0.09275   0.09286   0.09430
 Alpha virt. eigenvalues --    0.09469   0.09585   0.09614   0.09678   0.09755
 Alpha virt. eigenvalues --    0.09808   0.09958   0.10005   0.10173   0.10205
 Alpha virt. eigenvalues --    0.10251   0.10394   0.10543   0.10592   0.10647
 Alpha virt. eigenvalues --    0.10681   0.10769   0.10853   0.10919   0.10953
 Alpha virt. eigenvalues --    0.11194   0.11327   0.11777   0.12180   0.12334
 Alpha virt. eigenvalues --    0.12487   0.12531   0.12568   0.12744   0.12992
 Alpha virt. eigenvalues --    0.13116   0.13219   0.13422   0.13430   0.13457
 Alpha virt. eigenvalues --    0.13471   0.13574   0.13668   0.13749   0.13804
 Alpha virt. eigenvalues --    0.13904   0.13935   0.14013   0.14094   0.14241
 Alpha virt. eigenvalues --    0.14312   0.14359   0.14387   0.14504   0.14687
 Alpha virt. eigenvalues --    0.14765   0.14898   0.14941   0.15001   0.15080
 Alpha virt. eigenvalues --    0.15304   0.15473   0.15509   0.15626   0.15754
 Alpha virt. eigenvalues --    0.15987   0.16213   0.16264   0.16400   0.16440
 Alpha virt. eigenvalues --    0.16551   0.16684   0.16701   0.16815   0.16833
 Alpha virt. eigenvalues --    0.16891   0.16955   0.17114   0.17141   0.17274
 Alpha virt. eigenvalues --    0.17364   0.17404   0.17533   0.17701   0.17785
 Alpha virt. eigenvalues --    0.18003   0.18449   0.18544   0.18610   0.18718
 Alpha virt. eigenvalues --    0.18846   0.19050   0.19148   0.19269   0.19326
 Alpha virt. eigenvalues --    0.19775   0.19894   0.19981   0.20068   0.20185
 Alpha virt. eigenvalues --    0.20245   0.20500   0.20558   0.20693   0.20977
 Alpha virt. eigenvalues --    0.21061   0.21069   0.21435   0.21761   0.21855
 Alpha virt. eigenvalues --    0.21962   0.22140   0.22320   0.22606   0.22716
 Alpha virt. eigenvalues --    0.23018   0.23130   0.23246   0.23343   0.23424
 Alpha virt. eigenvalues --    0.23496   0.23524   0.23687   0.23801   0.23922
 Alpha virt. eigenvalues --    0.23947   0.24069   0.24082   0.24140   0.24190
 Alpha virt. eigenvalues --    0.24257   0.24337   0.24442   0.24519   0.24570
 Alpha virt. eigenvalues --    0.24607   0.24731   0.25380   0.25532   0.25570
 Alpha virt. eigenvalues --    0.25660   0.25760   0.25802   0.25924   0.26035
 Alpha virt. eigenvalues --    0.26168   0.26245   0.26398   0.26441   0.26474
 Alpha virt. eigenvalues --    0.26674   0.26723   0.26832   0.26868   0.26932
 Alpha virt. eigenvalues --    0.26984   0.27069   0.27099   0.27348   0.27474
 Alpha virt. eigenvalues --    0.27511   0.27532   0.27706   0.27818   0.27910
 Alpha virt. eigenvalues --    0.28001   0.28045   0.28063   0.28201   0.28406
 Alpha virt. eigenvalues --    0.28545   0.28604   0.28667   0.28763   0.28912
 Alpha virt. eigenvalues --    0.28995   0.29051   0.29217   0.29261   0.29443
 Alpha virt. eigenvalues --    0.29578   0.29642   0.29737   0.29787   0.29894
 Alpha virt. eigenvalues --    0.30019   0.30105   0.30158   0.30249   0.30366
 Alpha virt. eigenvalues --    0.30539   0.30841   0.30889   0.31113   0.31160
 Alpha virt. eigenvalues --    0.31220   0.31302   0.31445   0.31626   0.31671
 Alpha virt. eigenvalues --    0.31827   0.31884   0.31993   0.32164   0.32274
 Alpha virt. eigenvalues --    0.32290   0.32334   0.32453   0.32482   0.32605
 Alpha virt. eigenvalues --    0.32891   0.33016   0.33046   0.33206   0.33445
 Alpha virt. eigenvalues --    0.33475   0.33523   0.33709   0.33745   0.33809
 Alpha virt. eigenvalues --    0.33895   0.33978   0.34052   0.34121   0.34420
 Alpha virt. eigenvalues --    0.34476   0.34557   0.34671   0.34716   0.34828
 Alpha virt. eigenvalues --    0.35050   0.35261   0.35336   0.35560   0.35864
 Alpha virt. eigenvalues --    0.35964   0.36026   0.36152   0.36167   0.36238
 Alpha virt. eigenvalues --    0.36267   0.36311   0.36330   0.36477   0.36525
 Alpha virt. eigenvalues --    0.36687   0.36905   0.36955   0.37068   0.37196
 Alpha virt. eigenvalues --    0.37283   0.37356   0.37527   0.37751   0.38048
 Alpha virt. eigenvalues --    0.38078   0.38180   0.38295   0.38531   0.38577
 Alpha virt. eigenvalues --    0.38640   0.38697   0.38742   0.38907   0.39041
 Alpha virt. eigenvalues --    0.39087   0.39098   0.39355   0.39590   0.39621
 Alpha virt. eigenvalues --    0.39745   0.39836   0.40077   0.40083   0.40146
 Alpha virt. eigenvalues --    0.40198   0.40279   0.40306   0.40381   0.40461
 Alpha virt. eigenvalues --    0.40516   0.40566   0.40689   0.40713   0.40972
 Alpha virt. eigenvalues --    0.41197   0.41269   0.41379   0.41427   0.41674
 Alpha virt. eigenvalues --    0.41737   0.41912   0.42008   0.42206   0.42227
 Alpha virt. eigenvalues --    0.42367   0.42753   0.42840   0.43009   0.43065
 Alpha virt. eigenvalues --    0.43123   0.43160   0.43244   0.43313   0.43452
 Alpha virt. eigenvalues --    0.43533   0.43577   0.43670   0.43794   0.43906
 Alpha virt. eigenvalues --    0.44110   0.44205   0.44323   0.44385   0.44482
 Alpha virt. eigenvalues --    0.44552   0.44603   0.44766   0.44855   0.45017
 Alpha virt. eigenvalues --    0.45119   0.45156   0.45332   0.45384   0.45495
 Alpha virt. eigenvalues --    0.45584   0.45612   0.45711   0.45890   0.46041
 Alpha virt. eigenvalues --    0.46153   0.46206   0.46269   0.46332   0.46469
 Alpha virt. eigenvalues --    0.46568   0.46616   0.46637   0.46797   0.46812
 Alpha virt. eigenvalues --    0.46957   0.46980   0.47096   0.47119   0.47320
 Alpha virt. eigenvalues --    0.47424   0.47526   0.47638   0.47708   0.47971
 Alpha virt. eigenvalues --    0.48068   0.48224   0.48498   0.48537   0.48855
 Alpha virt. eigenvalues --    0.48884   0.48912   0.49047   0.49143   0.49374
 Alpha virt. eigenvalues --    0.49471   0.49648   0.49704   0.49836   0.49940
 Alpha virt. eigenvalues --    0.50084   0.50116   0.50143   0.50281   0.50350
 Alpha virt. eigenvalues --    0.50432   0.50782   0.50793   0.50882   0.51036
 Alpha virt. eigenvalues --    0.51104   0.51137   0.51198   0.51317   0.51343
 Alpha virt. eigenvalues --    0.51560   0.51698   0.51768   0.51849   0.51910
 Alpha virt. eigenvalues --    0.51967   0.52041   0.52171   0.52189   0.52287
 Alpha virt. eigenvalues --    0.52352   0.52402   0.52470   0.52531   0.52568
 Alpha virt. eigenvalues --    0.52747   0.52782   0.52946   0.53020   0.53266
 Alpha virt. eigenvalues --    0.53297   0.53368   0.53583   0.53650   0.53747
 Alpha virt. eigenvalues --    0.53921   0.54078   0.54239   0.54377   0.54479
 Alpha virt. eigenvalues --    0.54695   0.54790   0.54998   0.55147   0.55162
 Alpha virt. eigenvalues --    0.55317   0.55451   0.55612   0.55752   0.55811
 Alpha virt. eigenvalues --    0.55986   0.56030   0.56093   0.56210   0.56248
 Alpha virt. eigenvalues --    0.56413   0.56604   0.56645   0.56680   0.56762
 Alpha virt. eigenvalues --    0.56850   0.56951   0.57051   0.57115   0.57348
 Alpha virt. eigenvalues --    0.57401   0.57533   0.57650   0.57681   0.57924
 Alpha virt. eigenvalues --    0.58146   0.58237   0.58385   0.58666   0.58774
 Alpha virt. eigenvalues --    0.58822   0.58966   0.59088   0.59119   0.59215
 Alpha virt. eigenvalues --    0.59388   0.59428   0.59572   0.59769   0.59933
 Alpha virt. eigenvalues --    0.59968   0.60057   0.60188   0.60296   0.60385
 Alpha virt. eigenvalues --    0.60444   0.60570   0.60704   0.60762   0.60837
 Alpha virt. eigenvalues --    0.60893   0.61064   0.61194   0.61250   0.61383
 Alpha virt. eigenvalues --    0.61560   0.61623   0.61642   0.61646   0.61853
 Alpha virt. eigenvalues --    0.61982   0.62024   0.62067   0.62099   0.62244
 Alpha virt. eigenvalues --    0.62299   0.62404   0.62598   0.62637   0.62746
 Alpha virt. eigenvalues --    0.62795   0.62839   0.62880   0.63007   0.63024
 Alpha virt. eigenvalues --    0.63197   0.63220   0.63300   0.63441   0.63518
 Alpha virt. eigenvalues --    0.63621   0.63662   0.63742   0.63821   0.63912
 Alpha virt. eigenvalues --    0.63996   0.64147   0.64312   0.64351   0.64375
 Alpha virt. eigenvalues --    0.64525   0.64560   0.64601   0.64685   0.64752
 Alpha virt. eigenvalues --    0.64890   0.65019   0.65059   0.65125   0.65225
 Alpha virt. eigenvalues --    0.65267   0.65383   0.65408   0.65450   0.65581
 Alpha virt. eigenvalues --    0.65599   0.65737   0.65769   0.66001   0.66053
 Alpha virt. eigenvalues --    0.66089   0.66163   0.66262   0.66289   0.66438
 Alpha virt. eigenvalues --    0.66480   0.66588   0.66680   0.66731   0.66800
 Alpha virt. eigenvalues --    0.66849   0.66946   0.67011   0.67072   0.67298
 Alpha virt. eigenvalues --    0.67359   0.67414   0.67438   0.67574   0.67612
 Alpha virt. eigenvalues --    0.67660   0.67725   0.67792   0.67876   0.67967
 Alpha virt. eigenvalues --    0.68066   0.68155   0.68173   0.68202   0.68296
 Alpha virt. eigenvalues --    0.68371   0.68500   0.68518   0.68612   0.68726
 Alpha virt. eigenvalues --    0.68768   0.68785   0.68871   0.68994   0.69025
 Alpha virt. eigenvalues --    0.69090   0.69175   0.69309   0.69348   0.69367
 Alpha virt. eigenvalues --    0.69430   0.69478   0.69616   0.69711   0.69761
 Alpha virt. eigenvalues --    0.69797   0.69943   0.69982   0.70107   0.70167
 Alpha virt. eigenvalues --    0.70205   0.70323   0.70372   0.70464   0.70476
 Alpha virt. eigenvalues --    0.70621   0.70746   0.70840   0.70901   0.71083
 Alpha virt. eigenvalues --    0.71148   0.71209   0.71273   0.71379   0.71502
 Alpha virt. eigenvalues --    0.71549   0.71636   0.71654   0.71833   0.71904
 Alpha virt. eigenvalues --    0.72020   0.72162   0.72282   0.72422   0.72465
 Alpha virt. eigenvalues --    0.72512   0.72582   0.72801   0.73003   0.73107
 Alpha virt. eigenvalues --    0.73220   0.73345   0.73422   0.73545   0.73674
 Alpha virt. eigenvalues --    0.73886   0.74086   0.74159   0.74214   0.74354
 Alpha virt. eigenvalues --    0.74474   0.74653   0.74689   0.74751   0.74892
 Alpha virt. eigenvalues --    0.75019   0.75048   0.75110   0.75312   0.75375
 Alpha virt. eigenvalues --    0.75404   0.75554   0.75652   0.75734   0.75790
 Alpha virt. eigenvalues --    0.75949   0.76045   0.76071   0.76079   0.76171
 Alpha virt. eigenvalues --    0.76407   0.76594   0.76620   0.76653   0.76765
 Alpha virt. eigenvalues --    0.76963   0.77023   0.77155   0.77225   0.77313
 Alpha virt. eigenvalues --    0.77389   0.77741   0.77823   0.77889   0.77968
 Alpha virt. eigenvalues --    0.78087   0.78280   0.78354   0.78395   0.78473
 Alpha virt. eigenvalues --    0.78539   0.78667   0.78829   0.78895   0.79049
 Alpha virt. eigenvalues --    0.79341   0.79349   0.79398   0.79615   0.79683
 Alpha virt. eigenvalues --    0.79795   0.79886   0.79990   0.80042   0.80187
 Alpha virt. eigenvalues --    0.80215   0.80317   0.80376   0.80524   0.80577
 Alpha virt. eigenvalues --    0.80685   0.80708   0.81011   0.81089   0.81213
 Alpha virt. eigenvalues --    0.81353   0.81521   0.81570   0.81728   0.81939
 Alpha virt. eigenvalues --    0.82021   0.82198   0.82346   0.82410   0.82674
 Alpha virt. eigenvalues --    0.82850   0.82905   0.83175   0.83325   0.83498
 Alpha virt. eigenvalues --    0.83779   0.83791   0.83963   0.84223   0.84334
 Alpha virt. eigenvalues --    0.84395   0.84498   0.84798   0.84994   0.85065
 Alpha virt. eigenvalues --    0.85148   0.85254   0.85793   0.86008   0.86149
 Alpha virt. eigenvalues --    0.86282   0.86472   0.86625   0.86840   0.87167
 Alpha virt. eigenvalues --    0.87294   0.87399   0.87608   0.87633   0.88055
 Alpha virt. eigenvalues --    0.88317   0.88573   0.88824   0.88923   0.89098
 Alpha virt. eigenvalues --    0.89179   0.89231   0.89626   0.89687   0.89873
 Alpha virt. eigenvalues --    0.90058   0.90240   0.90393   0.90470   0.90764
 Alpha virt. eigenvalues --    0.90848   0.91177   0.91246   0.91378   0.91592
 Alpha virt. eigenvalues --    0.91987   0.92164   0.92283   0.92432   0.92499
 Alpha virt. eigenvalues --    0.92680   0.92727   0.92909   0.92984   0.93025
 Alpha virt. eigenvalues --    0.93204   0.93509   0.93592   0.93701   0.93859
 Alpha virt. eigenvalues --    0.94314   0.94472   0.94623   0.94745   0.94892
 Alpha virt. eigenvalues --    0.95498   0.95811   0.96074   0.96496   0.96665
 Alpha virt. eigenvalues --    0.96828   0.97074   0.97228   0.97283   0.97530
 Alpha virt. eigenvalues --    0.97781   0.97976   0.98284   0.98616   0.98668
 Alpha virt. eigenvalues --    0.98723   0.99010   0.99034   0.99273   0.99493
 Alpha virt. eigenvalues --    0.99680   1.00007   1.00298   1.00557   1.00787
 Alpha virt. eigenvalues --    1.01247   1.01484   1.01622   1.01729   1.01978
 Alpha virt. eigenvalues --    1.02133   1.02377   1.02504   1.02627   1.02930
 Alpha virt. eigenvalues --    1.02992   1.03098   1.03342   1.03386   1.03450
 Alpha virt. eigenvalues --    1.03590   1.03786   1.04064   1.04141   1.04304
 Alpha virt. eigenvalues --    1.04348   1.04400   1.04674   1.04817   1.04825
 Alpha virt. eigenvalues --    1.05205   1.05357   1.05529   1.05734   1.05818
 Alpha virt. eigenvalues --    1.05949   1.06353   1.06386   1.06733   1.07340
 Alpha virt. eigenvalues --    1.07644   1.07876   1.08036   1.08274   1.08536
 Alpha virt. eigenvalues --    1.08830   1.09027   1.09317   1.09336   1.09582
 Alpha virt. eigenvalues --    1.09721   1.09864   1.10129   1.10369   1.10561
 Alpha virt. eigenvalues --    1.10938   1.11393   1.11806   1.11887   1.12122
 Alpha virt. eigenvalues --    1.12177   1.12325   1.12408   1.12437   1.12814
 Alpha virt. eigenvalues --    1.13056   1.13485   1.13681   1.13765   1.13968
 Alpha virt. eigenvalues --    1.14031   1.14322   1.14682   1.15158   1.15453
 Alpha virt. eigenvalues --    1.15556   1.15980   1.16284   1.16641   1.16878
 Alpha virt. eigenvalues --    1.16963   1.17335   1.17368   1.17460   1.17815
 Alpha virt. eigenvalues --    1.17897   1.18015   1.18207   1.18282   1.18522
 Alpha virt. eigenvalues --    1.18724   1.18869   1.19196   1.19408   1.19577
 Alpha virt. eigenvalues --    1.19638   1.19939   1.20053   1.20302   1.20389
 Alpha virt. eigenvalues --    1.20562   1.20727   1.20854   1.20965   1.20988
 Alpha virt. eigenvalues --    1.21107   1.21282   1.21338   1.21412   1.21471
 Alpha virt. eigenvalues --    1.21591   1.21682   1.21873   1.21907   1.21984
 Alpha virt. eigenvalues --    1.22091   1.22168   1.22244   1.22300   1.22445
 Alpha virt. eigenvalues --    1.22463   1.22513   1.22545   1.22565   1.22604
 Alpha virt. eigenvalues --    1.22638   1.22715   1.22774   1.22831   1.22860
 Alpha virt. eigenvalues --    1.22957   1.22984   1.22992   1.23073   1.23129
 Alpha virt. eigenvalues --    1.23152   1.23273   1.23350   1.23372   1.23420
 Alpha virt. eigenvalues --    1.23620   1.23743   1.23866   1.24092   1.24352
 Alpha virt. eigenvalues --    1.24408   1.24558   1.24710   1.24798   1.24898
 Alpha virt. eigenvalues --    1.25053   1.25068   1.25152   1.25259   1.25413
 Alpha virt. eigenvalues --    1.25492   1.25770   1.25871   1.25917   1.26451
 Alpha virt. eigenvalues --    1.26557   1.26817   1.26946   1.27006   1.27305
 Alpha virt. eigenvalues --    1.27351   1.27499   1.27723   1.27838   1.27920
 Alpha virt. eigenvalues --    1.28025   1.28235   1.28275   1.28449   1.28513
 Alpha virt. eigenvalues --    1.28604   1.28740   1.28843   1.28966   1.29129
 Alpha virt. eigenvalues --    1.29208   1.29335   1.29396   1.29413   1.29597
[...]
 Alpha virt. eigenvalues --    2.90660   2.90738   2.90846   2.90886   2.90960
 Alpha virt. eigenvalues --    2.91139   2.91213   2.91275   2.91292   2.91321
 Alpha virt. eigenvalues --    2.91350   2.91468   2.92574   2.92607   2.92851
 Alpha virt. eigenvalues --    2.93375   2.93425   2.93859   2.93915   2.93980
 Alpha virt. eigenvalues --    2.94254   2.94528   2.94783   2.94800   2.94861
 Alpha virt. eigenvalues --    2.94883   2.94895   2.94942   2.95080   2.95400
 Alpha virt. eigenvalues --    2.95526   2.96116   2.96174   2.96791   2.96884
 Alpha virt. eigenvalues --    2.97413   2.98599   2.98885   2.99976   3.01378
 Alpha virt. eigenvalues --    3.01667   3.02055   3.02387   3.02540   3.02669
 Alpha virt. eigenvalues --    3.03670   3.03758   3.03869   3.04132   3.04274
 Alpha virt. eigenvalues --    3.04386   3.05049   3.05225   3.05400   3.05529
 Alpha virt. eigenvalues --    3.05569   3.05733   3.05915   3.05996   3.06118
 Alpha virt. eigenvalues --    3.06255   3.06286   3.06541   3.07276   3.07617
 Alpha virt. eigenvalues --    3.07791   3.08112   3.08328   3.08495   3.08577
 Alpha virt. eigenvalues --    3.08728   3.08815   3.09136   3.09234   3.09438
 Alpha virt. eigenvalues --    3.15374   3.15519   3.15539   3.15832   3.16015
 Alpha virt. eigenvalues --    3.16032   3.16320   3.16338   3.16359   3.16408
 Alpha virt. eigenvalues --    3.16471   3.16625   3.18341   3.18449   3.18482
 Alpha virt. eigenvalues --    3.18604   3.18684   3.18708   3.27862   3.28286
 Alpha virt. eigenvalues --    3.28666   3.28722   3.29019   3.29337   3.29712
 Alpha virt. eigenvalues --    3.30019   3.30047   3.30275   3.30798   3.30967
 Alpha virt. eigenvalues --    3.36579   3.36610   3.36692   3.36754   3.37492
 Alpha virt. eigenvalues --    3.37615   3.39108   3.39405   3.39556   3.39751
 Alpha virt. eigenvalues --    3.40376   3.40388   3.44081   3.44136   3.44295
 Alpha virt. eigenvalues --    3.44417   3.44612   3.44691   3.49229   3.49279
 Alpha virt. eigenvalues --    3.49462   3.49525   3.49742   3.49784   3.60538
 Alpha virt. eigenvalues --    3.60624   3.60860   3.60897   3.60971   3.61229
 Alpha virt. eigenvalues --    3.62525   3.62707   3.62736   3.62799   3.63091
 Alpha virt. eigenvalues --    3.63252   3.79071   3.79096   3.79111   3.79134
 Alpha virt. eigenvalues --    3.79248   3.79282  51.60321  51.61318  51.62568
          Condensed to atoms (all electrons):
 Mulliken charges:
               1
     1  Pd   0.510432
     2  Pd   0.512106
     3  Pd   0.510489
     4  C    0.136016
     5  N   -0.311945
     6  C    0.142309
     7  C   -0.016322
     8  C    0.034704
     9  C   -0.001140
    10  C   -0.016135
    11  C   -0.077987
    12  C    0.211423
    13  O   -0.268237
    14  C    0.212307
    15  C   -0.076051
    16  C   -0.027306
    17  C    0.024312
    18  C    0.070148
    19  C   -0.053925
    20  C    0.137657
    21  N   -0.335518
    22  C    0.155180
    23  C   -0.048110
    24  C   -0.058224
    25  C    0.016953
    26  C    0.018812
    27  C   -0.045527
    28  C   -0.035004
    29  H    0.079231
    30  H    0.109332
    31  H    0.067512
    32  H    0.051322
    33  H    0.049277
    34  H    0.049067
    35  H    0.051990
    36  H    0.064506
    37  H    0.109952
    38  H    0.104461
    39  H    0.067515
    40  H    0.039998
    41  H    0.041972
    42  H    0.068034
    43  C    0.138805
    44  N   -0.335505
    45  C    0.153648
    46  C   -0.053553
    47  C    0.075069
    48  C    0.030227
    49  C   -0.032228
    50  C   -0.074061
    51  C    0.210783
    52  O   -0.266896
    53  C    0.209569
    54  C   -0.076301
    55  C   -0.018424
    56  C    0.002060
    57  C    0.032304
    58  C   -0.033582
    59  C    0.132706
    60  N   -0.315316
    61  C    0.138039
    62  C   -0.015567
    63  C   -0.045019
    64  C    0.019138
    65  C    0.017397
    66  C   -0.058599
    67  C   -0.056228
    68  H    0.112760
    69  H    0.103278
    70  H    0.067508
    71  H    0.052219
    72  H    0.049061
    73  H    0.049461
    74  H    0.052075
    75  H    0.068227
    76  H    0.082931
    77  H    0.110508
    78  H    0.068218
    79  H    0.042261
    80  H    0.039630
    81  H    0.063584
    82  C    0.132716
    83  N   -0.326755
    84  C    0.147999
    85  C   -0.044069
    86  C    0.066551
    87  C    0.028876
    88  C   -0.027411
    89  C   -0.078973
    90  C    0.218127
    91  O   -0.270576
    92  C    0.218243
    93  C   -0.078375
    94  C   -0.029265
    95  C    0.030057
    96  C    0.074540
    97  C   -0.057847
    98  C    0.146469
    99  N   -0.336652
   100  C    0.154522
   101  C   -0.048457
   102  C   -0.063063
   103  C    0.017314
   104  C    0.017546
   105  C   -0.063934
   106  C   -0.055060
   107  H    0.108881
   108  H    0.099201
   109  H    0.067701
   110  H    0.052314
   111  H    0.049648
   112  H    0.049574
   113  H    0.052410
   114  H    0.064921
   115  H    0.097502
   116  H    0.105018
   117  H    0.066982
   118  H    0.040780
   119  H    0.041729
   120  H    0.067807
   121  C    0.149571
   122  N   -0.323296
   123  C    0.154671
   124  C   -0.054763
   125  C    0.070551
   126  C    0.032636
   127  C   -0.039826
   128  C   -0.069908
   129  C    0.205717
   130  O   -0.263292
   131  C    0.204983
   132  C   -0.074042
   133  C   -0.017884
   134  C    0.004248
   135  C    0.026656
   136  C   -0.030256
   137  C    0.131471
   138  N   -0.317686
   139  C    0.132041
   140  C   -0.013910
   141  C   -0.045223
   142  C    0.020279
   143  C    0.018193
   144  C   -0.052100
   145  C   -0.060475
   146  H    0.105212
   147  H    0.100036
   148  H    0.067254
   149  H    0.053507
   150  H    0.048719
   151  H    0.049330
   152  H    0.052329
   153  H    0.068315
   154  H    0.086387
   155  H    0.112256
   156  H    0.069006
   157  H    0.041880
   158  H    0.038000
   159  H    0.065268
   160  C    0.137750
   161  N   -0.326110
   162  C    0.148868
   163  C   -0.036490
   164  C    0.054334
   165  C    0.013574
   166  C   -0.026713
   167  C   -0.072598
   168  C    0.205665
   169  O   -0.263307
   170  C    0.205910
   171  C   -0.071228
   172  C   -0.033320
   173  C    0.023256
   174  C    0.062148
   175  C   -0.053240
   176  C    0.142930
   177  N   -0.324828
   178  C    0.152104
   179  C   -0.045909
   180  C   -0.050310
   181  C    0.018319
   182  C    0.018251
   183  C   -0.047067
   184  C   -0.046257
   185  H    0.108879
   186  H    0.105198
   187  H    0.067862
   188  H    0.052683
   189  H    0.049045
   190  H    0.048921
   191  H    0.053274
   192  H    0.065718
   193  H    0.107009
   194  H    0.102880
   195  H    0.067901
   196  H    0.039081
   197  H    0.039797
   198  H    0.066165
   199  C    0.134635
   200  N   -0.332966
   201  C    0.154484
   202  C   -0.059146
   203  C    0.084656
   204  C    0.042853
   205  C   -0.037202
   206  C   -0.074468
   207  C    0.216193
   208  O   -0.268424
   209  C    0.214780
   210  C   -0.075759
   211  C   -0.030178
   212  C    0.032603
   213  C    0.072777
   214  C   -0.058509
   215  C    0.135013
   216  N   -0.328974
   217  C    0.151140
   218  C   -0.049883
   219  C   -0.062139
   220  C    0.018588
   221  C    0.018825
   222  C   -0.065081
   223  C   -0.061825
   224  H    0.108397
   225  H    0.100228
   226  H    0.068364
   227  H    0.052352
   228  H    0.049663
   229  H    0.049871
   230  H    0.052732
   231  H    0.066633
   232  H    0.106940
   233  H    0.100439
   234  H    0.068295
   235  H    0.041142
   236  H    0.039380
   237  H    0.064804
 Sum of Mulliken charges =   6.00000
 Mulliken charges with hydrogens summed into heavy atoms:
               1
     1  Pd   0.510432
     2  Pd   0.512106
     3  Pd   0.510489
     4  C    0.215247
     5  N   -0.311945
     6  C    0.251642
     7  C    0.051190
     8  C    0.034704
     9  C   -0.001140
    10  C    0.035187
    11  C   -0.028710
    12  C    0.211423
    13  O   -0.268237
    14  C    0.212307
    15  C   -0.026983
    16  C    0.024684
    17  C    0.024312
    18  C    0.070148
    19  C    0.010581
    20  C    0.247609
    21  N   -0.335518
    22  C    0.259640
    23  C    0.019405
    24  C   -0.018225
    25  C    0.016953
    26  C    0.018812
    27  C   -0.003555
    28  C    0.033030
    43  C    0.251565
    44  N   -0.335505
    45  C    0.256926
    46  C    0.013955
    47  C    0.075069
    48  C    0.030227
    49  C    0.019991
    50  C   -0.025000
    51  C    0.210783
    52  O   -0.266896
    53  C    0.209569
    54  C   -0.026840
    55  C    0.033651
    56  C    0.002060
    57  C    0.032304
    58  C    0.034645
    59  C    0.215637
    60  N   -0.315316
    61  C    0.248547
    62  C    0.052650
    63  C   -0.002759
    64  C    0.019138
    65  C    0.017397
    66  C   -0.018968
    67  C    0.007356
    82  C    0.241597
    83  N   -0.326755
    84  C    0.247201
    85  C    0.023632
    86  C    0.066551
    87  C    0.028876
    88  C    0.024902
    89  C   -0.029325
    90  C    0.218127
    91  O   -0.270576
    92  C    0.218243
    93  C   -0.028802
    94  C    0.023145
    95  C    0.030057
    96  C    0.074540
    97  C    0.007074
    98  C    0.243971
    99  N   -0.336652
   100  C    0.259540
   101  C    0.018525
   102  C   -0.022283
   103  C    0.017314
   104  C    0.017546
   105  C   -0.022205
   106  C    0.012747
   121  C    0.254783
   122  N   -0.323296
   123  C    0.254708
   124  C    0.012491
   125  C    0.070551
   126  C    0.032636
   127  C    0.013681
   128  C   -0.021188
   129  C    0.205717
   130  O   -0.263292
   131  C    0.204983
   132  C   -0.024713
   133  C    0.034446
   134  C    0.004248
   135  C    0.026656
   136  C    0.038059
   137  C    0.217858
   138  N   -0.317686
   139  C    0.244297
   140  C    0.055096
   141  C   -0.003344
   142  C    0.020279
   143  C    0.018193
   144  C   -0.014100
   145  C    0.004793
   160  C    0.246629
   161  N   -0.326110
   162  C    0.254066
   163  C    0.031372
   164  C    0.054334
   165  C    0.013574
   166  C    0.025970
   167  C   -0.023553
   168  C    0.205665
   169  O   -0.263307
   170  C    0.205910
   171  C   -0.022307
   172  C    0.019955
   173  C    0.023256
   174  C    0.062148
   175  C    0.012479
   176  C    0.249939
   177  N   -0.324828
   178  C    0.254985
   179  C    0.021992
   180  C   -0.011229
   181  C    0.018319
   182  C    0.018251
   183  C   -0.007270
   184  C    0.019908
   199  C    0.243033
   200  N   -0.332966
   201  C    0.254712
   202  C    0.009218
   203  C    0.084656
   204  C    0.042853
   205  C    0.015150
   206  C   -0.024806
   207  C    0.216193
   208  O   -0.268424
   209  C    0.214780
   210  C   -0.025888
   211  C    0.022554
   212  C    0.032603
   213  C    0.072777
   214  C    0.008124
   215  C    0.241953
   216  N   -0.328974
   217  C    0.251579
   218  C    0.018412
   219  C   -0.020997
   220  C    0.018588
   221  C    0.018825
   222  C   -0.025701
   223  C    0.002980
 Electronic spatial extent (au):  <R**2>=         300543.2476
 Charge=              6.0000 electrons
 Dipole moment (field-independent basis, Debye):
    X=             -0.9921    Y=              1.2564    Z=             -0.6272  Tot=              1.7194
 Quadrupole moment (field-independent basis, Debye-Ang):
   XX=            162.2055   YY=             64.8444   ZZ=           -690.2441
   XY=              1.9439   XZ=              1.2334   YZ=              4.1557
 Traceless Quadrupole moment (field-independent basis, Debye-Ang):
   XX=            316.6035   YY=            219.2425   ZZ=           -535.8460
   XY=              1.9439   XZ=              1.2334   YZ=              4.1557
 Octapole moment (field-independent basis, Debye-Ang**2):
  XXX=          -1092.7456  YYY=           -862.3604  ZZZ=             31.3432  XYY=            898.7910
  XXY=           1177.4796  XXZ=            -32.5012  XZZ=            -84.8782  YZZ=              6.9685
  YYZ=            -38.5940  XYZ=             23.2176
 Hexadecapole moment (field-independent basis, Debye-Ang**3):
 XXXX=        -120715.3964 YYYY=        -111378.1455 ZZZZ=         -57243.9380 XXXY=           -421.1572
 XXXZ=           -133.2238 YYYX=            275.5375 YYYZ=          -1941.2542 ZZZX=           -152.8993
 ZZZY=           1461.6675 XXYY=         -38820.0386 XXZZ=         -31466.1640 YYZZ=         -28910.7409
 XXYZ=           -215.6673 YYXZ=            297.3562 ZZXY=            294.6383
 N-N= 3.422914279366D+04 E-N=-8.321675006197D+04  KE= 6.258745957868D+03
 Unable to Open any file for archive entry.
 1\1\GINC-CX3-14-14\SP\RPBE1PBE\def2SVP\C132H84N12O6Pd3(6+)\VPOSLIGU\02
 -Jun-2023\0\\# SP PBE1PBE/def2svp empiricaldispersion=GD3BJ scrf=(solv
 ent=dmso)\\m3_l1\\6,1\Pd,0,1.8156,-7.1076,0.1433\Pd,0,-7.6792,2.108,-0
 .1973\Pd,0,5.6594,5.215,-0.1415\C,0,3.0824,-6.02,2.5289\N,0,3.2169,-7.
 0088,1.6323\C,0,4.413,-7.6058,1.5029\C,0,5.5367,-7.1619,2.1856\C,0,5.4
 418,-6.0317,3.0088\C,0,6.6237,-5.3124,3.5221\C,0,7.7226,-5.9579,4.1259
 \C,0,8.8428,-5.2478,4.5571\C,0,8.8461,-3.8758,4.3351\O,0,9.8563,-3.008
 1,4.6314\C,0,9.4719,-1.7838,4.1739\C,0,10.2125,-0.609,4.2277\C,0,9.649
 3,0.5227,3.6403\C,0,8.3865,0.488,3.0086\C,0,7.8341,1.6554,2.2964\C,0,7
 .0302,1.4531,1.1633\C,0,6.4744,2.5303,0.5071\N,0,6.68,3.7969,0.9049\C,
 0,7.4613,4.0227,1.9712\C,0,8.0536,2.9865,2.6818\C,0,7.6488,-0.7023,3.0
 05\C,0,8.1947,-1.8376,3.5894\C,0,7.7747,-3.213,3.7128\C,0,6.6488,-3.92
 75,3.3221\C,0,4.1592,-5.509,3.2277\H,0,2.0879,-5.5919,2.6563\H,0,4.479
 9,-8.4234,0.7827\H,0,6.4972,-7.643,1.9954\H,0,7.6906,-7.0391,4.2775\H,
 0,9.6849,-5.7489,5.036\H,0,11.2012,-0.5792,4.687\H,0,10.2258,1.45,3.63
 56\H,0,6.8459,0.4537,0.77\H,0,5.8446,2.3798,-0.3719\H,0,7.602,5.0639,2
 .2669\H,0,8.6609,3.2303,3.5544\H,0,6.6567,-0.7453,2.5532\H,0,5.8194,-3
 .4237,2.8221\H,0,4.0012,-4.6748,3.9119\C,0,3.7536,-5.2001,-0.7886\N,0,
 3.2643,-6.4098,-1.1066\C,0,3.7445,-7.0369,-2.1902\C,0,4.7341,-6.4757,-
 2.9868\C,0,5.2641,-5.2151,-2.6699\C,0,6.3272,-4.5513,-3.4481\C,0,7.304
 9,-5.2933,-4.1478\C,0,8.3736,-4.6808,-4.7985\C,0,8.4413,-3.2944,-4.733
 1\O,0,9.4296,-2.5079,-5.2416\C,0,9.125,-1.2225,-4.9031\C,0,9.9035,-0.0
 988,-5.1529\C,0,9.4353,1.1189,-4.6615\C,0,8.2093,1.217,-3.9713\C,0,7.7
 174,2.4758,-3.3791\C,0,6.3574,2.808,-3.4651\C,0,5.8494,3.8237,-2.678\N
 ,0,6.6156,4.5144,-1.818\C,0,7.9422,4.3039,-1.8252\C,0,8.5284,3.3147,-2
 .6024\C,0,7.4363,0.0708,-3.7499\C,0,7.9087,-1.1563,-4.2018\C,0,7.4647,
 -2.5255,-4.0759\C,0,6.4029,-3.1523,-3.4355\C,0,4.7401,-4.5852,-1.5297\
 H,0,3.348,-4.7163,0.1016\H,0,3.3175,-8.0141,-2.4232\H,0,5.0714,-7.0279
 ,-3.8647\H,0,7.2523,-6.3838,-4.1478\H,0,9.138,-5.2651,-5.312\H,0,10.84
 68,-0.1697,-5.6957\H,0,10.0275,2.0208,-4.8313\H,0,5.6806,2.2478,-4.111
 \H,0,4.7847,4.0591,-2.6986\H,0,8.5387,4.9023,-1.1344\H,0,9.6022,3.1413
 ,-2.5172\H,0,6.5043,0.1308,-3.1845\H,0,5.6442,-2.5526,-2.9311\H,0,5.11
 68,-3.6217,-1.1882\C,0,-0.3217,-6.3025,1.8578\N,0,0.2652,-7.4306,1.426
 8\C,0,-0.3131,-8.6072,1.7076\C,0,-1.5304,-8.6902,2.3739\C,0,-2.1908,-7
 .519,2.7732\C,0,-3.5523,-7.4796,3.3393\C,0,-4.092,-8.5003,4.1528\C,0,-
 5.3821,-8.4223,4.6803\C,0,-6.1296,-7.2924,4.3655\O,0,-7.4037,-7.007,4.
 7645\C,0,-7.7333,-5.8048,4.208\C,0,-8.9329,-5.1146,4.3447\C,0,-9.045,-
 3.8943,3.6766\C,0,-7.997,-3.372,2.8864\C,0,-8.0947,-2.0973,2.1511\C,0,
 -7.352,-1.9301,0.9714\C,0,-7.3309,-0.7115,0.3302\N,0,-8.029,0.3472,0.7
 745\C,0,-8.7892,0.2023,1.8709\C,0,-8.8492,-0.9935,2.576\C,0,-6.7975,-4
 .0855,2.7815\C,0,-6.6732,-5.2987,3.4395\C,0,-5.6189,-6.2728,3.5471\C,0
 ,-4.3363,-6.3621,3.0307\C,0,-1.5171,-6.309,2.542\H,0,0.1711,-5.3579,1.
 6201\H,0,0.2014,-9.5052,1.3599\H,0,-1.9766,-9.6736,2.5284\H,0,-3.4787,
 -9.3689,4.4023\H,0,-5.7821,-9.2121,5.3173\H,0,-9.7555,-5.5114,4.9408\H
 ,0,-9.9861,-3.3451,3.751\H,0,-6.7807,-2.7496,0.5372\H,0,-6.7274,-0.575
 7,-0.5678\H,0,-9.3453,1.0806,2.2032\H,0,-9.4571,-1.036,3.4807\H,0,-5.9
 543,-3.6915,2.2132\H,0,-3.9637,-5.5786,2.3702\H,0,-1.9289,-5.3574,2.87
 62\C,0,0.0117,-5.7912,-1.7557\N,0,0.4114,-6.998,-1.3259\C,0,-0.252,-8.
 0866,-1.7434\C,0,-1.3625,-8.0012,-2.5664\C,0,-1.8325,-6.7479,-2.9904\C
 ,0,-3.0686,-6.6066,-3.7846\C,0,-3.5078,-7.6528,-4.6274\C,0,-4.7011,-7.
 5806,-5.3378\C,0,-5.4576,-6.4272,-5.1788\O,0,-6.668,-6.1833,-5.748\C,0
 ,-7.0692,-4.9578,-5.3111\C,0,-8.2745,-4.3393,-5.6175\C,0,-8.5092,-3.09
 3,-5.0423\C,0,-7.5546,-2.4711,-4.2116\C,0,-7.7993,-1.1631,-3.5752\C,0,
 -6.7751,-0.2064,-3.5189\C,0,-6.9205,0.9058,-2.7118\N,0,-8.0149,1.1069,
 -1.959\C,0,-9.0592,0.2748,-2.1063\C,0,-8.9968,-0.8508,-2.916\C,0,-6.34
 4,-3.1159,-3.9245\C,0,-6.1076,-4.3769,-4.4643\C,0,-5.0443,-5.3555,-4.3
 66\C,0,-3.8428,-5.4437,-3.6668\C,0,-1.0865,-5.6306,-2.5819\H,0,0.5882,
 -4.9281,-1.4165\H,0,0.1073,-9.0525,-1.3836\H,0,-1.8815,-8.9222,-2.8325
 \H,0,-2.8902,-8.5455,-4.742\H,0,-5.0315,-8.3935,-5.9852\H,0,-9.0046,-4
 .813,-6.2747\H,0,-9.4461,-2.5762,-5.2612\H,0,-5.8458,-0.343,-4.0728\H,
 0,-6.1124,1.6322,-2.6232\H,0,-9.943,0.4831,-1.5007\H,0,-9.852,-1.5276,
 -2.9463\H,0,-5.6151,-2.6542,-3.2553\H,0,-3.5376,-4.6317,-3.0046\H,0,-1
 .352,-4.6228,-2.9016\C,0,-5.8542,2.5102,2.0116\N,0,-7.0129,2.9769,1.51
 85\C,0,-7.4825,4.1527,1.962\C,0,-6.7746,4.9336,2.8627\C,0,-5.5166,4.50
 94,3.3162\C,0,-4.6417,5.3683,4.1356\C,0,-5.1685,6.2068,5.1415\C,0,-4.3
 555,7.0441,5.8998\C,0,-2.9978,7.0349,5.6079\O,0,-2.0471,7.8001,6.21\C,
 0,-0.8652,7.5105,5.6021\C,0,0.3623,8.0929,5.8893\C,0,1.4477,7.6843,5.1
 208\C,0,1.3212,6.7118,4.1045\C,0,2.4754,6.3303,3.2695\C,0,2.5977,5.032
 6,2.7485\C,0,3.6225,4.7342,1.8698\N,0,4.525,5.6521,1.4885\C,0,4.4698,6
 .8809,2.023\C,0,3.4743,7.2495,2.9138\C,0,0.0724,6.1292,3.8504\C,0,-1.0
 281,6.5373,4.5992\C,0,-2.4409,6.22,4.6054\C,0,-3.2657,5.3723,3.8714\C,
 0,-5.0885,3.2394,2.9016\H,0,-5.5217,1.5322,1.6582\H,0,-8.4342,4.4916,1
 .5488\H,0,-7.1832,5.9026,3.1522\H,0,-6.2403,6.1855,5.3493\H,0,-4.7641,
 7.6819,6.6843\H,0,0.4676,8.8393,6.6773\H,0,2.4276,8.1193,5.3269\H,0,1.
 8937,4.2453,3.0192\H,0,3.7218,3.7348,1.4419\H,0,5.2286,7.5959,1.7006\H
 ,0,3.456,8.2761,3.2813\H,0,-0.0494,5.3968,3.0504\H,0,-2.849,4.7528,3.0
 75\H,0,-4.15,2.8154,3.2598\C,0,-5.635,3.7805,-1.288\N,0,-6.9686,3.7726
 ,-1.1287\C,0,-7.6645,4.8661,-1.4695\C,0,-7.0456,6.0104,-1.9581\C,0,-5.
 6514,6.0466,-2.1208\C,0,-4.9021,7.2224,-2.6048\C,0,-5.5055,8.2484,-3.3
 675\C,0,-4.7776,9.3209,-3.8818\C,0,-3.4122,9.3426,-3.6208\O,0,-2.5032,
 10.2531,-4.073\C,0,-1.2786,9.8407,-3.6344\C,0,-0.0498,10.4298,-3.9095\
 C,0,1.086,9.7916,-3.4113\C,0,1.0079,8.5987,-2.6584\C,0,2.2027,7.8676,-
 2.196\C,0,2.1289,6.4766,-2.0151\C,0,3.2019,5.7872,-1.4938\N,0,4.3576,6
 .3925,-1.1761\C,0,4.4791,7.7098,-1.3928\C,0,3.4321,8.4731,-1.8951\C,0,
 -0.2484,8.0545,-2.3651\C,0,-1.3859,8.6731,-2.8615\C,0,-2.7901,8.3476,-
 2.8497\C,0,-3.5309,7.2976,-2.3299\C,0,-4.9585,4.87,-1.7891\H,0,-5.0914
 ,2.8801,-0.9947\H,0,-8.7465,4.8258,-1.331\H,0,-7.6679,6.8763,-2.1863\H
 ,0,-6.5714,8.1938,-3.5961\H,0,-5.2561,10.0935,-4.4847\H,0,0.0269,11.33
 61,-4.5113\H,0,2.0649,10.2135,-3.6483\H,0,1.2334,5.9148,-2.2771\H,0,3.
 1317,4.7129,-1.3082\H,0,5.4364,8.1658,-1.1327\H,0,3.579,9.5476,-2.0114
 \H,0,-0.3457,7.156,-1.7548\H,0,-3.0322,6.5481,-1.7163\H,0,-3.8819,4.78
 06,-1.9212\\Version=ES64L-G16RevC.01\State=1-A\HF=-6561.0028925\RMSD=1
 .639e-09\Dipole=-0.3903161,0.4943206,-0.246777\Quadrupole=235.3869784,
 163.0014082,-398.3883865,1.4452028,0.917014,3.0896737\PG=C01 [X(C132H8
 4N12O6Pd3)]\\@
 The archive entry for this job was punched.


 SIC AS THE CAWSE OF EWERY THING IS, SIC WILBE THE EFFECT.
 -- PROVERBS AND REASONS OF THE YEAR 1585
           AS REPRINTED IN PAISLEY MAGAZINE 1828.
 Job cpu time:       1 days 13 hours 52 minutes 22.6 seconds.
 Elapsed time:       0 days  0 hours 50 minutes 12.6 seconds.
 File lengths (MBytes):  RWF=   7992 Int=      0 D2E=      0 Chk=    408 Scr=     16
 Normal termination of Gaussian 16 at Fri Jun  2 08:11:46 2023.
