      -----------------------------------------------------------      
     |                   =====================                   |     
     |                           x T B                           |     
     |                   =====================                   |     
     |                         S. Grimme                         |     
     |          Mulliken Center for Theoretical Chemistry        |     
     |                    University of Bonn                     |     
      -----------------------------------------------------------      

   * xtb version 6.4.0 (d4b70c2) compiled by 'ehlert@majestix' on 2021-02-01

   xtb is free software: you can redistribute it and/or modify it under
   the terms of the GNU Lesser General Public License as published by
   the Free Software Foundation, either version 3 of the License, or
   (at your option) any later version.
   
   xtb is distributed in the hope that it will be useful,
   but WITHOUT ANY WARRANTY; without even the implied warranty of
   MERCHANTABILITY or FITNESS FOR A PARTICULAR PURPOSE.  See the
   GNU Lesser General Public License for more details.
   
   Cite this work as:
   * C. Bannwarth, E. Caldeweyher, S. Ehlert, A. Hansen, P. Pracht,
     J. Seibert, S. Spicher, S. Grimme, WIREs Comput. Mol. Sci., 2020,
     e01493. DOI: 10.1002/wcms.1493
   
   for GFN2-xTB:
   * C. Bannwarth, S. Ehlert and S. Grimme., J. Chem. Theory Comput., 2019,
     15, 1652-1671. DOI: 10.1021/acs.jctc.8b01176
   for GFN1-xTB:
   * S. Grimme, C. Bannwarth, P. Shushkov, J. Chem. Theory Comput., 2017,
     13, 1989-2009. DOI: 10.1021/acs.jctc.7b00118
   for GFN0-xTB:
   * P. Pracht, E. Caldeweyher, S. Ehlert, S. Grimme, ChemRxiv, 2019, preprint.
     DOI: 10.26434/chemrxiv.8326202.v1
   for GFN-FF:
   * S. Spicher and S. Grimme, Angew. Chem. Int. Ed., 2020, 59, 15665-15673.
     DOI: 10.1002/anie.202004239
   
   for DFT-D4:
   * E. Caldeweyher, C. Bannwarth and S. Grimme, J. Chem. Phys., 2017,
     147, 034112. DOI: 10.1063/1.4993215
   * E. Caldeweyher, S. Ehlert, A. Hansen, H. Neugebauer, S. Spicher,
     C. Bannwarth and S. Grimme, J. Chem. Phys., 2019, 150, 154122.
     DOI: 10.1063/1.5090222
   * E. Caldeweyher, J.-M. Mewes, S. Ehlert and S. Grimme, Phys. Chem. Chem. Phys.
     2020, 22, 8499-8512. DOI: 10.1039/D0CP00502A
   
   for sTDA-xTB:
   * S. Grimme and C. Bannwarth, J. Chem. Phys., 2016, 145, 054103.
     DOI: 10.1063/1.4959605
   
   in the mass-spec context:
   * V. Asgeirsson, C. Bauer and S. Grimme, Chem. Sci., 2017, 8, 4879.
     DOI: 10.1039/c7sc00601b
   * J. Koopman and S. Grimme, ACS Omega 2019, 4, 12, 15120-15133.
     DOI: 10.1021/acsomega.9b02011
   
   for metadynamics refer to:
   * S. Grimme, J. Chem. Theory Comput., 2019, 155, 2847-2862
     DOI: 10.1021/acs.jctc.9b00143
   
   with help from (in alphabetical order)
   P. Atkinson, C. Bannwarth, F. Bohle, G. Brandenburg, E. Caldeweyher
   M. Checinski, S. Dohm, S. Ehlert, S. Ehrlich, I. Gerasimov, J. Koopman
   C. Lavinge, S. Lehtola, F. März, M. Müller, F. Musil, H. Neugebauer
   J. Pisarek, P. Pracht, J. Seibert, P. Shushkov, S. Spicher, M. Stahn
   T. Strunk, J. Stückrath, T. Rose, and J. Unsleber
   
 * started run on 2021/03/23 at 15:55:30.502     

           -------------------------------------------------
          |                Calculation Setup                |
           -------------------------------------------------

          program call               : /home/atarzia/software/xtb-6.4.0/bin/xtb fe4dd.xyz --opt --charge 4 --uhf 0 -P 4
          coordinate file            : fe4dd.xyz
          omp threads                :                     4
          number of atoms            :                   220
          number of electrons        :                   646
          charge                     :                     4
          spin                       :                   0.0
          first test random number   :      0.68891029598069

   ID    Z sym.   atoms
    1   26 Fe     1, 2
    2    8 O      3, 4, 55, 56
    3    7 N      5-8, 57-60, 107-110
    4    6 C      9-54, 61-106, 111-134
    5    1 H      135-220
########################################################################
[WARNING] Please study the warnings concerning your input carefully
-1- prog_main_parseArguments: Process number higher than OMP_NUM_THREADS, I hope you know what you are doing.
########################################################################

           -------------------------------------------------
          |                 G F N 2 - x T B                 |
           -------------------------------------------------

        Reference                      10.1021/acs.jctc.8b01176
      * Hamiltonian:
        H0-scaling (s, p, d)           1.850000    2.230000    2.230000
        zeta-weighting                 0.500000
      * Dispersion:
        s8                             2.700000
        a1                             0.520000
        a2                             5.000000
        s9                             5.000000
      * Repulsion:
        kExp                           1.500000    1.000000
        rExp                           1.000000
      * Coulomb:
        alpha                          2.000000
        third order                    shell-resolved
        anisotropic                    true
        a3                             3.000000
        a5                             4.000000
        cn-shift                       1.200000
        cn-exp                         4.000000
        max-rad                        5.000000


          ...................................................
          :                      SETUP                      :
          :.................................................:
          :  # basis functions                 634          :
          :  # atomic orbitals                 632          :
          :  # shells                          356          :
          :  # electrons                       646          :
          :  max. iterations                   250          :
          :  Hamiltonian                  GFN2-xTB          :
          :  restarted?                      false          :
          :  GBSA solvation                  false          :
          :  PC potential                    false          :
          :  electronic temp.          300.0000000     K    :
          :  accuracy                    1.0000000          :
          :  -> integral cutoff          0.2500000E+02      :
          :  -> integral neglect         0.1000000E-07      :
          :  -> SCF convergence          0.1000000E-05 Eh   :
          :  -> wf. convergence          0.1000000E-03 e    :
          :  Broyden damping             0.4000000          :
          ...................................................

 iter      E             dE          RMSdq      gap      omega  full diag
   1   -352.7844738 -0.352784E+03  0.511E+00    1.21       0.0  T
   2   -352.7317026  0.527712E-01  0.329E+00    0.25       1.0  T
   3   -351.9262559  0.805447E+00  0.343E+00    0.09       1.0  T
   4   -350.0788205  0.184744E+01  0.289E+00    0.02       1.0  T
   5   -339.3201029  0.107587E+02  0.469E+00    0.28       1.0  T
   6   -352.4295329 -0.131094E+02  0.176E+00    0.02       1.0  T
   7   -353.0977397 -0.668207E+00  0.119E+00    0.74       1.0  T
   8   -353.2126165 -0.114877E+00  0.841E-01    0.50       1.0  T
   9   -353.2739665 -0.613499E-01  0.558E-01    0.43       1.0  T
  10   -353.3098426 -0.358761E-01  0.281E-01    0.23       1.0  T
  11   -353.3180460 -0.820341E-02  0.142E-01    0.25       1.0  T
  12   -353.3217111 -0.366514E-02  0.675E-02    0.30       1.0  T
  13   -353.3224673 -0.756138E-03  0.417E-02    0.34       1.0  T
  14   -353.3224772 -0.996304E-05  0.453E-02    0.34       1.0  T
  15   -353.3227525 -0.275241E-03  0.226E-02    0.37       1.0  T
  16   -353.3227945 -0.420606E-04  0.149E-02    0.39       1.0  T
  17   -353.3228276 -0.330310E-04  0.867E-03    0.41       1.0  T
  18   -353.3228419 -0.143295E-04  0.295E-03    0.41       2.3  T
  19   -353.3228411  0.811129E-06  0.319E-03    0.41       2.1  T
  20   -353.3228428 -0.174260E-05  0.851E-04    0.41       7.9  T
  21   -353.3228429 -0.928137E-07  0.340E-04    0.41      19.8  T
  22   -353.3228429 -0.263276E-08  0.214E-04    0.41      31.5  T

   *** convergence criteria satisfied after 22 iterations ***

         #    Occupation            Energy/Eh            Energy/eV
      -------------------------------------------------------------
         1        2.0000           -0.9662821             -26.2939
       ...           ...                  ...                  ...
       317        2.0000           -0.6294048             -17.1270
       318        2.0000           -0.6210893             -16.9007
       319        2.0000           -0.6210231             -16.8989
       320        2.0000           -0.6175040             -16.8031
       321        2.0000           -0.6165346             -16.7768
       322        1.9996           -0.6144507             -16.7201
       323        1.9994           -0.6140371             -16.7088 (HOMO)
       324        0.0008           -0.5988646             -16.2959 (LUMO)
       325        0.0003           -0.5978302             -16.2678
       326        0.0000           -0.5914829             -16.0951
       327        0.0000           -0.5909787             -16.0813
       328                         -0.5873182             -15.9817
       ...                                ...                  ...
       632                          1.1531094              31.3777
      -------------------------------------------------------------
                  HL-Gap            0.0151725 Eh            0.4129 eV
             Fermi-level           -0.6063240 Eh          -16.4989 eV

 SCC (total)                   0 d,  0 h,  0 min, 47.585 sec
 SCC setup                      ...        0 min,  0.011 sec (  0.022%)
 Dispersion                     ...        0 min,  0.077 sec (  0.162%)
 classical contributions        ...        0 min,  0.015 sec (  0.031%)
 integral evaluation            ...        0 min,  2.093 sec (  4.398%)
 iterations                     ...        0 min, 40.648 sec ( 85.422%)
 molecular gradient             ...        0 min,  4.672 sec (  9.819%)
 printout                       ...        0 min,  0.069 sec (  0.145%)

         :::::::::::::::::::::::::::::::::::::::::::::::::::::
         ::                     SUMMARY                     ::
         :::::::::::::::::::::::::::::::::::::::::::::::::::::
         :: total energy            -347.806287218261 Eh    ::
         :: gradient norm              0.489616336673 Eh/a0 ::
         :: HOMO-LUMO gap              0.412863952044 eV    ::
         ::.................................................::
         :: SCC energy              -353.322842925758 Eh    ::
         :: -> isotropic ES            0.559428806099 Eh    ::
         :: -> anisotropic ES         -0.043151624607 Eh    ::
         :: -> anisotropic XC          0.236942549301 Eh    ::
         :: -> dispersion             -0.349505451968 Eh    ::
         :: repulsion energy           5.493571186854 Eh    ::
         :: add. restraining           0.000000000000 Eh    ::
         :: total charge               4.000000000000 e     ::
         :::::::::::::::::::::::::::::::::::::::::::::::::::::

      ----------------------------------------------------------- 
     |                   =====================                   |
     |                        A N C O P T                        |
     |                   =====================                   |
     |               Approximate Normal Coordinate               |
     |                Rational Function Optimizer                |
      ----------------------------------------------------------- 

          ...................................................
          :                      SETUP                      :
          :.................................................:
          :   optimization level            normal          :
          :   max. optcycles                   660          :
          :   ANC micro-cycles                  20          :
          :   degrees of freedom               654          :
          :.................................................:
          :   RF solver                   davidson          :
          :   write xtbopt.log                true          :
          :   linear?                        false          :
          :   energy convergence         0.5000000E-05 Eh   :
          :   grad. convergence          0.1000000E-02 Eh/α :
          :   maximium RF displ.         1.0000000          :
          :   Hlow (freq-cutoff)         0.1000000E-01      :
          :   Hmax (freq-cutoff)         5.0000000          :
          :   S6 in model hess.         20.0000000          :
          ...................................................

generating ANC from model Hessian ...
Using Lindh-Hessian (1995)
 Shifting diagonal of input Hessian by   1.023305215667198E-002
 Lowest  eigenvalues of input Hessian
    0.010000    0.010187    0.000000    0.000000    0.000000    0.000000
    0.000000    0.000000    0.010269    0.010298    0.010328    0.010361
    0.010367    0.010410    0.010439    0.010499    0.010505    0.010559
 Highest eigenvalues
    2.143235    2.151434    2.157912    2.171104    2.247034    2.256121
 

........................................................................
.............................. CYCLE    1 ..............................
........................................................................
   1   -353.3228429 -0.353323E+03  0.150E-04    0.41       0.0  T
   2   -353.3228429  0.293126E-07  0.401E-04    0.41      16.8  T
   3   -353.3228429 -0.352068E-07  0.870E-05    0.41      77.5  T
     SCC iter.                  ...        0 min, 12.558 sec
     gradient                   ...        0 min,  6.873 sec
 * total energy  :  -347.8062872 Eh     change       -0.8789812E-08 Eh
   gradient norm :     0.4896144 Eh/α   predicted     0.0000000E+00 (-100.00%)
   displ. norm   :     0.5446297 α      lambda       -0.2027730E+00
   maximum displ.:     0.1075555 α      in ANC's #452, #99, #380, ...

........................................................................
.............................. CYCLE    2 ..............................
........................................................................
   1   -353.5460800 -0.353546E+03  0.354E-01    0.67       0.0  T
   2   -353.4112050  0.134875E+00  0.907E-01    0.41       1.0  T
   3   -353.5509363 -0.139731E+00  0.234E-01    0.57       1.0  T
   4   -353.5601821 -0.924580E-02  0.824E-02    0.60       1.0  T
   5   -353.5602817 -0.996012E-04  0.517E-02    0.58       1.0  T
   6   -353.5605122 -0.230466E-03  0.398E-02    0.58       1.0  T
   7   -353.5607050 -0.192861E-03  0.228E-02    0.58       1.0  T
   8   -353.5608003 -0.952288E-04  0.664E-03    0.58       1.0  T
   9   -353.5608048 -0.453920E-05  0.535E-03    0.58       1.3  T
  10   -353.5608064 -0.158803E-05  0.448E-03    0.58       1.5  T
  11   -353.5608088 -0.246377E-05  0.195E-03    0.58       3.5  T
  12   -353.5608094 -0.582776E-06  0.652E-04    0.58      10.3  T
  13   -353.5608095 -0.521517E-07  0.215E-04    0.58      31.4  T
     SCC iter.                  ...        0 min, 43.905 sec
     gradient                   ...        0 min,  6.014 sec
 * total energy  :  -347.9705760 Eh     change       -0.1642887E+00 Eh
   gradient norm :     0.2863240 Eh/α   predicted    -0.1315110E+00 ( -19.95%)
   displ. norm   :     0.6137472 α      lambda       -0.1433859E+00
   maximum displ.:     0.1522492 α      in ANC's #452, #99, #380, ...

........................................................................
.............................. CYCLE    3 ..............................
........................................................................
   1   -353.7870903 -0.353787E+03  0.406E-01    0.95       0.0  T
   2   -353.6972897  0.898007E-01  0.779E-01    0.49       1.0  T
   3   -353.7992344 -0.101945E+00  0.225E-01    0.82       1.0  T
   4   -353.8070100 -0.777556E-02  0.798E-02    0.83       1.0  T
   5   -353.8071920 -0.182018E-03  0.450E-02    0.80       1.0  T
   6   -353.8074108 -0.218825E-03  0.263E-02    0.79       1.0  T
   7   -353.8074902 -0.793363E-04  0.155E-02    0.80       1.0  T
   8   -353.8075336 -0.433759E-04  0.595E-03    0.81       1.1  T
   9   -353.8075334  0.177599E-06  0.619E-03    0.81       1.1  T
  10   -353.8075381 -0.469382E-05  0.308E-03    0.81       2.2  T
  11   -353.8075391 -0.102557E-05  0.137E-03    0.81       4.9  T
  12   -353.8075393 -0.250948E-06  0.363E-04    0.81      18.6  T
  13   -353.8075394 -0.833830E-08  0.168E-04    0.81      40.1  T
     SCC iter.                  ...        0 min, 44.332 sec
     gradient                   ...        0 min,  6.136 sec
 * total energy  :  -348.0614478 Eh     change       -0.9087184E-01 Eh
   gradient norm :     0.0813943 Eh/α   predicted    -0.9869866E-01 (   8.61%)
   displ. norm   :     0.7191506 α      lambda       -0.4269109E-01
   maximum displ.:     0.2839363 α      in ANC's #99, #55, #63, ...

........................................................................
.............................. CYCLE    4 ..............................
........................................................................
   1   -353.9111014 -0.353911E+03  0.166E-01    0.91       0.0  T
   2   -353.9105902  0.511205E-03  0.128E-01    0.82       1.0  T
   3   -353.9106838 -0.936254E-04  0.956E-02    0.88       1.0  T
   4   -353.9109768 -0.292932E-03  0.660E-02    0.84       1.0  T
   5   -353.9117878 -0.811067E-03  0.131E-02    0.87       1.0  T
   6   -353.9118175 -0.297037E-04  0.341E-03    0.87       2.0  T
   7   -353.9118191 -0.152376E-05  0.211E-03    0.87       3.2  T
   8   -353.9118191 -0.550796E-07  0.168E-03    0.87       4.0  T
   9   -353.9118195 -0.394413E-06  0.794E-04    0.87       8.5  T
  10   -353.9118196 -0.113756E-06  0.305E-04    0.87      22.1  T
     SCC iter.                  ...        0 min, 33.269 sec
     gradient                   ...        0 min,  8.197 sec
 * total energy  :  -348.0965755 Eh     change       -0.3512773E-01 Eh
   gradient norm :     0.0554701 Eh/α   predicted    -0.3238499E-01 (  -7.81%)
   displ. norm   :     0.8190886 α      lambda       -0.3332544E-01
   maximum displ.:     0.3080149 α      in ANC's #99, #55, #63, ...

........................................................................
.............................. CYCLE    5 ..............................
........................................................................
   1   -353.9848016 -0.353985E+03  0.131E-01    0.89       0.0  T
   2   -353.9846480  0.153582E-03  0.861E-02    0.89       1.0  T
   3   -353.9838878  0.760178E-03  0.859E-02    0.86       1.0  T
   4   -353.9847632 -0.875360E-03  0.466E-02    0.89       1.0  T
   5   -353.9851030 -0.339839E-03  0.791E-03    0.89       1.0  T
   6   -353.9851149 -0.118581E-04  0.320E-03    0.89       2.1  T
   7   -353.9851163 -0.138354E-05  0.149E-03    0.89       4.5  T
   8   -353.9851161  0.136770E-06  0.120E-03    0.89       5.6  T
   9   -353.9851164 -0.239506E-06  0.505E-04    0.89      13.3  T
  10   -353.9851164 -0.368810E-07  0.211E-04    0.89      32.0  T
     SCC iter.                  ...        0 min, 35.611 sec
     gradient                   ...        0 min,  6.697 sec
 * total energy  :  -348.1256025 Eh     change       -0.2902693E-01 Eh
   gradient norm :     0.0410139 Eh/α   predicted    -0.2784184E-01 (  -4.08%)
   displ. norm   :     0.8702591 α      lambda       -0.2747083E-01
   maximum displ.:     0.3382659 α      in ANC's #55, #99, #63, ...

........................................................................
.............................. CYCLE    6 ..............................
........................................................................
   1   -354.0317705 -0.354032E+03  0.110E-01    0.90       0.0  T
   2   -354.0316299  0.140587E-03  0.720E-02    0.91       1.0  T
   3   -354.0312386  0.391325E-03  0.702E-02    0.90       1.0  T
   4   -354.0318089 -0.570321E-03  0.361E-02    0.90       1.0  T
   5   -354.0319962 -0.187269E-03  0.949E-03    0.91       1.0  T
   6   -354.0320177 -0.215773E-04  0.303E-03    0.91       2.2  T
   7   -354.0320188 -0.103848E-05  0.121E-03    0.91       5.6  T
   8   -354.0320186  0.154249E-06  0.108E-03    0.91       6.3  T
   9   -354.0320188 -0.197449E-06  0.413E-04    0.91      16.3  T
  10   -354.0320188 -0.203393E-07  0.178E-04    0.91      37.9  T
     SCC iter.                  ...        0 min, 32.492 sec
     gradient                   ...        0 min,  6.233 sec
 * total energy  :  -348.1501994 Eh     change       -0.2459694E-01 Eh
   gradient norm :     0.0358181 Eh/α   predicted    -0.2413795E-01 (  -1.87%)
   displ. norm   :     0.8900700 α      lambda       -0.2331527E-01
   maximum displ.:     0.3778169 α      in ANC's #55, #99, #63, ...

........................................................................
.............................. CYCLE    7 ..............................
........................................................................
   1   -354.0665755 -0.354067E+03  0.100E-01    0.90       0.0  T
   2   -354.0664718  0.103674E-03  0.647E-02    0.91       1.0  T
   3   -354.0661519  0.319912E-03  0.623E-02    0.91       1.0  T
   4   -354.0665709 -0.418966E-03  0.324E-02    0.91       1.0  T
   5   -354.0667306 -0.159793E-03  0.944E-03    0.91       1.0  T
   6   -354.0667544 -0.237513E-04  0.248E-03    0.91       2.7  T
   7   -354.0667548 -0.403407E-06  0.103E-03    0.91       6.5  T
   8   -354.0667547  0.119499E-06  0.918E-04    0.91       7.3  T
   9   -354.0667548 -0.147818E-06  0.324E-04    0.91      20.8  T
     SCC iter.                  ...        0 min, 28.930 sec
     gradient                   ...        0 min,  6.409 sec
 * total energy  :  -348.1704593 Eh     change       -0.2025992E-01 Eh
   gradient norm :     0.0318785 Eh/α   predicted    -0.2089323E-01 (   3.13%)
   displ. norm   :     0.8774429 α      lambda       -0.1961260E-01
   maximum displ.:     0.3696882 α      in ANC's #55, #99, #57, ...

........................................................................
.............................. CYCLE    8 ..............................
........................................................................
   1   -354.0945243 -0.354095E+03  0.105E-01    0.91       0.0  T
   2   -354.0944875  0.368644E-04  0.613E-02    0.92       1.0  T
   3   -354.0939825  0.504960E-03  0.617E-02    0.91       1.0  T
   4   -354.0944323 -0.449843E-03  0.307E-02    0.91       1.0  T
   5   -354.0945892 -0.156875E-03  0.782E-03    0.92       1.0  T
   6   -354.0946043 -0.150951E-04  0.168E-03    0.92       4.0  T
   7   -354.0946044 -0.122316E-06  0.850E-04    0.92       7.9  T
   8   -354.0946044  0.586611E-07  0.668E-04    0.92      10.1  T
     SCC iter.                  ...        0 min, 27.877 sec
     gradient                   ...        0 min,  5.719 sec
 * total energy  :  -348.1866993 Eh     change       -0.1623998E-01 Eh
   gradient norm :     0.0323257 Eh/α   predicted    -0.1735623E-01 (   6.87%)
   displ. norm   :     0.8515186 α      lambda       -0.1655312E-01
   maximum displ.:     0.3718561 α      in ANC's #55, #57, #34, ...

........................................................................
.............................. CYCLE    9 ..............................
........................................................................
   1   -354.1219974 -0.354122E+03  0.100E-01    0.91       0.0  T
   2   -354.1220112 -0.138076E-04  0.555E-02    0.92       1.0  T
   3   -354.1219539  0.573588E-04  0.324E-02    0.92       1.0  T
   4   -354.1219047  0.491528E-04  0.244E-02    0.92       1.0  T
   5   -354.1220238 -0.119072E-03  0.588E-03    0.92       1.1  T
   6   -354.1220308 -0.698091E-05  0.136E-03    0.92       5.0  T
   7   -354.1220308 -0.415308E-07  0.743E-04    0.92       9.1  T
   8   -354.1220309 -0.402168E-07  0.241E-04    0.92      28.0  T
     SCC iter.                  ...        0 min, 29.493 sec
     gradient                   ...        0 min,  6.606 sec
 * total energy  :  -348.2008157 Eh     change       -0.1411643E-01 Eh
   gradient norm :     0.0234412 Eh/α   predicted    -0.1427776E-01 (   1.14%)
   displ. norm   :     0.8709468 α      lambda       -0.1362632E-01
   maximum displ.:     0.3666769 α      in ANC's #55, #34, #57, ...

........................................................................
.............................. CYCLE   10 ..............................
........................................................................
   1   -354.1491780 -0.354149E+03  0.102E-01    0.92       0.0  T
   2   -354.1491955 -0.175071E-04  0.573E-02    0.92       1.0  T
   3   -354.1491606  0.348631E-04  0.310E-02    0.92       1.0  T
   4   -354.1490941  0.665292E-04  0.243E-02    0.92       1.0  T
   5   -354.1492055 -0.111394E-03  0.488E-03    0.92       1.4  T
   6   -354.1492104 -0.491352E-05  0.154E-03    0.92       4.4  T
   7   -354.1492106 -0.164948E-06  0.691E-04    0.92       9.8  T
   8   -354.1492106 -0.404630E-07  0.248E-04    0.92      27.1  T
     SCC iter.                  ...        0 min, 28.482 sec
     gradient                   ...        0 min,  6.452 sec
 * total energy  :  -348.2124170 Eh     change       -0.1160131E-01 Eh
   gradient norm :     0.0208504 Eh/α   predicted    -0.1198127E-01 (   3.28%)
   displ. norm   :     0.8781226 α      lambda       -0.1169228E-01
   maximum displ.:     0.3324838 α      in ANC's #55, #34, #15, ...

........................................................................
.............................. CYCLE   11 ..............................
........................................................................
   1   -354.1749748 -0.354175E+03  0.106E-01    0.92       0.0  T
   2   -354.1749225  0.523273E-04  0.635E-02    0.93       1.0  T
   3   -354.1745171  0.405322E-03  0.589E-02    0.92       1.0  T
   4   -354.1748062 -0.289083E-03  0.359E-02    0.92       1.0  T
   5   -354.1750326 -0.226401E-03  0.519E-03    0.93       1.3  T
   6   -354.1750373 -0.466314E-05  0.169E-03    0.93       4.0  T
   7   -354.1750374 -0.698598E-07  0.954E-04    0.93       7.1  T
   8   -354.1750374 -0.346531E-07  0.706E-04    0.93       9.6  T
     SCC iter.                  ...        0 min, 22.847 sec
     gradient                   ...        0 min,  6.093 sec
 * total energy  :  -348.2224067 Eh     change       -0.9989623E-02 Eh
   gradient norm :     0.0176323 Eh/α   predicted    -0.1035411E-01 (   3.65%)
   displ. norm   :     0.8681144 α      lambda       -0.9455914E-02
   maximum displ.:     0.3098716 α      in ANC's #55, #34, #15, ...

........................................................................
.............................. CYCLE   12 ..............................
........................................................................
   1   -354.1977503 -0.354198E+03  0.942E-02    0.93       0.0  T
   2   -354.1975093  0.241015E-03  0.669E-02    0.90       1.0  T
   3   -354.1972406  0.268735E-03  0.620E-02    0.92       1.0  T
   4   -354.1977797 -0.539171E-03  0.266E-02    0.92       1.0  T
   5   -354.1978667 -0.869418E-04  0.314E-03    0.92       2.1  T
   6   -354.1978690 -0.236390E-05  0.157E-03    0.92       4.3  T
   7   -354.1978692 -0.116674E-06  0.120E-03    0.92       5.6  T
   8   -354.1978693 -0.159627E-06  0.669E-04    0.92      10.1  T
   9   -354.1978694 -0.733024E-07  0.193E-04    0.92      34.9  T
     SCC iter.                  ...        0 min, 33.862 sec
     gradient                   ...        0 min,  6.218 sec
 * total energy  :  -348.2308019 Eh     change       -0.8395216E-02 Eh
   gradient norm :     0.0133650 Eh/α   predicted    -0.8291067E-02 (  -1.24%)
   displ. norm   :     0.8813842 α      lambda       -0.8125033E-02
   maximum displ.:     0.3265020 α      in ANC's #34, #15, #55, ...

........................................................................
.............................. CYCLE   13 ..............................
........................................................................
   1   -354.2137252 -0.354214E+03  0.101E-01    0.92       0.0  T
   2   -354.2135705  0.154734E-03  0.650E-02    0.91       1.0  T
   3   -354.2132492  0.321259E-03  0.605E-02    0.92       1.0  T
   4   -354.2136836 -0.434386E-03  0.327E-02    0.91       1.0  T
   5   -354.2138264 -0.142776E-03  0.391E-03    0.93       1.7  T
   6   -354.2138297 -0.333028E-05  0.172E-03    0.92       3.9  T
   7   -354.2138299 -0.195022E-06  0.102E-03    0.92       6.6  T
   8   -354.2138299  0.188749E-07  0.848E-04    0.92       7.9  T
   9   -354.2138300 -0.128125E-06  0.260E-04    0.92      25.9  T
     SCC iter.                  ...        0 min, 47.899 sec
     gradient                   ...        0 min,  6.837 sec
 * total energy  :  -348.2380569 Eh     change       -0.7255036E-02 Eh
   gradient norm :     0.0111878 Eh/α   predicted    -0.7218446E-02 (  -0.50%)
   displ. norm   :     0.8840267 α      lambda       -0.6980490E-02
   maximum displ.:     0.3374510 α      in ANC's #34, #15, #2, ...

........................................................................
.............................. CYCLE   14 ..............................
........................................................................
   1   -354.2241367 -0.354224E+03  0.101E-01    0.91       0.0  T
   2   -354.2239722  0.164509E-03  0.652E-02    0.89       1.0  T
   3   -354.2236055  0.366634E-03  0.622E-02    0.91       1.0  T
   4   -354.2241150 -0.509463E-03  0.322E-02    0.90       1.0  T
   5   -354.2242413 -0.126286E-03  0.269E-03    0.91       2.5  T
   6   -354.2242426 -0.132451E-05  0.156E-03    0.91       4.3  T
   7   -354.2242428 -0.174591E-06  0.119E-03    0.91       5.7  T
   8   -354.2242429 -0.101391E-06  0.775E-04    0.91       8.7  T
   9   -354.2242430 -0.925176E-07  0.273E-04    0.91      24.7  T
     SCC iter.                  ...        0 min, 51.597 sec
     gradient                   ...        0 min,  7.214 sec
 * total energy  :  -348.2443282 Eh     change       -0.6271249E-02 Eh
   gradient norm :     0.0094694 Eh/α   predicted    -0.6217887E-02 (  -0.85%)
   displ. norm   :     0.8858611 α      lambda       -0.5974715E-02
   maximum displ.:     0.3501713 α      in ANC's #34, #15, #2, ...

........................................................................
.............................. CYCLE   15 ..............................
........................................................................
   1   -354.2319227 -0.354232E+03  0.999E-02    0.90       0.0  T
   2   -354.2317976  0.125048E-03  0.625E-02    0.88       1.0  T
   3   -354.2313904  0.407241E-03  0.611E-02    0.89       1.0  T
   4   -354.2318750 -0.484618E-03  0.324E-02    0.89       1.0  T
   5   -354.2320077 -0.132691E-03  0.235E-03    0.90       2.9  T
   6   -354.2320084 -0.753081E-06  0.146E-03    0.90       4.6  T
   7   -354.2320086 -0.151970E-06  0.102E-03    0.90       6.6  T
   8   -354.2320086 -0.233456E-07  0.752E-04    0.90       9.0  T
   9   -354.2320087 -0.936330E-07  0.258E-04    0.90      26.1  T
     SCC iter.                  ...        0 min, 40.229 sec
     gradient                   ...        0 min,  7.194 sec
 * total energy  :  -348.2497078 Eh     change       -0.5379667E-02 Eh
   gradient norm :     0.0094725 Eh/α   predicted    -0.5331690E-02 (  -0.89%)
   displ. norm   :     0.8892760 α      lambda       -0.5294610E-02
   maximum displ.:     0.3555150 α      in ANC's #34, #15, #2, ...

........................................................................
.............................. CYCLE   16 ..............................
........................................................................
   1   -354.2372504 -0.354237E+03  0.101E-01    0.87       0.0  T
   2   -354.2372189  0.315167E-04  0.586E-02    0.88       1.0  T
   3   -354.2369068  0.312137E-03  0.517E-02    0.87       1.0  T
   4   -354.2370636 -0.156860E-03  0.381E-02    0.87       1.0  T
   5   -354.2373036 -0.239994E-03  0.298E-03    0.88       2.3  T
   6   -354.2373051 -0.149758E-05  0.127E-03    0.88       5.3  T
   7   -354.2373052 -0.681911E-07  0.789E-04    0.88       8.5  T
   8   -354.2373052 -0.247297E-08  0.503E-04    0.88      13.4  T
     SCC iter.                  ...        0 min, 32.040 sec
     gradient                   ...        0 min,  7.754 sec
 * total energy  :  -348.2542724 Eh     change       -0.4564629E-02 Eh
   gradient norm :     0.0108938 Eh/α   predicted    -0.4740831E-02 (   3.86%)
   displ. norm   :     0.8700190 α      lambda       -0.4739200E-02
   maximum displ.:     0.3582008 α      in ANC's #15, #34, #2, ...

........................................................................
.............................. CYCLE   17 ..............................
........................................................................
   1   -354.2415785 -0.354242E+03  0.942E-02    0.85       0.0  T
   2   -354.2415725  0.598873E-05  0.545E-02    0.85       1.0  T
   3   -354.2413112  0.261292E-03  0.445E-02    0.84       1.0  T
   4   -354.2413858 -0.746628E-04  0.357E-02    0.84       1.0  T
   5   -354.2416141 -0.228306E-03  0.241E-03    0.85       2.8  T
   6   -354.2416150 -0.872959E-06  0.103E-03    0.85       6.5  T
   7   -354.2416150 -0.144400E-07  0.695E-04    0.85       9.7  T
   8   -354.2416150 -0.117257E-07  0.464E-04    0.85      14.5  T
     SCC iter.                  ...        0 min, 39.104 sec
     gradient                   ...        0 min,  6.844 sec
 * total energy  :  -348.2582977 Eh     change       -0.4025259E-02 Eh
   gradient norm :     0.0095403 Eh/α   predicted    -0.4163234E-02 (   3.43%)
   displ. norm   :     0.8606456 α      lambda       -0.3972778E-02
   maximum displ.:     0.3683585 α      in ANC's #15, #34, #2, ...

........................................................................
.............................. CYCLE   18 ..............................
........................................................................
   1   -354.2462988 -0.354246E+03  0.866E-02    0.82       0.0  T
   2   -354.2462849  0.138905E-04  0.514E-02    0.82       1.0  T
   3   -354.2458406  0.444278E-03  0.497E-02    0.82       1.0  T
   4   -354.2462391 -0.398457E-03  0.238E-02    0.82       1.0  T
   5   -354.2463266 -0.875178E-04  0.215E-03    0.82       3.1  T
   6   -354.2463272 -0.627140E-06  0.914E-04    0.82       7.4  T
   7   -354.2463272  0.166634E-07  0.669E-04    0.82      10.1  T
     SCC iter.                  ...        0 min, 27.534 sec
     gradient                   ...        0 min,  8.949 sec
 * total energy  :  -348.2617741 Eh     change       -0.3476343E-02 Eh
   gradient norm :     0.0104199 Eh/α   predicted    -0.3457736E-02 (  -0.54%)
   displ. norm   :     0.8674530 α      lambda       -0.3731772E-02
   maximum displ.:     0.3791273 α      in ANC's #15, #34, #2, ...

........................................................................
.............................. CYCLE   19 ..............................
........................................................................
   1   -354.2515080 -0.354252E+03  0.877E-02    0.79       0.0  T
   2   -354.2515193 -0.112955E-04  0.511E-02    0.79       1.0  T
   3   -354.2514705  0.488539E-04  0.238E-02    0.79       1.0  T
   4   -354.2514737 -0.320584E-05  0.166E-02    0.79       1.0  T
   5   -354.2515256 -0.518862E-04  0.342E-03    0.79       2.0  T
   6   -354.2515277 -0.212350E-05  0.922E-04    0.79       7.3  T
   7   -354.2515277 -0.125675E-07  0.513E-04    0.79      13.2  T
   8   -354.2515277 -0.362664E-07  0.172E-04    0.79      39.2  T
     SCC iter.                  ...        0 min, 31.013 sec
     gradient                   ...        0 min,  6.854 sec
 * total energy  :  -348.2649491 Eh     change       -0.3175019E-02 Eh
   gradient norm :     0.0106334 Eh/α   predicted    -0.3269920E-02 (   2.99%)
   displ. norm   :     0.8546629 α      lambda       -0.3504074E-02
   maximum displ.:     0.3837209 α      in ANC's #15, #34, #2, ...

........................................................................
.............................. CYCLE   20 ..............................
........................................................................
   1   -354.2570718 -0.354257E+03  0.831E-02    0.76       0.0  T
   2   -354.2570743 -0.250598E-05  0.493E-02    0.76       1.0  T
   3   -354.2568789  0.195380E-03  0.383E-02    0.76       1.0  T
   4   -354.2569746 -0.956914E-04  0.238E-02    0.76       1.0  T
   5   -354.2570941 -0.119555E-03  0.221E-03    0.76       3.1  T
   6   -354.2570947 -0.528571E-06  0.812E-04    0.76       8.3  T
   7   -354.2570947  0.535016E-08  0.483E-04    0.76      13.9  T
     SCC iter.                  ...        0 min, 33.870 sec
     gradient                   ...        0 min,  7.406 sec
 * total energy  :  -348.2679910 Eh     change       -0.3041974E-02 Eh
   gradient norm :     0.0101868 Eh/α   predicted    -0.3031811E-02 (  -0.33%)
   displ. norm   :     0.8664284 α      lambda       -0.3250735E-02
   maximum displ.:     0.3947292 α      in ANC's #15, #34, #2, ...
 * RMSD in coord.:     0.9184704 α      energy gain  -0.4617038E+00 Eh

generating ANC from model Hessian ...
Using Lindh-Hessian (1995)
 Shifting diagonal of input Hessian by   9.997800084394520E-003
 Lowest  eigenvalues of input Hessian
    0.000000    0.000000    0.000000    0.000000    0.000000    0.000000
    0.010000    0.010028    0.010040    0.010096    0.010105    0.010149
    0.010168    0.010197    0.010207    0.010246    0.010262    0.010282
 Highest eigenvalues
    2.169447    2.178705    2.189009    2.189193    2.206558    2.208392
 

........................................................................
.............................. CYCLE   21 ..............................
........................................................................
   1   -354.2624348 -0.354262E+03  0.797E-02    0.74       0.0  T
   2   -354.2624407 -0.594429E-05  0.468E-02    0.74       1.0  T
   3   -354.2623684  0.723040E-04  0.326E-02    0.74       1.0  T
   4   -354.2622832  0.852525E-04  0.290E-02    0.74       1.0  T
   5   -354.2624580 -0.174770E-03  0.242E-03    0.74       2.8  T
   6   -354.2624588 -0.873449E-06  0.946E-04    0.74       7.1  T
   7   -354.2624589 -0.710989E-07  0.517E-04    0.74      13.0  T
     SCC iter.                  ...        0 min, 30.826 sec
     gradient                   ...        0 min, 10.978 sec
 * total energy  :  -348.2709786 Eh     change       -0.2987544E-02 Eh
   gradient norm :     0.0078770 Eh/α   predicted     0.0000000E+00 (-100.00%)
   displ. norm   :     0.2887767 α      lambda       -0.1127317E-02
   maximum displ.:     0.1273841 α      in ANC's #14, #1, #7, ...

........................................................................
.............................. CYCLE   22 ..............................
........................................................................
   1   -354.2627894 -0.354263E+03  0.266E-02    0.74       0.0  T
   2   -354.2627910 -0.165520E-05  0.154E-02    0.73       1.0  T
   3   -354.2627881  0.290595E-05  0.995E-03    0.74       1.0  T
   4   -354.2627657  0.224104E-04  0.121E-02    0.73       1.0  T
   5   -354.2627945 -0.287593E-04  0.115E-03    0.73       5.9  T
   6   -354.2627947 -0.191695E-06  0.406E-04    0.73      16.6  T
   7   -354.2627947 -0.201438E-07  0.221E-04    0.73      30.5  T
     SCC iter.                  ...        0 min, 38.114 sec
     gradient                   ...        0 min,  7.320 sec
 * total energy  :  -348.2720615 Eh     change       -0.1082886E-02 Eh
   gradient norm :     0.0054441 Eh/α   predicted    -0.6110505E-03 ( -43.57%)
   displ. norm   :     0.8417148 α      lambda       -0.3052611E-02
   maximum displ.:     0.3514211 α      in ANC's #14, #1, #7, ...

........................................................................
.............................. CYCLE   23 ..............................
........................................................................
   1   -354.2631277 -0.354263E+03  0.763E-02    0.73       0.0  T
   2   -354.2631330 -0.536308E-05  0.443E-02    0.72       1.0  T
   3   -354.2630970  0.359856E-04  0.301E-02    0.72       1.0  T
   4   -354.2629451  0.151966E-03  0.346E-02    0.72       1.0  T
   5   -354.2631727 -0.227606E-03  0.339E-03    0.72       2.0  T
   6   -354.2631742 -0.149945E-05  0.120E-03    0.72       5.6  T
   7   -354.2631743 -0.161171E-06  0.662E-04    0.72      10.2  T
   8   -354.2631744 -0.261700E-07  0.259E-04    0.72      26.1  T
     SCC iter.                  ...        0 min, 36.640 sec
     gradient                   ...        0 min,  6.933 sec
 * total energy  :  -348.2749258 Eh     change       -0.2864361E-02 Eh
   gradient norm :     0.0066030 Eh/α   predicted    -0.2607667E-02 (  -8.96%)
   displ. norm   :     0.9211119 α      lambda       -0.3030924E-02
   maximum displ.:     0.3863065 α      in ANC's #14, #1, #7, ...

........................................................................
.............................. CYCLE   24 ..............................
........................................................................
   1   -354.2639024 -0.354264E+03  0.778E-02    0.70       0.0  T
   2   -354.2638920  0.104578E-04  0.464E-02    0.69       1.0  T
   3   -354.2638176  0.744043E-04  0.351E-02    0.70       1.0  T
   4   -354.2637353  0.822209E-04  0.345E-02    0.69       1.0  T
   5   -354.2639536 -0.218221E-03  0.360E-03    0.70       1.9  T
   6   -354.2639554 -0.184177E-05  0.135E-03    0.70       5.0  T
   7   -354.2639556 -0.205024E-06  0.716E-04    0.70       9.4  T
   8   -354.2639556 -0.229891E-07  0.273E-04    0.70      24.7  T
     SCC iter.                  ...        0 min, 33.201 sec
     gradient                   ...        0 min,  7.600 sec
 * total energy  :  -348.2778100 Eh     change       -0.2884123E-02 Eh
   gradient norm :     0.0088170 Eh/α   predicted    -0.2801269E-02 (  -2.87%)
   displ. norm   :     0.9273239 α      lambda       -0.2897096E-02
   maximum displ.:     0.3942900 α      in ANC's #14, #1, #7, ...

........................................................................
.............................. CYCLE   25 ..............................
........................................................................
   1   -354.2670402 -0.354267E+03  0.727E-02    0.68       0.0  T
   2   -354.2670180  0.222074E-04  0.444E-02    0.67       1.0  T
   3   -354.2669094  0.108572E-03  0.371E-02    0.68       1.0  T
   4   -354.2669183 -0.886394E-05  0.308E-02    0.67       1.0  T
   5   -354.2670881 -0.169835E-03  0.357E-03    0.67       1.9  T
   6   -354.2670902 -0.208051E-05  0.136E-03    0.67       5.0  T
   7   -354.2670904 -0.199413E-06  0.705E-04    0.67       9.6  T
   8   -354.2670904 -0.182524E-08  0.399E-04    0.67      16.9  T
     SCC iter.                  ...        0 min, 42.274 sec
     gradient                   ...        0 min,  7.380 sec
 * total energy  :  -348.2805792 Eh     change       -0.2769230E-02 Eh
   gradient norm :     0.0087725 Eh/α   predicted    -0.2694246E-02 (  -2.71%)
   displ. norm   :     0.9228071 α      lambda       -0.2796159E-02
   maximum displ.:     0.3995619 α      in ANC's #14, #1, #7, ...

........................................................................
.............................. CYCLE   26 ..............................
........................................................................
   1   -354.2729456 -0.354273E+03  0.675E-02    0.65       0.0  T
   2   -354.2729199  0.256815E-04  0.419E-02    0.64       1.0  T
   3   -354.2727682  0.151657E-03  0.388E-02    0.65       1.0  T
   4   -354.2728578 -0.895897E-04  0.268E-02    0.64       1.0  T
   5   -354.2729869 -0.129022E-03  0.341E-03    0.64       2.0  T
   6   -354.2729890 -0.213348E-05  0.128E-03    0.65       5.3  T
   7   -354.2729891 -0.151690E-06  0.687E-04    0.64       9.8  T
   8   -354.2729891  0.272564E-07  0.561E-04    0.64      12.0  T
     SCC iter.                  ...        0 min, 36.066 sec
     gradient                   ...        0 min,  6.844 sec
 * total energy  :  -348.2832536 Eh     change       -0.2674373E-02 Eh
   gradient norm :     0.0067205 Eh/α   predicted    -0.2588647E-02 (  -3.21%)
   displ. norm   :     0.9302708 α      lambda       -0.2685185E-02
   maximum displ.:     0.4045544 α      in ANC's #14, #1, #7, ...

........................................................................
.............................. CYCLE   27 ..............................
........................................................................
   1   -354.2775788 -0.354278E+03  0.651E-02    0.62       0.0  T
   2   -354.2775578  0.209336E-04  0.404E-02    0.62       1.0  T
   3   -354.2773512  0.206672E-03  0.406E-02    0.62       1.0  T
   4   -354.2775086 -0.157493E-03  0.237E-02    0.62       1.0  T
   5   -354.2776127 -0.104028E-03  0.313E-03    0.62       2.2  T
   6   -354.2776146 -0.188544E-05  0.112E-03    0.62       6.0  T
   7   -354.2776147 -0.930426E-07  0.682E-04    0.62       9.9  T
   8   -354.2776146  0.250124E-07  0.587E-04    0.62      11.5  T
     SCC iter.                  ...        0 min, 30.791 sec
     gradient                   ...        0 min,  6.756 sec
 * total energy  :  -348.2858386 Eh     change       -0.2585036E-02 Eh
   gradient norm :     0.0058858 Eh/α   predicted    -0.2504485E-02 (  -3.12%)
   displ. norm   :     0.9358142 α      lambda       -0.2601076E-02
   maximum displ.:     0.4067952 α      in ANC's #14, #1, #7, ...

........................................................................
.............................. CYCLE   28 ..............................
........................................................................
   1   -354.2811012 -0.354281E+03  0.643E-02    0.60       0.0  T
   2   -354.2810886  0.125697E-04  0.394E-02    0.59       1.0  T
   3   -354.2808177  0.270914E-03  0.421E-02    0.60       1.0  T
   4   -354.2810508 -0.233042E-03  0.202E-02    0.60       1.0  T
   5   -354.2811280 -0.772252E-04  0.280E-03    0.60       2.4  T
   6   -354.2811295 -0.153124E-05  0.956E-04    0.60       7.1  T
   7   -354.2811296 -0.397135E-07  0.685E-04    0.60       9.8  T
   8   -354.2811296  0.118490E-08  0.546E-04    0.60      12.4  T
     SCC iter.                  ...        0 min, 32.122 sec
     gradient                   ...        0 min,  6.862 sec
 * total energy  :  -348.2883515 Eh     change       -0.2512940E-02 Eh
   gradient norm :     0.0057613 Eh/α   predicted    -0.2439504E-02 (  -2.92%)
   displ. norm   :     0.9440934 α      lambda       -0.2527121E-02
   maximum displ.:     0.4183157 α      in ANC's #1, #14, #7, ...

........................................................................
.............................. CYCLE   29 ..............................
........................................................................
   1   -354.2823311 -0.354282E+03  0.650E-02    0.58       0.0  T
   2   -354.2823228  0.838949E-05  0.396E-02    0.57       1.0  T
   3   -354.2819843  0.338424E-03  0.442E-02    0.58       1.0  T
   4   -354.2823015 -0.317202E-03  0.167E-02    0.58       1.0  T
   5   -354.2823542 -0.526736E-04  0.269E-03    0.58       2.5  T
   6   -354.2823556 -0.141349E-05  0.869E-04    0.58       7.8  T
   7   -354.2823556  0.377946E-08  0.742E-04    0.58       9.1  T
   8   -354.2823557 -0.429540E-07  0.481E-04    0.58      14.0  T
     SCC iter.                  ...        0 min, 40.623 sec
     gradient                   ...        0 min,  7.682 sec
 * total energy  :  -348.2908023 Eh     change       -0.2450733E-02 Eh
   gradient norm :     0.0060496 Eh/α   predicted    -0.2389788E-02 (  -2.49%)
   displ. norm   :     0.9436170 α      lambda       -0.2484032E-02
   maximum displ.:     0.4328101 α      in ANC's #1, #14, #7, ...

........................................................................
.............................. CYCLE   30 ..............................
........................................................................
   1   -354.2867900 -0.354287E+03  0.668E-02    0.56       0.0  T
   2   -354.2867889  0.106369E-05  0.401E-02    0.56       1.0  T
   3   -354.2864560  0.332934E-03  0.418E-02    0.57       1.0  T
   4   -354.2867741 -0.318135E-03  0.137E-02    0.56       1.0  T
   5   -354.2868094 -0.352621E-04  0.275E-03    0.56       2.5  T
   6   -354.2868108 -0.142284E-05  0.814E-04    0.56       8.3  T
   7   -354.2868108  0.237571E-07  0.755E-04    0.56       8.9  T
   8   -354.2868109 -0.633102E-07  0.427E-04    0.56      15.8  T
     SCC iter.                  ...        0 min, 30.938 sec
     gradient                   ...        0 min,  7.143 sec
 * total energy  :  -348.2931795 Eh     change       -0.2377230E-02 Eh
   gradient norm :     0.0062208 Eh/α   predicted    -0.2347924E-02 (  -1.23%)
   displ. norm   :     0.9559722 α      lambda       -0.2462661E-02
   maximum displ.:     0.4363133 α      in ANC's #1, #7, #14, ...

........................................................................
.............................. CYCLE   31 ..............................
........................................................................
   1   -354.2822228 -0.354282E+03  0.678E-02    0.55       0.0  T
   2   -354.2822044  0.183759E-04  0.422E-02    0.55       1.0  T
   3   -354.2816287  0.575697E-03  0.557E-02    0.55       1.0  T
   4   -354.2822240 -0.595293E-03  0.116E-02    0.55       1.0  T
   5   -354.2822488 -0.247939E-04  0.256E-03    0.55       2.6  T
   6   -354.2822501 -0.126963E-05  0.971E-04    0.55       6.9  T
   7   -354.2822501  0.360000E-07  0.922E-04    0.55       7.3  T
   8   -354.2822502 -0.108167E-06  0.459E-04    0.55      14.7  T
     SCC iter.                  ...        0 min, 48.295 sec
     gradient                   ...        0 min, 10.724 sec
 * total energy  :  -348.2954640 Eh     change       -0.2284513E-02 Eh
   gradient norm :     0.0078032 Eh/α   predicted    -0.2356629E-02 (   3.16%)
   displ. norm   :     0.9242550 α      lambda       -0.2300718E-02
   maximum displ.:     0.4396704 α      in ANC's #1, #7, #14, ...

........................................................................
.............................. CYCLE   32 ..............................
........................................................................
   1   -354.2854503 -0.354285E+03  0.664E-02    0.54       0.0  T
   2   -354.2854267  0.235830E-04  0.414E-02    0.54       1.0  T
   3   -354.2847909  0.635865E-03  0.580E-02    0.54       1.0  T
   4   -354.2854570 -0.666120E-03  0.910E-03    0.54       1.0  T
   5   -354.2854727 -0.156528E-04  0.217E-03    0.54       3.1  T
   6   -354.2854735 -0.890257E-06  0.922E-04    0.54       7.3  T
   7   -354.2854736 -0.104645E-07  0.828E-04    0.54       8.1  T
     SCC iter.                  ...        0 min, 48.788 sec
     gradient                   ...        0 min,  8.842 sec
 * total energy  :  -348.2976688 Eh     change       -0.2204827E-02 Eh
   gradient norm :     0.0053406 Eh/α   predicted    -0.2133050E-02 (  -3.26%)
   displ. norm   :     0.9389853 α      lambda       -0.2252172E-02
   maximum displ.:     0.4541650 α      in ANC's #1, #7, #14, ...

........................................................................
.............................. CYCLE   33 ..............................
........................................................................
   1   -354.2886097 -0.354289E+03  0.677E-02    0.53       0.0  T
   2   -354.2885523  0.574065E-04  0.445E-02    0.53       1.0  T
   3   -354.2878620  0.690316E-03  0.634E-02    0.54       1.0  T
   4   -354.2886273 -0.765303E-03  0.919E-03    0.53       1.0  T
   5   -354.2886424 -0.151168E-04  0.214E-03    0.53       3.2  T
   6   -354.2886433 -0.858875E-06  0.102E-03    0.53       6.6  T
   7   -354.2886433  0.132657E-07  0.951E-04    0.53       7.1  T
   8   -354.2886434 -0.127345E-06  0.374E-04    0.53      18.0  T
     SCC iter.                  ...        0 min, 39.592 sec
     gradient                   ...        0 min, 11.401 sec
 * total energy  :  -348.2997236 Eh     change       -0.2054755E-02 Eh
   gradient norm :     0.0083819 Eh/α   predicted    -0.2118957E-02 (   3.12%)
   displ. norm   :     0.9165090 α      lambda       -0.2233468E-02
   maximum displ.:     0.4541183 α      in ANC's #1, #7, #14, ...

........................................................................
.............................. CYCLE   34 ..............................
........................................................................
   1   -354.2946898 -0.354295E+03  0.671E-02    0.52       0.0  T
   2   -354.2946093  0.804543E-04  0.455E-02    0.52       1.0  T
   3   -354.2939823  0.627025E-03  0.627E-02    0.53       1.0  T
   4   -354.2947136 -0.731286E-03  0.891E-03    0.52       1.0  T
   5   -354.2947269 -0.132722E-04  0.220E-03    0.52       3.1  T
   6   -354.2947278 -0.912059E-06  0.110E-03    0.52       6.1  T
   7   -354.2947278 -0.340574E-07  0.933E-04    0.52       7.2  T
   8   -354.2947279 -0.123180E-06  0.334E-04    0.52      20.2  T
     SCC iter.                  ...        0 min, 39.739 sec
     gradient                   ...        0 min,  8.029 sec
 * total energy  :  -348.3017553 Eh     change       -0.2031753E-02 Eh
   gradient norm :     0.0048619 Eh/α   predicted    -0.2054778E-02 (   1.13%)
   displ. norm   :     0.9491754 α      lambda       -0.2019253E-02
   maximum displ.:     0.4667001 α      in ANC's #1, #7, #14, ...

........................................................................
.............................. CYCLE   35 ..............................
........................................................................
   1   -354.2910186 -0.354291E+03  0.681E-02    0.51       0.0  T
   2   -354.2909088  0.109824E-03  0.480E-02    0.51       1.0  T
   3   -354.2903739  0.534861E-03  0.615E-02    0.52       1.0  T
   4   -354.2910479 -0.674036E-03  0.986E-03    0.51       1.0  T
   5   -354.2910637 -0.157536E-04  0.234E-03    0.51       2.9  T
   6   -354.2910648 -0.108230E-05  0.104E-03    0.51       6.5  T
   7   -354.2910648  0.110305E-07  0.959E-04    0.51       7.0  T
   8   -354.2910649 -0.137442E-06  0.328E-04    0.51      20.5  T
     SCC iter.                  ...        0 min, 49.492 sec
     gradient                   ...        0 min,  8.680 sec
 * total energy  :  -348.3036766 Eh     change       -0.1921229E-02 Eh
   gradient norm :     0.0050921 Eh/α   predicted    -0.1919234E-02 (  -0.10%)
   displ. norm   :     0.9289666 α      lambda       -0.1934587E-02
   maximum displ.:     0.4744837 α      in ANC's #1, #7, #14, ...

........................................................................
.............................. CYCLE   36 ..............................
........................................................................
   1   -354.2963587 -0.354296E+03  0.663E-02    0.50       0.0  T
   2   -354.2961928  0.165976E-03  0.503E-02    0.50       1.0  T
   3   -354.2958762  0.316545E-03  0.562E-02    0.51       1.0  T
   4   -354.2964024 -0.526140E-03  0.101E-02    0.50       1.0  T
   5   -354.2964168 -0.143857E-04  0.246E-03    0.50       2.7  T
   6   -354.2964179 -0.110648E-05  0.986E-04    0.50       6.8  T
   7   -354.2964178  0.168549E-07  0.909E-04    0.50       7.4  T
   8   -354.2964180 -0.118074E-06  0.332E-04    0.50      20.3  T
     SCC iter.                  ...        0 min, 38.074 sec
     gradient                   ...        0 min,  7.339 sec
 * total energy  :  -348.3055209 Eh     change       -0.1844351E-02 Eh
   gradient norm :     0.0039143 Eh/α   predicted    -0.1802052E-02 (  -2.29%)
   displ. norm   :     0.9406978 α      lambda       -0.1837846E-02
   maximum displ.:     0.4875861 α      in ANC's #1, #7, #14, ...

........................................................................
.............................. CYCLE   37 ..............................
........................................................................
   1   -354.2995868 -0.354300E+03  0.669E-02    0.49       0.0  T
   2   -354.2994073  0.179470E-03  0.513E-02    0.49       1.0  T
   3   -354.2991111  0.296180E-03  0.563E-02    0.50       1.0  T
   4   -354.2996354 -0.524313E-03  0.102E-02    0.49       1.0  T
   5   -354.2996494 -0.139169E-04  0.247E-03    0.49       2.7  T
   6   -354.2996505 -0.111766E-05  0.974E-04    0.49       6.9  T
   7   -354.2996504  0.237243E-07  0.907E-04    0.49       7.4  T
   8   -354.2996506 -0.117633E-06  0.340E-04    0.49      19.8  T
     SCC iter.                  ...        0 min, 35.752 sec
     gradient                   ...        0 min,  7.884 sec
 * total energy  :  -348.3072924 Eh     change       -0.1771441E-02 Eh
   gradient norm :     0.0031859 Eh/α   predicted    -0.1732090E-02 (  -2.22%)
   displ. norm   :     0.9362115 α      lambda       -0.1746989E-02
   maximum displ.:     0.4972069 α      in ANC's #1, #7, #14, ...

........................................................................
.............................. CYCLE   38 ..............................
........................................................................
   1   -354.3028220 -0.354303E+03  0.676E-02    0.48       0.0  T
   2   -354.3026287  0.193279E-03  0.524E-02    0.48       1.0  T
   3   -354.3023446  0.284103E-03  0.567E-02    0.49       1.0  T
   4   -354.3028756 -0.531011E-03  0.963E-03    0.49       1.0  T
   5   -354.3028873 -0.116760E-04  0.235E-03    0.48       2.9  T
   6   -354.3028883 -0.980367E-06  0.972E-04    0.48       6.9  T
   7   -354.3028883  0.159616E-07  0.890E-04    0.48       7.6  T
     SCC iter.                  ...        0 min, 30.667 sec
     gradient                   ...        0 min,  7.273 sec
 * total energy  :  -348.3089752 Eh     change       -0.1682842E-02 Eh
   gradient norm :     0.0035002 Eh/α   predicted    -0.1639110E-02 (  -2.60%)
   displ. norm   :     0.9348621 α      lambda       -0.1654970E-02
   maximum displ.:     0.5068324 α      in ANC's #1, #7, #14, ...

........................................................................
.............................. CYCLE   39 ..............................
........................................................................
   1   -354.3048312 -0.354305E+03  0.678E-02    0.48       0.0  T
   2   -354.3046634  0.167716E-03  0.510E-02    0.47       1.0  T
   3   -354.3042866  0.376887E-03  0.589E-02    0.48       1.0  T
   4   -354.3048790 -0.592460E-03  0.932E-03    0.48       1.0  T
   5   -354.3048896 -0.105396E-04  0.214E-03    0.48       3.1  T
   6   -354.3048904 -0.851739E-06  0.860E-04    0.48       7.8  T
   7   -354.3048904  0.235911E-07  0.766E-04    0.48       8.8  T
     SCC iter.                  ...        0 min, 33.129 sec
     gradient                   ...        0 min,  8.270 sec
 * total energy  :  -348.3105698 Eh     change       -0.1594613E-02 Eh
   gradient norm :     0.0034492 Eh/α   predicted    -0.1550685E-02 (  -2.75%)
   displ. norm   :     0.9265971 α      lambda       -0.1567408E-02
   maximum displ.:     0.5148597 α      in ANC's #1, #7, #20, ...

........................................................................
.............................. CYCLE   40 ..............................
........................................................................
   1   -354.3073731 -0.354307E+03  0.684E-02    0.47       0.0  T
   2   -354.3072168  0.156294E-03  0.506E-02    0.47       1.0  T
   3   -354.3067655  0.451311E-03  0.611E-02    0.48       1.0  T
   4   -354.3074188 -0.653319E-03  0.817E-03    0.48       1.0  T
   5   -354.3074268 -0.798176E-05  0.195E-03    0.47       3.5  T
   6   -354.3074275 -0.729888E-06  0.812E-04    0.47       8.3  T
   7   -354.3074275  0.234386E-07  0.716E-04    0.47       9.4  T
     SCC iter.                  ...        0 min, 24.521 sec
     gradient                   ...        0 min,  7.843 sec
 * total energy  :  -348.3120763 Eh     change       -0.1506438E-02 Eh
   gradient norm :     0.0038851 Eh/α   predicted    -0.1456592E-02 (  -3.31%)
   displ. norm   :     0.9225488 α      lambda       -0.1488931E-02
   maximum displ.:     0.5219082 α      in ANC's #1, #7, #20, ...

........................................................................
.............................. CYCLE   41 ..............................
........................................................................
   1   -354.3084407 -0.354308E+03  0.690E-02    0.47       0.0  T
   2   -354.3083167  0.124038E-03  0.490E-02    0.47       1.0  T
   3   -354.3077265  0.590195E-03  0.643E-02    0.48       1.0  T
   4   -354.3084776 -0.751186E-03  0.801E-03    0.47       1.0  T
   5   -354.3084855 -0.785463E-05  0.186E-03    0.47       3.6  T
   6   -354.3084862 -0.694299E-06  0.752E-04    0.47       9.0  T
   7   -354.3084862 -0.133666E-07  0.458E-04    0.47      14.7  T
     SCC iter.                  ...        0 min, 31.551 sec
     gradient                   ...        0 min,  7.602 sec
 * total energy  :  -348.3135035 Eh     change       -0.1427211E-02 Eh
   gradient norm :     0.0036635 Eh/α   predicted    -0.1378078E-02 (  -3.44%)
   displ. norm   :     0.9136938 α      lambda       -0.1418614E-02
   maximum displ.:     0.5292161 α      in ANC's #1, #7, #20, ...

........................................................................
.............................. CYCLE   42 ..............................
........................................................................
   1   -354.3110803 -0.354311E+03  0.696E-02    0.47       0.0  T
   2   -354.3109684  0.111907E-03  0.485E-02    0.47       1.0  T
   3   -354.3102950  0.673399E-03  0.665E-02    0.48       1.0  T
   4   -354.3111141 -0.819017E-03  0.709E-03    0.47       1.0  T
   5   -354.3111208 -0.670129E-05  0.178E-03    0.47       3.8  T
   6   -354.3111214 -0.633734E-06  0.744E-04    0.47       9.1  T
   7   -354.3111214  0.122536E-07  0.590E-04    0.47      11.4  T
     SCC iter.                  ...        0 min, 46.184 sec
     gradient                   ...        0 min, 11.058 sec
 * total energy  :  -348.3148611 Eh     change       -0.1357647E-02 Eh
   gradient norm :     0.0038106 Eh/α   predicted    -0.1301464E-02 (  -4.14%)
   displ. norm   :     0.9132046 α      lambda       -0.1353765E-02
   maximum displ.:     0.5379187 α      in ANC's #1, #7, #20, ...
 * RMSD in coord.:     1.2825215 α      energy gain  -0.4687008E-01 Eh

generating ANC from model Hessian ...
Using Lindh-Hessian (1995)
 Shifting diagonal of input Hessian by   9.981170975105147E-003
 Lowest  eigenvalues of input Hessian
    0.000000    0.000000    0.000000    0.000000    0.000000    0.000000
    0.010000    0.010046    0.010072    0.010092    0.010108    0.010154
    0.010190    0.010241    0.010244    0.010289    0.010315    0.010364
 Highest eigenvalues
    2.168697    2.185161    2.185634    2.185994    2.198977    2.199964
 

........................................................................
.............................. CYCLE   43 ..............................
........................................................................
   1   -354.3119889 -0.354312E+03  0.716E-02    0.47       0.0  T
   2   -354.3118924  0.964651E-04  0.485E-02    0.47       1.0  T
   3   -354.3110844  0.808024E-03  0.703E-02    0.48       1.0  T
   4   -354.3120184 -0.934038E-03  0.636E-03    0.47       1.1  T
   5   -354.3120247 -0.626924E-05  0.173E-03    0.47       3.9  T
   6   -354.3120253 -0.603837E-06  0.743E-04    0.47       9.1  T
   7   -354.3120253  0.338518E-07  0.663E-04    0.47      10.2  T
     SCC iter.                  ...        0 min, 54.406 sec
     gradient                   ...        0 min, 10.440 sec
 * total energy  :  -348.3161610 Eh     change       -0.1299841E-02 Eh
   gradient norm :     0.0039948 Eh/α   predicted     0.0000000E+00 (-100.00%)
   displ. norm   :     0.1550237 α      lambda       -0.2984188E-03
   maximum displ.:     0.0757971 α      in ANC's #2, #4, #1, ...

........................................................................
.............................. CYCLE   44 ..............................
........................................................................
   1   -354.3133070 -0.354313E+03  0.151E-02    0.47       0.0  T
   2   -354.3133073 -0.303166E-06  0.893E-03    0.47       1.0  T
   3   -354.3133035  0.383886E-05  0.477E-03    0.47       1.4  T
   4   -354.3133066 -0.307063E-05  0.244E-03    0.47       2.8  T
   5   -354.3133078 -0.119746E-05  0.541E-04    0.47      12.5  T
   6   -354.3133078 -0.427485E-07  0.187E-04    0.47      36.1  T
   7   -354.3133078 -0.693603E-09  0.106E-04    0.47      63.9  T
     SCC iter.                  ...        0 min, 50.958 sec
     gradient                   ...        0 min, 10.437 sec
 * total energy  :  -348.3164450 Eh     change       -0.2840106E-03 Eh
   gradient norm :     0.0021328 Eh/α   predicted    -0.1529504E-03 ( -46.15%)
   displ. norm   :     0.6235559 α      lambda       -0.1076147E-02
   maximum displ.:     0.2839274 α      in ANC's #2, #4, #1, ...

........................................................................
.............................. CYCLE   45 ..............................
........................................................................
   1   -354.3139238 -0.354314E+03  0.610E-02    0.47       0.0  T
   2   -354.3139275 -0.368218E-05  0.360E-02    0.47       1.0  T
   3   -354.3138385  0.890134E-04  0.203E-02    0.47       1.0  T
   4   -354.3139090 -0.705296E-04  0.116E-02    0.47       1.0  T
   5   -354.3139348 -0.258372E-04  0.175E-03    0.47       3.9  T
   6   -354.3139352 -0.413642E-06  0.725E-04    0.47       9.3  T
   7   -354.3139353 -0.202098E-07  0.352E-04    0.47      19.2  T
     SCC iter.                  ...        0 min, 50.820 sec
     gradient                   ...        0 min, 11.523 sec
 * total energy  :  -348.3173748 Eh     change       -0.9298202E-03 Eh
   gradient norm :     0.0066495 Eh/α   predicted    -0.7472879E-03 ( -19.63%)
   displ. norm   :     0.7323230 α      lambda       -0.1023842E-02
   maximum displ.:     0.3431447 α      in ANC's #2, #4, #1, ...

........................................................................
.............................. CYCLE   46 ..............................
........................................................................
   1   -354.3121766 -0.354312E+03  0.699E-02    0.47       0.0  T
   2   -354.3121760  0.569629E-06  0.414E-02    0.47       1.0  T
   3   -354.3118909  0.285133E-03  0.363E-02    0.48       1.0  T
   4   -354.3121675 -0.276623E-03  0.115E-02    0.47       1.0  T
   5   -354.3121905 -0.229977E-04  0.172E-03    0.47       3.9  T
   6   -354.3121910 -0.452661E-06  0.773E-04    0.47       8.7  T
   7   -354.3121910 -0.296617E-07  0.361E-04    0.47      18.7  T
     SCC iter.                  ...        0 min, 44.999 sec
     gradient                   ...        0 min, 10.832 sec
 * total energy  :  -348.3182612 Eh     change       -0.8864416E-03 Eh
   gradient norm :     0.0114132 Eh/α   predicted    -0.7864938E-03 ( -11.28%)
   displ. norm   :     0.7081699 α      lambda       -0.1016369E-02
   maximum displ.:     0.3438427 α      in ANC's #2, #4, #1, ...

........................................................................
.............................. CYCLE   47 ..............................
........................................................................
   1   -354.3122169 -0.354312E+03  0.666E-02    0.47       0.0  T
   2   -354.3122075  0.947606E-05  0.400E-02    0.47       1.0  T
   3   -354.3117011  0.506338E-03  0.496E-02    0.48       1.0  T
   4   -354.3122212 -0.520129E-03  0.667E-03    0.47       1.0  T
   5   -354.3122295 -0.827913E-05  0.142E-03    0.47       4.7  T
   6   -354.3122299 -0.334295E-06  0.652E-04    0.47      10.3  T
   7   -354.3122299 -0.188399E-07  0.347E-04    0.47      19.4  T
     SCC iter.                  ...        0 min, 45.153 sec
     gradient                   ...        0 min,  9.508 sec
 * total energy  :  -348.3192066 Eh     change       -0.9454064E-03 Eh
   gradient norm :     0.0098484 Eh/α   predicted    -0.7630590E-03 ( -19.29%)
   displ. norm   :     0.7597462 α      lambda       -0.1215841E-02
   maximum displ.:     0.3800961 α      in ANC's #2, #4, #1, ...

........................................................................
.............................. CYCLE   48 ..............................
........................................................................
   1   -354.3156591 -0.354316E+03  0.695E-02    0.47       0.0  T
   2   -354.3156252  0.339381E-04  0.435E-02    0.47       1.0  T
   3   -354.3147761  0.849137E-03  0.669E-02    0.48       1.0  T
   4   -354.3156734 -0.897340E-03  0.551E-03    0.47       1.2  T
   5   -354.3156796 -0.624103E-05  0.157E-03    0.47       4.3  T
   6   -354.3156801 -0.445645E-06  0.699E-04    0.47       9.6  T
   7   -354.3156801 -0.246189E-07  0.318E-04    0.47      21.2  T
     SCC iter.                  ...        0 min, 43.418 sec
     gradient                   ...        0 min,  9.218 sec
 * total energy  :  -348.3202593 Eh     change       -0.1052642E-02 Eh
   gradient norm :     0.0043229 Eh/α   predicted    -0.9588248E-03 (  -8.91%)
   displ. norm   :     0.8553561 α      lambda       -0.1051385E-02
   maximum displ.:     0.4272017 α      in ANC's #2, #4, #1, ...

........................................................................
.............................. CYCLE   49 ..............................
........................................................................
   1   -354.3133706 -0.354313E+03  0.762E-02    0.47       0.0  T
   2   -354.3132973  0.732862E-04  0.497E-02    0.48       1.0  T
   3   -354.3122499  0.104741E-02  0.768E-02    0.48       1.0  T
   4   -354.3133951 -0.114521E-02  0.644E-03    0.48       1.0  T
   5   -354.3134029 -0.780246E-05  0.174E-03    0.48       3.9  T
   6   -354.3134035 -0.552180E-06  0.825E-04    0.48       8.2  T
   7   -354.3134034  0.260131E-07  0.714E-04    0.48       9.4  T
     SCC iter.                  ...        0 min, 50.598 sec
     gradient                   ...        0 min, 11.068 sec
 * total energy  :  -348.3212380 Eh     change       -0.9787514E-03 Eh
   gradient norm :     0.0051333 Eh/α   predicted    -0.9103090E-03 (  -6.99%)
   displ. norm   :     0.8480135 α      lambda       -0.9949596E-03
   maximum displ.:     0.4308988 α      in ANC's #2, #4, #1, ...

........................................................................
.............................. CYCLE   50 ..............................
........................................................................
   1   -354.3144106 -0.354314E+03  0.728E-02    0.48       0.0  T
   2   -354.3142899  0.120733E-03  0.507E-02    0.48       1.0  T
   3   -354.3135403  0.749566E-03  0.702E-02    0.49       1.0  T
   4   -354.3144483 -0.907937E-03  0.787E-03    0.48       1.0  T
   5   -354.3144555 -0.719972E-05  0.194E-03    0.48       3.5  T
   6   -354.3144562 -0.690864E-06  0.801E-04    0.48       8.4  T
   7   -354.3144562 -0.213177E-07  0.409E-04    0.48      16.5  T
     SCC iter.                  ...        0 min, 55.751 sec
     gradient                   ...        0 min,  9.718 sec
 * total energy  :  -348.3221680 Eh     change       -0.9299709E-03 Eh
   gradient norm :     0.0051476 Eh/α   predicted    -0.8552350E-03 (  -8.04%)
   displ. norm   :     0.8570074 α      lambda       -0.9519178E-03
   maximum displ.:     0.4417727 α      in ANC's #2, #4, #1, ...

........................................................................
.............................. CYCLE   51 ..............................
........................................................................
   1   -354.3176184 -0.354318E+03  0.725E-02    0.48       0.0  T
   2   -354.3174411  0.177265E-03  0.536E-02    0.48       1.0  T
   3   -354.3169110  0.530139E-03  0.659E-02    0.49       1.0  T
   4   -354.3176710 -0.759986E-03  0.911E-03    0.49       1.0  T
   5   -354.3176782 -0.718925E-05  0.215E-03    0.49       3.1  T
   6   -354.3176789 -0.736263E-06  0.839E-04    0.49       8.0  T
   7   -354.3176789 -0.272746E-07  0.383E-04    0.49      17.6  T
     SCC iter.                  ...        0 min, 44.573 sec
     gradient                   ...        0 min, 10.560 sec
 * total energy  :  -348.3230537 Eh     change       -0.8856989E-03 Eh
   gradient norm :     0.0047990 Eh/α   predicted    -0.8255434E-03 (  -6.79%)
   displ. norm   :     0.8664295 α      lambda       -0.8900472E-03
   maximum displ.:     0.4519048 α      in ANC's #2, #4, #1, ...

........................................................................
.............................. CYCLE   52 ..............................
........................................................................
   1   -354.3207446 -0.354321E+03  0.731E-02    0.49       0.0  T
   2   -354.3205323  0.212293E-03  0.556E-02    0.48       1.0  T
   3   -354.3201130  0.419248E-03  0.639E-02    0.49       1.0  T
   4   -354.3208059 -0.692851E-03  0.110E-02    0.49       1.0  T
   5   -354.3208146 -0.872161E-05  0.231E-03    0.49       2.9  T
   6   -354.3208154 -0.827144E-06  0.886E-04    0.49       7.6  T
   7   -354.3208154 -0.296665E-07  0.454E-04    0.49      14.8  T
     SCC iter.                  ...        0 min, 46.517 sec
     gradient                   ...        0 min,  9.809 sec
 * total energy  :  -348.3238835 Eh     change       -0.8297588E-03 Eh
   gradient norm :     0.0044480 Eh/α   predicted    -0.7791149E-03 (  -6.10%)
   displ. norm   :     0.8651126 α      lambda       -0.8309690E-03
   maximum displ.:     0.4574234 α      in ANC's #2, #4, #1, ...

........................................................................
.............................. CYCLE   53 ..............................
........................................................................
   1   -354.3240924 -0.354324E+03  0.722E-02    0.49       0.0  T
   2   -354.3238739  0.218495E-03  0.554E-02    0.48       1.0  T
   3   -354.3235131  0.360813E-03  0.619E-02    0.50       1.0  T
   4   -354.3241548 -0.641737E-03  0.123E-02    0.49       1.0  T
   5   -354.3241642 -0.942314E-05  0.233E-03    0.49       2.9  T
   6   -354.3241651 -0.870895E-06  0.905E-04    0.49       7.4  T
   7   -354.3241651 -0.411545E-07  0.463E-04    0.49      14.6  T
     SCC iter.                  ...        0 min, 41.256 sec
     gradient                   ...        0 min, 10.094 sec
 * total energy  :  -348.3246574 Eh     change       -0.7739418E-03 Eh
   gradient norm :     0.0037766 Eh/α   predicted    -0.7264414E-03 (  -6.14%)
   displ. norm   :     0.8626700 α      lambda       -0.7723264E-03
   maximum displ.:     0.4618364 α      in ANC's #2, #4, #1, ...

........................................................................
.............................. CYCLE   54 ..............................
........................................................................
   1   -354.3262618 -0.354326E+03  0.713E-02    0.49       0.0  T
   2   -354.3260779  0.183900E-03  0.530E-02    0.49       1.0  T
   3   -354.3256544  0.423498E-03  0.620E-02    0.50       1.0  T
   4   -354.3263138 -0.659422E-03  0.135E-02    0.49       1.0  T
   5   -354.3263246 -0.107627E-04  0.234E-03    0.49       2.9  T
   6   -354.3263255 -0.929258E-06  0.907E-04    0.49       7.4  T
   7   -354.3263256 -0.460570E-07  0.473E-04    0.49      14.2  T
     SCC iter.                  ...        0 min, 44.535 sec
     gradient                   ...        0 min,  9.437 sec
 * total energy  :  -348.3253743 Eh     change       -0.7168572E-03 Eh
   gradient norm :     0.0030642 Eh/α   predicted    -0.6735469E-03 (  -6.04%)
   displ. norm   :     0.8549352 α      lambda       -0.7163891E-03
   maximum displ.:     0.4640719 α      in ANC's #2, #4, #1, ...

........................................................................
.............................. CYCLE   55 ..............................
........................................................................
   1   -354.3290302 -0.354329E+03  0.687E-02    0.49       0.0  T
   2   -354.3288981  0.132113E-03  0.487E-02    0.49       1.0  T
   3   -354.3284136  0.484519E-03  0.607E-02    0.50       1.0  T
   4   -354.3290661 -0.652550E-03  0.140E-02    0.49       1.0  T
   5   -354.3290782 -0.120390E-04  0.230E-03    0.49       2.9  T
   6   -354.3290791 -0.941378E-06  0.888E-04    0.49       7.6  T
   7   -354.3290791 -0.965542E-08  0.636E-04    0.49      10.6  T
     SCC iter.                  ...        0 min, 42.965 sec
     gradient                   ...        0 min,  8.182 sec
 * total energy  :  -348.3260319 Eh     change       -0.6576144E-03 Eh
   gradient norm :     0.0032749 Eh/α   predicted    -0.6200050E-03 (  -5.72%)
   displ. norm   :     0.8510301 α      lambda       -0.6614654E-03
   maximum displ.:     0.4657241 α      in ANC's #2, #4, #1, ...

........................................................................
.............................. CYCLE   56 ..............................
........................................................................
   1   -354.3284598 -0.354328E+03  0.678E-02    0.49       0.0  T
   2   -354.3283872  0.726140E-04  0.445E-02    0.49       1.0  T
   3   -354.3277789  0.608304E-03  0.610E-02    0.50       1.0  T
   4   -354.3284772 -0.698328E-03  0.134E-02    0.49       1.0  T
   5   -354.3284896 -0.124080E-04  0.204E-03    0.49       3.3  T
   6   -354.3284904 -0.721564E-06  0.820E-04    0.49       8.2  T
   7   -354.3284904 -0.438172E-07  0.391E-04    0.49      17.3  T
     SCC iter.                  ...        0 min, 41.990 sec
     gradient                   ...        0 min,  9.524 sec
 * total energy  :  -348.3266328 Eh     change       -0.6009576E-03 Eh
   gradient norm :     0.0038385 Eh/α   predicted    -0.5702770E-03 (  -5.11%)
   displ. norm   :     0.8310674 α      lambda       -0.6058694E-03
   maximum displ.:     0.4604993 α      in ANC's #2, #4, #1, ...

........................................................................
.............................. CYCLE   57 ..............................
........................................................................
   1   -354.3305541 -0.354331E+03  0.627E-02    0.49       0.0  T
   2   -354.3305229  0.312139E-04  0.389E-02    0.49       1.0  T
   3   -354.3300585  0.464396E-03  0.510E-02    0.50       1.0  T
   4   -354.3305515 -0.493048E-03  0.140E-02    0.49       1.0  T
   5   -354.3305710 -0.194865E-04  0.188E-03    0.49       3.6  T
   6   -354.3305716 -0.614092E-06  0.778E-04    0.49       8.7  T
   7   -354.3305716  0.208599E-07  0.688E-04    0.49       9.8  T
     SCC iter.                  ...        0 min, 42.984 sec
     gradient                   ...        0 min,  9.602 sec
 * total energy  :  -348.3271856 Eh     change       -0.5527448E-03 Eh
   gradient norm :     0.0039984 Eh/α   predicted    -0.5121659E-03 (  -7.34%)
   displ. norm   :     0.8293547 α      lambda       -0.5511217E-03
   maximum displ.:     0.4630367 α      in ANC's #2, #4, #1, ...

........................................................................
.............................. CYCLE   58 ..............................
[...]
          |                Geometry Summary                 |
           -------------------------------------------------

      molecular mass/u    :     1823.6966160
   center of mass at/Å    :       10.7957290       9.0214456      11.7084308
  moments of inertia/u·Å² :        0.3649670E+05   0.5817599E+05   0.5847175E+05
rotational constants/cm⁻¹ :        0.4618947E-03   0.2897696E-03   0.2883039E-03

 * 237 selected distances

     #   Z          #   Z                                           value/Å
     1  26 Fe       5   7 N                                       1.9312511
     1  26 Fe       6   7 N                                       1.9032508
     2  26 Fe       7   7 N                                       1.9550283 (max)
     5   7 N        9   6 C                                       1.3970453
     9   6 C       10   6 C                                       1.3993291
    10   6 C       11   6 C                                       1.3811034
    11   6 C       12   6 C                                       1.3863733
    12   6 C       13   6 C                                       1.3865012
     9   6 C       14   6 C                                       1.3944177
    13   6 C       14   6 C                                       1.3815772
     5   7 N       15   6 C                                       1.2921716
     6   7 N       16   6 C                                       1.3486441
    15   6 C       16   6 C                                       1.4316965
    16   6 C       17   6 C                                       1.3977494
    17   6 C       18   6 C                                       1.3790455
    18   6 C       19   6 C                                       1.3996552
     6   7 N       20   6 C                                       1.3217523
    19   6 C       20   6 C                                       1.3929969
    21   6 C       22   6 C                                       1.3788969
    22   6 C       23   6 C                                       1.4046605
    23   6 C       24   6 C                                       1.4122276
    24   6 C       25   6 C                                       1.3673050
    25   6 C       26   6 C                                       1.4036165
    26   6 C       27   6 C                                       1.3698208
    23   6 C       28   6 C                                       1.4212885
    27   6 C       28   6 C                                       1.4087149
    28   6 C       29   6 C                                       1.4220786
     3   8 O       30   6 C                                       1.3934977
    21   6 C       30   6 C                                       1.4227968
    29   6 C       30   6 C                                       1.3757365
     3   8 O       31   6 C                                       1.4153152
    32   6 C       33   6 C                                       1.4256876
    33   6 C       34   6 C                                       1.4108145
    34   6 C       35   6 C                                       1.3691161
    35   6 C       36   6 C                                       1.4027115
    36   6 C       37   6 C                                       1.3668435
    33   6 C       38   6 C                                       1.4202665
    37   6 C       38   6 C                                       1.4108931
    38   6 C       39   6 C                                       1.4065854
    39   6 C       40   6 C                                       1.3701257
     4   8 O       41   6 C                                       1.3750463
    32   6 C       41   6 C                                       1.3770722
    40   6 C       41   6 C                                       1.4256413
     4   8 O       42   6 C                                       1.4132083
     7   7 N       43   6 C                                       1.3215114
    43   6 C       44   6 C                                       1.3988093
    44   6 C       45   6 C                                       1.4020293
    45   6 C       46   6 C                                       1.3770537
     7   7 N       47   6 C                                       1.3487168
    46   6 C       47   6 C                                       1.3970363
     8   7 N       48   6 C                                       1.2889335
    47   6 C       48   6 C                                       1.4301506
     8   7 N       49   6 C                                       1.4009225
    49   6 C       50   6 C                                       1.3989422
    50   6 C       51   6 C                                       1.3811092
    51   6 C       52   6 C                                       1.3864466
    52   6 C       53   6 C                                       1.3866690
    49   6 C       54   6 C                                       1.3947222
    53   6 C       54   6 C                                       1.3820227
     2  26 Fe      59   7 N                                       1.9033183
     2  26 Fe      60   7 N                                       1.9313157
    57   7 N       61   6 C                                       1.4009217
    61   6 C       62   6 C                                       1.3947239
    62   6 C       63   6 C                                       1.3820217
    63   6 C       64   6 C                                       1.3866706
    64   6 C       65   6 C                                       1.3864459
    61   6 C       66   6 C                                       1.3989412
    65   6 C       66   6 C                                       1.3811084
    57   7 N       67   6 C                                       1.2889284
    58   7 N       68   6 C                                       1.3487159
    67   6 C       68   6 C                                       1.4301492
    68   6 C       69   6 C                                       1.3970325
    69   6 C       70   6 C                                       1.3770516
    70   6 C       71   6 C                                       1.4020246
    58   7 N       72   6 C                                       1.3215140
    71   6 C       72   6 C                                       1.3988087
    73   6 C       74   6 C                                       1.3700922
    74   6 C       75   6 C                                       1.4065829
    75   6 C       76   6 C                                       1.4108928
    76   6 C       77   6 C                                       1.3668299
    77   6 C       78   6 C                                       1.4027106
    78   6 C       79   6 C                                       1.3691164
    75   6 C       80   6 C                                       1.4202526
    79   6 C       80   6 C                                       1.4108223
    80   6 C       81   6 C                                       1.4257196
    55   8 O       82   6 C                                       1.3750026
    73   6 C       82   6 C                                       1.4256618
    81   6 C       82   6 C                                       1.3770722
    55   8 O       83   6 C                                       1.4131422
    84   6 C       85   6 C                                       1.4220856
    85   6 C       86   6 C                                       1.4087144
    86   6 C       87   6 C                                       1.3698229
    87   6 C       88   6 C                                       1.4036149
    88   6 C       89   6 C                                       1.3673075
    85   6 C       90   6 C                                       1.4212896
    89   6 C       90   6 C                                       1.4122276
    90   6 C       91   6 C                                       1.4046618
    91   6 C       92   6 C                                       1.3788963
    56   8 O       93   6 C                                       1.3935110
    84   6 C       93   6 C                                       1.3757251
    92   6 C       93   6 C                                       1.4228068
    56   8 O       94   6 C                                       1.4153041
    59   7 N       95   6 C                                       1.3217654
    95   6 C       96   6 C                                       1.3930091
    96   6 C       97   6 C                                       1.3996692
    97   6 C       98   6 C                                       1.3790390
    59   7 N       99   6 C                                       1.3486414
    98   6 C       99   6 C                                       1.3977494
    60   7 N      100   6 C                                       1.2921664
    99   6 C      100   6 C                                       1.4316979
    60   7 N      101   6 C                                       1.3970599
   101   6 C      102   6 C                                       1.3944220
   102   6 C      103   6 C                                       1.3815746
   103   6 C      104   6 C                                       1.3864988
   104   6 C      105   6 C                                       1.3863762
   101   6 C      106   6 C                                       1.3993312
   105   6 C      106   6 C                                       1.3811065
     1  26 Fe     107   7 N                                       1.9294765
     1  26 Fe     108   7 N                                       1.9440392
     2  26 Fe     109   7 N                                       1.9439802
     2  26 Fe     110   7 N                                       1.9294084
   107   7 N      111   6 C                                       1.3969263
   111   6 C      112   6 C                                       1.3961058
   112   6 C      113   6 C                                       1.3813188
   113   6 C      114   6 C                                       1.3869285
   114   6 C      115   6 C                                       1.3868886
   111   6 C      116   6 C                                       1.4013561
   115   6 C      116   6 C                                       1.3804195
   107   7 N      117   6 C                                       1.2956838
   108   7 N      118   6 C                                       1.3513286
   117   6 C      118   6 C                                       1.4270033
   118   6 C      119   6 C                                       1.3995738
   119   6 C      120   6 C                                       1.3766553
   120   6 C      121   6 C                                       1.4019962
   108   7 N      122   6 C                                       1.3265879
   121   6 C      122   6 C                                       1.3936751
   109   7 N      123   6 C                                       1.3265735
   123   6 C      124   6 C                                       1.3936791
   124   6 C      125   6 C                                       1.4019888
   125   6 C      126   6 C                                       1.3766728
   109   7 N      127   6 C                                       1.3513344
   126   6 C      127   6 C                                       1.3995795
   110   7 N      128   6 C                                       1.2956943
   127   6 C      128   6 C                                       1.4270108
   110   7 N      129   6 C                                       1.3969282
   129   6 C      130   6 C                                       1.4013528
   130   6 C      131   6 C                                       1.3804208
   131   6 C      132   6 C                                       1.3868877
   132   6 C      133   6 C                                       1.3869258
   129   6 C      134   6 C                                       1.3961118
   133   6 C      134   6 C                                       1.3813166
    10   6 C      135   1 H                                       1.0806532
    11   6 C      136   1 H                                       1.0787598
    12   6 C      137   1 H                                       1.0780247
    13   6 C      138   1 H                                       1.0785733
    14   6 C      139   1 H                                       1.0756521
    15   6 C      140   1 H                                       1.0853476
    17   6 C      141   1 H                                       1.0781476
    18   6 C      142   1 H                                       1.0780417
    20   6 C      143   1 H                                       1.0795461
    22   6 C      144   1 H                                       1.0800059
    24   6 C      145   1 H                                       1.0792942
    25   6 C      146   1 H                                       1.0782891
    26   6 C      147   1 H                                       1.0786849
    27   6 C      148   1 H                                       1.0800129
    31   6 C      149   1 H                                       1.0955718
    31   6 C      150   1 H                                       1.0942494
    31   6 C      151   1 H                                       1.0890615
    34   6 C      152   1 H                                       1.0793499
    35   6 C      153   1 H                                       1.0786925
    36   6 C      154   1 H                                       1.0782941
    37   6 C      155   1 H                                       1.0796539
    39   6 C      156   1 H                                       1.0803728
    42   6 C      157   1 H                                       1.0931799
    42   6 C      158   1 H                                       1.0910147
    42   6 C      159   1 H                                       1.0910025
    43   6 C      160   1 H                                       1.0791164
    45   6 C      161   1 H                                       1.0785125
    46   6 C      162   1 H                                       1.0779123
    48   6 C      163   1 H                                       1.0855692
    50   6 C      164   1 H                                       1.0807507
    51   6 C      165   1 H                                       1.0786008
    52   6 C      166   1 H                                       1.0780398
    53   6 C      167   1 H                                       1.0786092
    54   6 C      168   1 H                                       1.0773637
    62   6 C      169   1 H                                       1.0773665
    63   6 C      170   1 H                                       1.0786074
    64   6 C      171   1 H                                       1.0780389
    65   6 C      172   1 H                                       1.0786025
    66   6 C      173   1 H                                       1.0807527
    67   6 C      174   1 H                                       1.0855688
    69   6 C      175   1 H                                       1.0779113
    70   6 C      176   1 H                                       1.0785127
    72   6 C      177   1 H                                       1.0791196
    74   6 C      178   1 H                                       1.0803712
    76   6 C      179   1 H                                       1.0796507
    77   6 C      180   1 H                                       1.0782908
    78   6 C      181   1 H                                       1.0786932
    79   6 C      182   1 H                                       1.0793506
    83   6 C      183   1 H                                       1.0910032
    83   6 C      184   1 H                                       1.0931898
    83   6 C      185   1 H                                       1.0910103
    86   6 C      186   1 H                                       1.0800110
    87   6 C      187   1 H                                       1.0786855
    88   6 C      188   1 H                                       1.0782899
    89   6 C      189   1 H                                       1.0792937
    91   6 C      190   1 H                                       1.0800055
    94   6 C      191   1 H                                       1.0890631
    94   6 C      192   1 H                                       1.0942481
    94   6 C      193   1 H                                       1.0955724
    95   6 C      194   1 H                                       1.0795468
    97   6 C      195   1 H                                       1.0780401
    98   6 C      196   1 H                                       1.0781476
   100   6 C      197   1 H                                       1.0853479
   102   6 C      198   1 H                                       1.0756421 (min)
   103   6 C      199   1 H                                       1.0785747
   104   6 C      200   1 H                                       1.0780257
   105   6 C      201   1 H                                       1.0787603
   106   6 C      202   1 H                                       1.0806524
   112   6 C      203   1 H                                       1.0767294
   113   6 C      204   1 H                                       1.0784908
   114   6 C      205   1 H                                       1.0780618
   115   6 C      206   1 H                                       1.0787270
   116   6 C      207   1 H                                       1.0809146
   117   6 C      208   1 H                                       1.0849322
   119   6 C      209   1 H                                       1.0778644
   120   6 C      210   1 H                                       1.0785566
   122   6 C      211   1 H                                       1.0791568
   123   6 C      212   1 H                                       1.0791525
   125   6 C      213   1 H                                       1.0785568
   126   6 C      214   1 H                                       1.0778667
   128   6 C      215   1 H                                       1.0849305
   130   6 C      216   1 H                                       1.0809138
   131   6 C      217   1 H                                       1.0787262
   132   6 C      218   1 H                                       1.0780624
   133   6 C      219   1 H                                       1.0784914
   134   6 C      220   1 H                                       1.0767295

 * 5 distinct bonds (by element types)

   Z      Z             #   av. dist./Å        max./Å        min./Å
   1 H    6 C          86     1.0811019     1.0955724     1.0756421
   6 C    6 C         110     1.3958233     1.4316979     1.3668299
   6 C    7 N          24     1.3408528     1.4009225     1.2889284
   6 C    8 O           8     1.3992534     1.4153152     1.3750026
   7 N   26 Fe          9     1.9301187     1.9550283     1.9032508


optimized geometry written to: xtbopt.xyz


           -------------------------------------------------
          | TOTAL ENERGY             -348.355302344851 Eh   |
          | GRADIENT NORM               0.000183510219 Eh/α |
          | HOMO-LUMO GAP               0.582738534189 eV   |
           -------------------------------------------------

------------------------------------------------------------------------
 * finished run on 2021/03/23 at 17:32:31.770     
------------------------------------------------------------------------
 total:
 * wall-time:     0 d,  1 h, 37 min,  1.268 sec
 *  cpu-time:     0 d,  0 h, 46 min,  2.178 sec
 * ratio c/w:     0.474 speedup
 SCF:
 * wall-time:     0 d,  0 h,  0 min, 47.623 sec
 *  cpu-time:     0 d,  0 h,  0 min, 30.667 sec
 * ratio c/w:     0.644 speedup
 ANC optimizer:
 * wall-time:     0 d,  1 h, 36 min, 12.565 sec
 *  cpu-time:     0 d,  0 h, 45 min, 29.349 sec
 * ratio c/w:     0.473 speedup

