43
 energy: -68.521782767648 gnorm: 0.000121030730 xtb: 6.3.1 (2faf18d)
Zn       -0.38732545877145    0.27809839432104   -0.28961152567840
C         1.08869260798879    4.92512645703423   -0.78592798851795
C         1.95771300643349    3.84366225167671   -0.76352248642173
C         1.43281088757135    2.55666274477918   -0.65389264109340
H         3.02456358803111    3.99120770773569   -0.82693409013376
N         0.11055313328794    2.32646921883775   -0.57108076961009
C         2.31366499949158    1.40141748231616   -0.62951197899487
C        -0.71195096450813    3.36480164658251   -0.59720209465841
C        -0.27329689422439    4.67976260117790   -0.70304619042922
H        -1.76807774484915    3.14184820953198   -0.53389846582216
H        -0.98618393585989    5.48844698159335   -0.71950962293806
H         1.46719537643647    5.93231761406097   -0.86692790147075
N         1.80986508234768    0.23892197783566   -0.49608031270241
H         3.38062515514458    1.58983994168932   -0.72904997359857
Br        2.90511807900367   -1.25311266110202   -0.47476093879288
C        -0.54482991696653   -1.19799170714852   -4.94688396356513
C        -0.48479806071931   -2.04959722890665   -3.85115136602304
C        -0.49551282720226   -1.50117925218033   -2.57221725379946
H        -0.42894165404284   -3.11893839843847   -3.98398666985287
N        -0.56239853225689   -0.17677520566533   -2.35839926217692
C        -0.43264734342456   -2.34462795098434   -1.38360124471886
C        -0.62392527692288    0.62930114557103   -3.40608537306161
C        -0.61858731932957    0.16661255566899   -4.71849593970733
H        -0.68187522625390    1.68877735302802   -3.19758422837468
H        -0.66999957472697    0.86561777338612   -5.53793119701678
H        -0.53498392662101   -1.59260588672144   -5.95110943379864
N        -0.43297464888445   -1.80600496439662   -0.23712003205898
H        -0.38794827878527   -3.42071854199991   -1.54720366512513
H        -0.37510046198845   -2.44608384508672    0.54971376969233
C        -4.99839180777697    0.70584503902550    1.25989132391857
C        -3.88566458336806    0.68405167323130    2.09133693862652
C        -2.62012445552347    0.59275094613378    1.51917469644377
H        -3.99631882665481    0.73292454923569    3.16360201820315
N        -2.43614900646782    0.52914657652354    0.18963832576352
C        -1.41642834823669    0.55339329813800    2.34330714098617
C        -3.49976720003650    0.55260627328081   -0.59739614072262
C        -4.80044171439901    0.63946122552630   -0.10980767151398
H        -3.31296637557924    0.50197504888028   -1.66125580572155
H        -5.63413114691652    0.65358784836191   -0.79353030553828
H        -5.99251695980578    0.77252442879920    1.67412400754663
N        -0.28190181557182    0.43586349042375    1.79129093754254
H        -1.56012496360229    0.62437431913742    3.42121283423424
H         0.51464133454064    0.40448386910629    2.42141954068116
