43
 energy: -68.474155649614 gnorm: 0.240485755393 xtb: 6.3.1 (2faf18d)
Zn       -0.21860000000000    0.21860000000000   -0.21860000000000
C         0.97530900000000    4.90461400000000   -0.82281200000000
C         1.89717800000000    3.85333700000000   -0.81489100000000
C         1.44091500000000    2.54017100000000   -0.62908900000000
H         2.95091000000000    4.06411200000000   -0.95293500000000
N         0.10163400000000    2.32114200000000   -0.45952800000000
C         2.34702600000000    1.45974000000000   -0.62029000000000
C        -0.81174400000000    3.32695800000000   -0.46407700000000
C        -0.38625600000000    4.64369600000000   -0.64692000000000
H        -1.86196100000000    3.10827100000000   -0.32938000000000
H        -1.10369700000000    5.45394300000000   -0.65322300000000
H         1.31645700000000    5.92175500000000   -0.96588000000000
N         1.90897500000000    0.18977000000000   -0.44409800000000
H         3.40674500000000    1.63968200000000   -0.75686600000000
Br        3.06138100000000   -1.30891800000000   -0.43118400000000
C        -0.76127200000000   -1.10515200000000   -4.87242800000000
C        -0.74623400000000   -1.99812400000000   -3.79655500000000
C        -0.58088500000000   -1.50348600000000   -2.49452400000000
H        -0.86275300000000   -3.05951800000000   -3.98011000000000
N        -0.43792800000000   -0.15638800000000   -2.31063800000000
C        -0.56414900000000   -2.38080800000000   -1.39053100000000
C        -0.44949900000000    0.72966700000000   -3.34054100000000
C        -0.61251800000000    0.26590200000000   -4.64686600000000
H        -0.33514700000000    1.78756200000000   -3.14901600000000
H        -0.62411600000000    0.96113600000000   -5.47619300000000
H        -0.88858800000000   -1.47609100000000   -5.88119300000000
N        -0.40547000000000   -1.91322300000000   -0.12841300000000
H        -0.67823100000000   -3.44735100000000   -1.54427200000000
H        -0.38972500000000   -2.54092300000000    0.70522500000000
C        -4.89008800000000    0.71022700000000    1.06174400000000
C        -3.82012100000000    0.73464500000000    1.96162900000000
C        -2.51215900000000    0.57951900000000    1.47932600000000
H        -4.01272000000000    0.87371300000000    3.01869800000000
N        -2.31690400000000    0.40732000000000    0.13730600000000
C        -1.41372400000000    0.60355900000000    2.36348400000000
C        -3.34083800000000    0.38073800000000   -0.75535900000000
C        -4.65282900000000    0.53270900000000   -0.30391900000000
H        -3.14021400000000    0.24518600000000   -1.80906800000000
H        -5.47751700000000    0.51405200000000   -1.00450900000000
H        -5.90331800000000    0.82948500000000    1.42311100000000
N        -0.14584600000000    0.45788500000000    1.90741000000000
H        -1.57641100000000    0.74108100000000    3.42594900000000
H         0.68409000000000    0.47405000000000    2.54002100000000
43
 energy: -68.511417148206 gnorm: 0.100395968310 xtb: 6.3.1 (2faf18d)
Zn       -0.22835920436454    0.21824028001929   -0.21586915618141
C         0.98081194178446    4.90453611895184   -0.82304394959684
C         1.89116695730528    3.85492216036542   -0.81381772087097
C         1.42477764798267    2.54433452274329   -0.62815479017112
H         2.94438670375929    4.05740932904936   -0.95034019498394
N         0.10060888668658    2.31073317928955   -0.46311783816042
C         2.33671223503614    1.43936952075272   -0.61702190633394
C        -0.77662732838485    3.31844856310776   -0.46793486682158
C        -0.37083651016613    4.63801022681321   -0.64724449818619
H        -1.82511666080064    3.08927568191177   -0.33232526572384
H        -1.09425679278792    5.44194836293743   -0.65213367700610
H         1.32021123563117    5.91970898455417   -0.96547052027259
N         1.89623934567364    0.22577062046610   -0.44601592151373
H         3.39746356077633    1.62872637639491   -0.75398549179293
Br        3.05445224570084   -1.24014501123627   -0.43678273337131
C        -0.76116013316015   -1.11010520940607   -4.87272115011534
C        -0.74466888883171   -1.99114840385435   -3.79761094675816
C        -0.57812697434181   -1.48522264678314   -2.50030153986493
H        -0.86032119303923   -3.05208980469817   -3.97232479784610
N        -0.43800519740633   -0.15455284029105   -2.30150449382282
C        -0.55757919771612   -2.36405060705144   -1.36547891690229
C        -0.45117902779930    0.69544935131497   -3.33112894814856
C        -0.61267360295599    0.25070022139764   -4.64102263251617
H        -0.33722794940039    1.75206494778874   -3.12917387143143
H        -0.62302070558947    0.95213963207205   -5.46420241928834
H        -0.88800983181160   -1.47941827788706   -5.87952375441054
N        -0.40759574842228   -1.89498048474008   -0.17035261641493
H        -0.67356257337770   -3.43313453936273   -1.52997544981802
H        -0.39037026917999   -2.53901644105516    0.62950384881729
C        -4.89182111350739    0.71067062572588    1.06730254848038
C        -3.82261883096713    0.73369197347675    1.95553426346495
C        -2.51939710660872    0.57879519411240    1.46164512748628
H        -4.00606552621010    0.87130266766844    3.01225177335651
N        -2.31173185794986    0.41159425585974    0.13575665297473
C        -1.38907312506154    0.59955374197321    2.34692779076570
C        -3.33456762508510    0.38518807122052   -0.72105981925819
C        -4.64947977463778    0.53354565887429   -0.28830989044122
H        -3.12234490039786    0.24890198265742   -1.77305146665895
H        -5.46766062803719    0.51355712078526   -0.99510291240463
H        -5.90284153146946    0.82930853715366    1.42716302898809
N        -0.18767626090741    0.45866912336676    1.88963293999695
H        -1.56236439469233    0.73718205321092    3.41210254560856
H         0.60866770473159    0.47436018035008    2.53827863714806
43
 energy: -68.519403162153 gnorm: 0.034807132497 xtb: 6.3.1 (2faf18d)
Zn       -0.24233513040102    0.22193158493255   -0.21856537955733
C         0.98884495797575    4.90984278173487   -0.82353286112082
C         1.89278322742587    3.85897085917750   -0.81382949939215
C         1.41824027423612    2.55665584266969   -0.62994950747907
H         2.94682971011950    4.04785786295428   -0.94679641338996
N         0.10780253184268    2.30316885680703   -0.46733654056652
C         2.33357575734389    1.43133320135783   -0.61469204120387
C        -0.74693544958085    3.31133532136315   -0.47313942809956
C        -0.35804260472462    4.63502222796818   -0.64799391504943
H        -1.79278265657497    3.06801472476837   -0.33728425036127
H        -1.08940756034838    5.42886881642281   -0.64914325133559
H         1.32808271237687    5.92395897539536   -0.96520991044422
N         1.88693002964140    0.25702677364382   -0.44188550463143
H         3.39310298149331    1.63929661140933   -0.75470911088638
Br        3.03458796850176   -1.19815486538923   -0.43777212779528
C        -0.76053406095493   -1.11774613890085   -4.87864985507777
C        -0.74328687914007   -1.99252015741881   -3.80189984313804
C        -0.57786020690873   -1.47824988411472   -2.51475536495976
H        -0.85637232729944   -3.05382174100886   -3.96225676949662
N        -0.43947424035628   -0.16138170733052   -2.29560054740466
C        -0.55053636118751   -2.35456308444921   -1.35102204492023
C        -0.45371927768714    0.66684274913413   -3.32420686772581
C        -0.61196510261166    0.23824387889586   -4.63854030000923
H        -0.33972283853839    1.72136106845176   -3.10855740512932
H        -0.61996252242060    0.94818967000934   -5.45163243691826
H        -0.88737107550373   -1.48671040277826   -5.88429962287387
N        -0.39884891813329   -1.87128551536505   -0.20091917792455
H        -0.66588975089755   -3.42447250993776   -1.53436874734652
H        -0.38100593218430   -2.52768594204006    0.57433682052133
C        -4.90069999714758    0.71182601411086    1.07635515285237
C        -3.82963689828404    0.73473543436270    1.95822734124374
C        -2.53642893939647    0.58171561643615    1.45551811179465
H        -3.99882762939671    0.86865416311126    3.01562283260640
N        -2.30964391424872    0.41754097979355    0.14320344255496
C        -1.37646874951995    0.59549138355106    2.33800283608881
C        -3.33172419251609    0.39159866218356   -0.69168624383465
C        -4.65096463089337    0.53518725162267   -0.27458457833639
H        -3.10513674590679    0.25488454810824   -1.74125201660214
H        -5.45929251182941    0.51139839322868   -0.98936292455516
H        -5.91050590069474    0.82939028947663    1.43631638995158
N        -0.22006876023229    0.44918316176537    1.86674072460300
H        -1.56803582205144    0.73487951564098    3.40370486383089
H         0.55186543661389    0.46642972824575    2.52740097151812
43
 energy: -68.520458740128 gnorm: 0.009862828932 xtb: 6.3.1 (2faf18d)
Zn       -0.25493006474931    0.22870906256789   -0.22554351287497
C         0.99762661306030    4.91813032069277   -0.82259938138941
C         1.90261728268658    3.86722221606658   -0.81321400188189
C         1.42770995091181    2.56760849332770   -0.63290029896897
H         2.95752072040301    4.05130769327945   -0.94268970904168
N         0.11918549725093    2.30483987542952   -0.47430710050204
C         2.34172917517081    1.43970184508159   -0.61565339072547
C        -0.73576357085557    3.31313336041726   -0.47906017416275
C        -0.34897300364492    4.63789891422496   -0.64885474488049
H        -1.77970888158607    3.06322014919749   -0.34564156354411
H        -1.08422832634035    5.42680602799879   -0.64713178020871
H         1.33640943031260    5.93285271193398   -0.96166285719054
N         1.88091512188339    0.26531040705868   -0.43969098720508
H         3.40040178134319    1.65048759033330   -0.75688602168823
Br        3.02254827135872   -1.19264304404577   -0.43035358608869
C        -0.75803323580928   -1.12559358115453   -4.88792148946294
C        -0.73990363165232   -2.00148173646956   -3.81114688181561
C        -0.57735585097134   -1.48680078356908   -2.52709105326379
H        -0.84943212937493   -3.06348944386893   -3.96620747768348
N        -0.44409680943427   -0.17117611217794   -2.29874276699641
C        -0.54231207021385   -2.36009267921239   -1.35893807344447
C        -0.45739997385341    0.65730981279435   -3.32761076453475
C        -0.61115013845828    0.23028425496355   -4.64281717665279
H        -0.34529701740555    1.71011551483198   -3.10589039633468
H        -0.61692263752991    0.94409047267064   -5.45122539036721
H        -0.88297029494584   -1.49412759943015   -5.89404582939034
N        -0.38740991578872   -1.85904132142781   -0.20690168278076
H        -0.65194545697732   -3.42981831253250   -1.54264260347028
H        -0.35696368884306   -2.51627997088715    0.56645043556101
C        -4.91477855969616    0.71263417495986    1.08695398597976
C        -3.84300960130994    0.73623035455697    1.96911437119694
C        -2.55304938206238    0.58659504211836    1.46512492679460
H        -4.00659695592732    0.86614695864809    3.02749494856556
N        -2.31767479664039    0.42644771202040    0.15393405068138
C        -1.38792498383205    0.59406303771644    2.34402750103533
C        -3.34094948966109    0.39929728074079   -0.68044982363819
C        -4.66090900798405    0.53767714164078   -0.26399959293568
H        -3.10888738496717    0.26462911117069   -1.72838319753612
H        -5.46513656550662    0.51054265712545   -0.98185956480992
H        -5.92495121668738    0.82697690665833    1.44733905435571
N        -0.23013751046032    0.43814063836407    1.85540549196121
H        -1.57907962455078    0.73163904755091    3.40933708202663
H         0.54037593333859    0.44474079863413    2.51687602731230
43
 energy: -68.520806649367 gnorm: 0.005285838364 xtb: 6.3.1 (2faf18d)
Zn       -0.26645432096061    0.23344277651825   -0.23031327591770
C         1.00770327003259    4.92614322264813   -0.82013375632430
C         1.91321275908513    3.87434125901129   -0.81162824979684
C         1.43740368790086    2.57597748510179   -0.63772071567249
H         2.96945556017220    4.05416600693305   -0.93610961370978
N         0.12901386883139    2.30635823427842   -0.48537994229170
C         2.35060000732430    1.44570438261086   -0.61803710763869
C        -0.72640467306183    3.31658590208448   -0.48857651612683
C        -0.33893338711626    4.64193572755444   -0.65071873233954
H        -1.76955042127260    3.06248404148936   -0.35995738199539
H        -1.07729659576435    5.42716333854082   -0.64617353228724
H         1.34677584925246    5.94152529545774   -0.95503672927019
N         1.88053047855357    0.27320947462419   -0.43897346768497
H         3.40835161178444    1.65844376744123   -0.75775843372611
Br        3.00710334833499   -1.19479907092405   -0.41886853984315
C        -0.75302819229166   -1.13446254305450   -4.89670132822542
C        -0.73362474383188   -2.01015117035502   -3.81835071357709
C        -0.57770798747804   -1.49302902521315   -2.53623572583486
H        -0.83647265598503   -3.07365791804963   -3.96809178484393
N        -0.45460889508741   -0.17662037383156   -2.30230421550612
C        -0.52982867768886   -2.36266641873934   -1.36387712080540
C        -0.46621639921274    0.65121668307876   -3.33384997968598
C        -0.61101697429052    0.22177410747498   -4.64924267553307
H        -0.35827784337608    1.70339916483556   -3.10923542302826
H        -0.61397276576446    0.93786820332023   -5.45489161762150
H        -0.87421881146657   -1.50414331125869   -5.90307301238674
N        -0.37496447469535   -1.84983741532903   -0.21470663250603
H        -0.62593403755282   -3.43276290729070   -1.54559217976708
H        -0.32929379141737   -2.50914846480110    0.55704469352123
C        -4.92985806137476    0.71241396762629    1.10010541777634
C        -3.85546095990581    0.73652248330987    1.98077424200438
C        -2.56796803182607    0.59250140892218    1.47313054318508
H        -4.01289723430653    0.86137096102346    3.04080150029166
N        -2.32808171112343    0.43975758258020    0.16097520649480
C        -1.39762581448941    0.58940514801635    2.34769240263148
C        -3.35526111687608    0.41147157789704   -0.67164687894029
C        -4.67489413552232    0.54190345116030   -0.25146277193717
H        -3.12142702247680    0.28158415010766   -1.71930595200835
H        -5.47715726773745    0.51156166319689   -0.97060614164743
H        -5.93998440959824    0.82238966690919    1.46282311552597
N        -0.24333240168565    0.42721488122135    1.84748882704443
H        -1.58544256176933    0.72355677900548    3.41268296158578
H         0.52620393573435    0.42213082486685    2.51103623841846
43
 energy: -68.520958605743 gnorm: 0.005946853914 xtb: 6.3.1 (2faf18d)
Zn       -0.27578345633445    0.23673893475202   -0.23363475201678
C         1.01593302114090    4.93015156565033   -0.81739046521189
C         1.92070405958763    3.87718205901339   -0.80971831759584
C         1.44345355699619    2.57882044628714   -0.64096550120170
H         2.97791463806775    4.05505168406460   -0.93000296204381
N         0.13426466783921    2.30849567956385   -0.49341188581712
C         2.35569409378308    1.44708099466807   -0.61909863866250
C        -0.72107464870308    3.32026692509606   -0.49683720781072
C        -0.33109575698878    4.64531966375195   -0.65311297468304
H        -1.76446231911062    3.06534458481340   -0.37379237517794
H        -1.07026384066177    5.42976227743247   -0.64723690397738
H         1.35614289605783    5.94585836792965   -0.94766049132832
N         1.88161780897701    0.27686302155845   -0.43811038279359
H         3.41335279254437    1.65889495464274   -0.75809749441167
Br        3.00142295143164   -1.19516176879966   -0.41069618927538
C        -0.74770567947129   -1.14118030732414   -4.90220851664520
C        -0.72697551376349   -2.01546927841403   -3.82221526482091
C        -0.57664002518195   -1.49564913369697   -2.54073609743149
H        -0.82379483864731   -3.08010069826324   -3.96905516107226
N        -0.46268997478832   -0.17782827492863   -2.30688016098490
C        -0.51832129430591   -2.36250906437602   -1.36646465192543
C        -0.47432506242200    0.64892129623960   -3.34052076840761
C        -0.61142183227641    0.21560975743226   -4.65540558873768
H        -0.37284547215393    1.70156063683055   -3.11598278270194
H        -0.61215558721195    0.93167492996632   -5.46109914024745
H        -0.86434327246147   -1.51281923075899   -5.90849942195893
N        -0.36568520470962   -1.84518776199195   -0.21895434909187
H        -0.60138699818614   -3.43369463619709   -1.54545705480426
H        -0.30871687569646   -2.50399216536151    0.55315497532512
C        -4.94090547615300    0.71190197936167    1.11122829243289
C        -3.86374585821132    0.73583494039063    1.98916390927923
C        -2.57758284579247    0.59585569305320    1.47751601250719
H        -4.01710017043247    0.85687839720169    3.05039246640520
N        -2.33917545490233    0.44912576308067    0.16374556682704
C        -1.40428922453997    0.58561818041343    2.34846998638859
C        -3.36955641169573    0.42197669570242   -0.66668576049336
C        -4.68801486784719    0.54637786422440   -0.24120999440573
H        -3.13723526333122    0.29832852485480   -1.71523373138015
H        -5.49109702988987    0.51435084884206   -0.95939885848078
H        -5.95050077867272    0.81755329861552    1.47710812332232
N        -0.25241916092321    0.41938416075142    1.84386889072080
H        -1.58815660418420    0.71476788463943    3.41422003663845
H         0.51812431322502    0.40628530928794    2.50690058575079
43
 energy: -68.521097875705 gnorm: 0.004152277890 xtb: 6.3.1 (2faf18d)
Zn       -0.28514802499167    0.24003998749815   -0.23695446565444
C         1.02430783810639    4.93230049128276   -0.81376605180965
C         1.92737189453335    3.87794105593561   -0.80711323713333
C         1.44807544920460    2.57922398207558   -0.64362662162161
H         2.98530390761649    4.05473668121221   -0.92361017240441
N         0.13782937682311    2.31102043886139   -0.50095169403183
C         2.35935969496206    1.44640964333049   -0.62022305554672
C        -0.71678432927768    3.32403122880116   -0.50578515465699
C        -0.32351250115067    4.64859274532347   -0.65602249071030
H        -1.76089937718217    3.06977994704230   -0.38888126284691
H        -1.06222136045039    5.43373787754044   -0.64994144516889
H         1.36635315904563    5.94810215098606   -0.93854614031570
N         1.88422849455824    0.27799189526583   -0.43703901134439
H         3.41738669186577    1.65660897915998   -0.75877714820355
Br        3.00066557433607   -1.19582828161596   -0.40404520919279
C        -0.74040858154751   -1.14767168907572   -4.90692176773250
C        -0.71869893649939   -2.01962923813768   -3.82510076221021
C        -0.57381576182805   -1.49668342105947   -2.54391005243268
H        -0.81005011119956   -3.08508445391951   -3.96991576071056
N        -0.46975465044479   -0.17730441777938   -2.31277058906860
C        -0.50567055615627   -2.36089573137825   -1.36882242169765
C        -0.48266257544068    0.64775734597921   -3.34809322754401
C        -0.61103106049786    0.20993621652809   -4.66240043862496
H        -0.38878398700089    1.70136151050516   -3.12510684546588
H        -0.60990691428735    0.92466432402746   -5.46961561460467
H        -0.85198346287299   -1.52187515842850   -5.91286199367631
N        -0.35827693373818   -1.84157317822192   -0.22241494835438
H        -0.57479736324552   -3.43359569657071   -1.54484003428302
H        -0.29088902730810   -2.49799316275096    0.55096674942478
C        -4.95147563647724    0.71069264610168    1.12362578624270
C        -3.87100626012868    0.73437949884869    1.99744383317705
C        -2.58608444729278    0.59778826224030    1.48083388278467
H        -4.02063750624575    0.85215772225913    3.05965501975718
N        -2.35233536133422    0.45738536085334    0.16515019623762
C        -1.41079986875752    0.58089233412663    2.34817732608327
C        -3.38589168940541    0.43285550455625   -0.66204005462235
C        -4.70285267370727    0.55122252186269   -0.23008224487450
H        -3.15722172221441    0.31625810082738   -1.71215586677678
H        -5.50851547274943    0.51882243645030   -0.94575940040830
H        -5.96004860658569    0.81194807955310    1.49368222475927
N        -0.26099004229204    0.41372133160874    1.84136758660290
H        -1.59019108765633    0.70587347326412    3.41520070742044
H         0.51162180891473    0.39414565503024    2.50198687123899
43
 energy: -68.521205921495 gnorm: 0.002463380731 xtb: 6.3.1 (2faf18d)
Zn       -0.29412477942393    0.24380936134083   -0.24083688083662
C         1.03255466971236    4.93283777323277   -0.80969867536636
C         1.93315157390281    3.87679342192791   -0.80357047066651
C         1.45094719167747    2.57803908747077   -0.64519821427272
H         2.99169056539710    4.05268367799164   -0.91630048210050
N         0.13966645456813    2.31333135782476   -0.50767340334193
C         2.36110227211760    1.44436467672382   -0.62079158561508
C        -0.71321015483592    3.32759847989663   -0.51439709584828
C        -0.31653804072976    4.65170401438424   -0.65915386411879
H        -1.75841364517834    3.07511840009262   -0.40368041151669
H        -1.05354919819211    5.43868119155912   -0.65431078015455
H         1.37717091267365    5.94843106799027   -0.92876106016767
N         1.88615980405852    0.27673911356030   -0.43667970317025
H         3.41969174291438    1.65304053689814   -0.75932810144517
Br        3.00277960230175   -1.19663915285428   -0.39974270782231
C        -0.73146936006229   -1.15387667420670   -4.91113104011075
C        -0.70811207677474   -2.02316800788371   -3.82754342615410
C        -0.56898723125182   -1.49686988924211   -2.54665076135965
H        -0.79366226981387   -3.08928657702803   -3.97098737235290
N        -0.47531972506303   -0.17615678568817   -2.31908192817778
C        -0.49346778868939   -2.35866664704529   -1.37123279868824
C        -0.49079768857969    0.64671727233727   -3.35565644604252
C        -0.61066946275202    0.20493747931568   -4.66959242006420
H        -0.40601780041292    1.70164883771240   -3.13490514502893
H        -0.60951474037591    0.91748397631639   -5.47900518178170
H        -0.83722229520663   -1.53096588422550   -5.91661268748636
N        -0.35480598457635   -1.83771071313627   -0.22514844471311
H        -0.54861783916293   -3.43287801728846   -1.54509144262921
H        -0.27950399667692   -2.49080350848204    0.54985045874710
C        -4.96077119821824    0.70913377371002    1.13648377546557
C        -3.87686804351259    0.73155301603850    2.00563288794122
C        -2.59336349951287    0.59829096856481    1.48351638653485
H        -4.02304981597721    0.84590395985908    3.06870398998883
N        -2.36549444248267    0.46408610858317    0.16611578793269
C        -1.41648463670637    0.57754228346042    2.34728338574412
C        -3.40201238000056    0.44296077505666   -0.65701392007285
C        -4.71756072349998    0.55645084378885   -0.21886637391278
H        -3.17811547469157    0.33345660005201   -1.70901273513602
H        -5.52671304330908    0.52545039334025   -0.93101914671422
H        -5.96802861357753    0.80609837109499    1.51121520493182
N        -0.26810941900206    0.41170767842935    1.83837004806959
H        -1.59216978262191    0.69699149633524    3.41597841607116
H         0.50698836154741    0.38768086219151    2.49551936544176
43
 energy: -68.521280250447 gnorm: 0.002093707127 xtb: 6.3.1 (2faf18d)
Zn       -0.30122216127671    0.24736141758790   -0.24455975177162
C         1.03923790276832    4.93230485051336   -0.80614199866946
C         1.93735683274659    3.87451302860479   -0.79980974881313
C         1.45194749897554    2.57617768603066   -0.64597506742784
H         2.99646602370153    4.04927825131196   -0.90886451892307
N         0.13978000361352    2.31464609978761   -0.51309789710849
C         2.36082934049393    1.44174856694266   -0.62112626514478
C        -0.71086824196003    3.33033781994034   -0.52151263538445
C        -0.31123284017765    4.65408479480560   -0.66199473038751
H        -1.75716145389602    3.08011834660099   -0.41542298587466
H        -1.04601345843565    5.44320208694817   -0.65889744075607
H         1.38652593713000    5.94747090233600   -0.92071130366052
N         1.88609616857810    0.27417952908793   -0.43702672229733
H         3.41997678142274    1.64956348833204   -0.75850748431914
Br        3.00404718588379   -1.19834831614550   -0.39915854169445
C        -0.72234250295307   -1.15880672484272   -4.91452449610250
C        -0.69664163270242   -2.02590312847649   -3.82951833040471
C        -0.56336728442194   -1.49666992404593   -2.54896939861085
H        -0.77606272118799   -3.09260960014039   -3.97206533938212
N        -0.47921564596858   -0.17500309144323   -2.32408444322311
C        -0.48410589209850   -2.35658956890986   -1.37314331068048
C        -0.49807995626330    0.64583295426475   -3.36163120987719
C        -0.61092692975079    0.20131857850129   -4.67543549812148
H        -0.42139314172686    1.70195519388568   -3.14305724592340
H        -0.61172169474446    0.91175702653681   -5.48674618721104
H        -0.82278691417779   -1.53838769295839   -5.91959788537161
N        -0.35584474646584   -1.83395558956047   -0.22678620069759
H        -0.52804066958271   -3.43167505503943   -1.54614184679500
H        -0.27676306734660   -2.48447227660759    0.54949968408329
C        -4.96727869141598    0.70749000176818    1.14735301718147
C        -3.88046741818693    0.72788718404769    2.01253769008234
C        -2.59839498283549    0.59768740299001    1.48554249247743
H        -4.02376229093024    0.83832153241352    3.07640041983113
N        -2.37542040259618    0.46892891796071    0.16685654938615
C        -1.42008539581150    0.57486798838176    2.34641414622686
C        -3.41442341328181    0.45096135324281   -0.65247340001476
C        -4.72889869748531    0.56122385194099   -0.20959797416445
H        -3.19498220150414    0.34642453837669   -1.70601925646053
H        -5.54116158463465    0.53294570681269   -0.91841208534709
H        -5.97328080466467    0.80139834986958    1.52612257774512
N        -0.27241600146949    0.41384473839690    1.83489994881432
H        -1.59343833575351    0.69036391971070    3.41623966853928
H         0.50469550039271    0.38846986023903    2.48914000625302
43
 energy: -68.521341593208 gnorm: 0.002098327575 xtb: 6.3.1 (2faf18d)
Zn       -0.30686071365630    0.25062822596945   -0.24800968405684
C         1.04441148873569    4.93118722887694   -0.80328165491540
C         1.94024407288494    3.87164776118120   -0.79587727023934
C         1.45161665063734    2.57405186573815   -0.64594016897186
H         2.99994169939068    4.04493551884841   -0.90122678697562
N         0.13858838443747    2.31516024712182   -0.51748842058079
C         2.35900669358424    1.43877837217401   -0.62089151317179
C        -0.70970655694737    3.33245654582530   -0.52732898080898
C        -0.30733583734234    4.65579412187876   -0.66462298572938
H        -1.75705095034422    3.08463568018024   -0.42494912334091
H        -1.03983833481737    5.44697279420918   -0.66349526643651
H         1.39428859115580    5.94580754208990   -0.91449698145799
N         1.88377060022153    0.27091007642281   -0.43926700409647
H         3.41856150135700    1.64594763681188   -0.75700638332943
Br        3.00292691959372   -1.20113108211737   -0.40123281546025
C        -0.71333050061689   -1.16251409416501   -4.91723822977494
C        -0.68452106728961   -2.02795694684567   -3.83113494388115
C        -0.55753845488366   -1.49624645721229   -2.55090999108532
H        -0.75707044394396   -3.09524668047293   -3.97302882583625
N        -0.48199903393580   -0.17389689114862   -2.32773799690729
C        -0.47768521166939   -2.35465629299858   -1.37436284020957
C        -0.50442837029124    0.64523336382944   -3.36616277236182
C        -0.61178503768447    0.19882615819185   -4.67987369632111
H        -0.43531248031984    1.70236819240484   -3.14941685282811
H        -0.61612518568667    0.90758558726437   -5.49256874000999
H        -0.80868779431048   -1.54414378487074   -5.92202478329802
N        -0.36004361304190   -1.83051515054467   -0.22749650937511
H        -0.51270643400356   -3.43007667216582   -1.54731356260635
H        -0.28073275468143   -2.47950232278629    0.54974614673095
C        -4.97138075177891    0.70607801058632    1.15623933022024
C        -3.88220290677203    0.72360970162602    2.01830644944093
C        -2.60148509695915    0.59651247689324    1.48716516044652
H        -4.02299308812841    0.82985892108708    3.08289945321164
N        -2.38226729835234    0.47220776249370    0.16753225997272
C        -1.42157515409785    0.57426704527011    2.34544759047420
C        -3.42339595809484    0.45692165783315   -0.64856108306760
C        -4.73695254485001    0.56556931794357   -0.20208958087343
H        -3.20769779763369    0.35602224435657   -1.70332781603410
H        -5.55169763152145    0.54056789280699   -0.90810231857947
H        -5.97629552575428    0.79777218311268    1.53834357544860
N        -0.27425910185480    0.41869696085430    1.83123236108278
H        -1.59362748184682    0.68518944148179    3.41611880373931
H         0.50439051111265    0.39393083996370    2.48342945185328
43
 energy: -68.521404973193 gnorm: 0.002002891021 xtb: 6.3.1 (2faf18d)
Zn       -0.31248558642840    0.25415621650540   -0.25175002615204
C         1.04916756380734    4.92977167082065   -0.80063152718897
C         1.94255289953692    3.86821117635433   -0.79157406439368
C         1.45034186503183    2.57160998749314   -0.64581467230850
H         3.00298218527427    4.03942052019032   -0.89248676313228