Job execution start: Sat Nov  6 17:08:49 GMT 2021
Shared library path: /work/e05/e05/atarzia/orca_4_2_1_linux_x86-64_openmpi314:/work/e05/e05/atarzia/openmpi-3.1.4/lib:/opt/cray/pe/papi/6.0.0.4/lib64:/opt/cray/libfabric/1.11.0.0.233/lib64
Slurm Job ID is: 621511
Slurm Job name is: o_1_alde1_2_ami4_1_opt_B97-3c
nid001794

                                 *****************
                                 * O   R   C   A *
                                 *****************

           --- An Ab Initio, DFT and Semiempirical electronic structure package ---

                  #######################################################
                  #                        -***-                        #
                  #          Department of theory and spectroscopy      #
                  #               Directorship: Frank Neese             #
                  #        Max Planck Institute fuer Kohlenforschung    #
                  #                Kaiser Wilhelm Platz 1               #
                  #                 D-45470 Muelheim/Ruhr               #
                  #                      Germany                        #
                  #                                                     #
                  #                  All rights reserved                #
                  #                        -***-                        #
                  #######################################################


                         Program Version 4.2.1 -  RELEASE  -


 With contributions from (in alphabetic order):
   Daniel Aravena         : Magnetic Suceptibility
   Michael Atanasov       : Ab Initio Ligand Field Theory (pilot matlab implementation)
   Alexander A. Auer      : GIAO ZORA, VPT2
   Ute Becker             : Parallelization
   Giovanni Bistoni       : ED, misc. LED, open-shell LED, HFLD
   Martin Brehm           : Molecular dynamics
   Dmytro Bykov           : SCF Hessian
   Vijay G. Chilkuri      : MRCI spin determinant printing, contributions to CSF-ICE
   Dipayan Datta          : RHF DLPNO-CCSD density
   Achintya Kumar Dutta   : EOM-CC, STEOM-CC
   Dmitry Ganyushin       : Spin-Orbit,Spin-Spin,Magnetic field MRCI
   Miquel Garcia          : C-PCM Hessian, Gaussian charge scheme
   Yang Guo               : DLPNO-NEVPT2, CIM, IAO-localization
   Andreas Hansen         : Spin unrestricted coupled pair/coupled cluster methods
   Benjamin Helmich-Paris : CASSCF linear response (MC-RPA)
   Lee Huntington         : MR-EOM, pCC
   Robert Izsak           : Overlap fitted RIJCOSX, COSX-SCS-MP3, EOM
   Christian Kollmar      : KDIIS, OOCD, Brueckner-CCSD(T), CCSD density
   Simone Kossmann        : Meta GGA functionals, TD-DFT gradient, OOMP2, MP2 Hessian
   Martin Krupicka        : AUTO-CI
   Lucas Lang             : DCDCAS
   Dagmar Lenk            : GEPOL surface, SMD
   Dimitrios Liakos       : Extrapolation schemes; Compound Job, initial MDCI parallelization
   Dimitrios Manganas     : Further ROCIS development; embedding schemes
   Dimitrios Pantazis     : SARC Basis sets
   Taras Petrenko         : DFT Hessian,TD-DFT gradient, ASA, ECA, R-Raman, ABS, FL, XAS/XES, NRVS
   Peter Pinski           : DLPNO-MP2, DLPNO-MP2 Gradient
   Christoph Reimann      : Effective Core Potentials
   Marius Retegan         : Local ZFS, SOC
   Christoph Riplinger    : Optimizer, TS searches, QM/MM, DLPNO-CCSD(T), (RO)-DLPNO pert. Triples
   Tobias Risthaus        : Range-separated hybrids, TD-DFT gradient, RPA, STAB
   Michael Roemelt        : Original ROCIS implementation
   Masaaki Saitow         : Open-shell DLPNO-CCSD energy and density
   Barbara Sandhoefer     : DKH picture change effects
   Avijit Sen             : IP-ROCIS
   Kantharuban Sivalingam : CASSCF convergence, NEVPT2, FIC-MRCI
   Bernardo de Souza      : ESD, SOC TD-DFT
   Georgi Stoychev        : AutoAux, RI-MP2 NMR
   Willem Van den Heuvel  : Paramagnetic NMR
   Boris Wezisla          : Elementary symmetry handling
   Frank Wennmohs         : Technical directorship


 We gratefully acknowledge several colleagues who have allowed us to
 interface, adapt or use parts of their codes:
   Stefan Grimme, W. Hujo, H. Kruse,             : VdW corrections, initial TS optimization,
                  C. Bannwarth                     DFT functionals, gCP, sTDA/sTD-DF
   Ed Valeev, F. Pavosevic, A. Kumar             : LibInt (2-el integral package), F12 methods
   Garnet Chan, S. Sharma, J. Yang, R. Olivares  : DMRG
   Ulf Ekstrom                                   : XCFun DFT Library
   Mihaly Kallay                                 : mrcc  (arbitrary order and MRCC methods)
   Andreas Klamt, Michael Diedenhofen            : otool_cosmo (COSMO solvation model)
   Jiri Pittner, Ondrej Demel                    : Mk-CCSD
   Frank Weinhold                                : gennbo (NPA and NBO analysis)
   Christopher J. Cramer and Donald G. Truhlar   : smd solvation model
   Lars Goerigk                                  : TD-DFT with DH, B97 family of functionals
   V. Asgeirsson, H. Jonsson                     : NEB implementation
   FAccTs GmbH                                   : IRC, NEB, NEB-TS, Multilevel, MM, QM/MM, CI optimization
   S Lehtola, MJT Oliveira, MAL Marques          : LibXC Library


 Your calculation uses the libint2 library for the computation of 2-el integrals
 For citations please refer to: http://libint.valeyev.net

 Your ORCA version has been built with support for libXC version: 4.2.3
 For citations please refer to: https://tddft.org/programs/libxc/

 This ORCA versions uses:
   CBLAS   interface :  Fast vector & matrix operations
   LAPACKE interface :  Fast linear algebra routines
   SCALAPACK package :  Parallel linear algebra routines




***************************************
The coordinates will be read from file: o_1_alde1_2_ami4_1_opt.xyz
***************************************


Your calculation utilizes the atom-pairwise dispersion correction
with the Becke-Johnson damping scheme (D3BJ)
Cite in your paper:
S.Grimme, S.Ehrlich, L.Goerigk, J Comput Chem, (2011), 32, 1456–1465 
S.Grimme, J.Antony, S.Ehrlich and H.Krieg, J.Chem.Phys., 132, (2010), 154104 
   

Your calculation employs the composite approach B97-3c by Grimme and coworkers.
For the correct reference, please check the publication list of the Grimme group:
http://www.thch.uni-bonn.de/tc/index.php?section=publikationen&subsection=grimme#2017
   

XCFun DFT library Copyright 2009-2010 Ulf Ekstrom and contributors.
See http://admol.org/xcfun for more information. This is free soft-
ware; see the source code for copying conditions. There is ABSOLUTELY
NO WARRANTY; not even for MERCHANTABILITY or FITNESS FOR A PARTICULAR
PURPOSE. For details see the documentation. Scientific users of this 
library should cite U. Ekstrom, L. Visscher, R. Bast, A. J. Thorvald-
sen and K. Ruud; J.Chem.Theor.Comp. 2010, DOI: 10.1021/ct100117s
XCFun Version 0.99 
----- Orbital basis set information -----
Your calculation utilizes the basis: def2-mTZVP
----- AuxJ basis set information -----
Your calculation utilizes the basis: def2-mTZVP/J
================================================================================
                                        WARNINGS
                       Please study these warnings very carefully!
================================================================================


WARNING: Geometry Optimization
  ===> : Switching off AutoStart
         For restart on a previous wavefunction, please use MOREAD

INFO   : the flag for use of LIBINT has been found!

================================================================================
                                       INPUT FILE
================================================================================
NAME = o_1_alde1_2_ami4_1_opt_B97-3c.in
|  1> ! DFT COPT B97-3c TightSCF printbasis  Grid6 NOFINALGRID SlowConv 
|  2> 
|  3> %base "_o_1_alde1_2_ami4_1_opt_B97-3c"
|  4> %maxcore 3000
|  5> %scf
|  6>    MaxIter 2000
|  7> end
|  8> %pal
|  9>    nprocs 32
| 10> end
| 11> 
| 12> * xyzfile 0 1 o_1_alde1_2_ami4_1_opt.xyz
| 13> # * xyzfile 0 1 _o_1_alde1_2_ami4_1_opt_B97-3c.xyz
| 14> 
| 15>                          ****END OF INPUT****
================================================================================

                       *****************************
                       * Geometry Optimization Run *
                       *****************************

Geometry optimization settings:
Update method            Update   .... BFGS
Choice of coordinates    CoordSys .... Cartesian
Initial Hessian          InHess   .... Unit Matrix

Convergence Tolerances:
Energy Change            TolE     ....  5.0000e-06 Eh
Max. Gradient            TolMAXG  ....  3.0000e-04 Eh/bohr
RMS Gradient             TolRMSG  ....  1.0000e-04 Eh/bohr
Max. Displacement        TolMAXD  ....  4.0000e-03 bohr
RMS Displacement         TolRMSD  ....  2.0000e-03 bohr
Strict Convergence                ....  False
------------------------------------------------------------------------------
                        ORCA OPTIMIZATION COORDINATE SETUP
------------------------------------------------------------------------------

The optimization will be done in cartesian displacement coordinates
Initial hessian                         ....done
Number of atoms                         .... 36
Number of degrees of freedom            .... 108

         *************************************************************
         *                GEOMETRY OPTIMIZATION CYCLE   1            *
         *************************************************************
---------------------------------
CARTESIAN COORDINATES (ANGSTROEM)
---------------------------------
  C     -1.208100    1.229700   -0.122800
  C     -1.055600    0.621100    1.203300
  C     -2.476600    1.498400   -0.633400
  C     -2.614600    2.080700   -1.883000
  H     -3.356000    1.248400   -0.057600
  C     -1.480800    2.388100   -2.624300
  C     -0.211100    2.128500   -2.125300
  H     -1.606200    2.843000   -3.595100
  C     -0.078200    1.550700   -0.874100
  C      1.019100    2.506800   -2.909400
  H      0.900400    1.327900   -0.476800
  C     -3.992300    2.325100   -2.445300
  O     -0.008100    0.386900    1.750500
  C     -5.587800    1.526400   -3.878100
  C     -4.969700    2.766500   -4.557000
  N     -4.583300    1.085000   -2.924200
  H     -5.845900    0.733500   -4.576900
  N     -3.971300    3.236800   -3.599300
  H     -5.720800    3.522900   -4.794100
  C      3.346200    2.249300   -2.531200
  C      2.962300    3.719600   -2.788400
  N      2.096100    1.517600   -2.719700
  H      3.675500    2.117600   -1.493400
  N      1.547300    3.786700   -2.460400
  H      3.073200    3.960900   -3.850400
  H      2.138300    0.866400   -3.491500
  H      0.756600    2.615700   -3.976200
  H      1.434900    3.850700   -1.451900
  H     -3.866700    0.547200   -3.404900
  H     -4.116000    4.196800   -3.317500
  H     -4.648800    2.706200   -1.640600
  H     -2.020600    0.383000    1.695600
  H     -4.457800    2.483800   -5.484700
  H      4.140400    1.901100   -3.193100
  H     -6.482300    1.809700   -3.314600
  H      3.539200    4.430200   -2.200200

----------------------------
CARTESIAN COORDINATES (A.U.)
----------------------------
  NO LB      ZA    FRAG     MASS         X           Y           Z
   0 C     6.0000    0    12.011   -2.282978    2.323796   -0.232058
   1 C     6.0000    0    12.011   -1.994795    1.173709    2.273907
   2 C     6.0000    0    12.011   -4.680096    2.831566   -1.196953
   3 C     6.0000    0    12.011   -4.940878    3.931953   -3.558354
   4 H     1.0000    0     1.008   -6.341921    2.359134   -0.108848
   5 C     6.0000    0    12.011   -2.798306    4.512855   -4.959208
   6 C     6.0000    0    12.011   -0.398921    4.022282   -4.016235
   7 H     1.0000    0     1.008   -3.035278    5.372491   -6.793754
   8 C     6.0000    0    12.011   -0.147777    2.930398   -1.651810
   9 C     6.0000    0    12.011    1.925820    4.737165   -5.497969
  10 H     1.0000    0     1.008    1.701509    2.509367   -0.901021
  11 C     6.0000    0    12.011   -7.544354    4.393802   -4.620947
  12 O     8.0000    0    15.999   -0.015307    0.731135    3.307966
  13 C     6.0000    0    12.011  -10.559412    2.884478   -7.328547
  14 C     6.0000    0    12.011   -9.391372    5.227927   -8.611482
  15 N     7.0000    0    14.007   -8.661182    2.050353   -5.525937
  16 H     1.0000    0     1.008  -11.047150    1.386114   -8.649088
  17 N     7.0000    0    14.007   -7.504669    6.116666   -6.801691
  18 H     1.0000    0     1.008  -10.810745    6.657316   -9.059536
  19 C     6.0000    0    12.011    6.323402    4.250561   -4.783275
  20 C     6.0000    0    12.011    5.597936    7.029025   -5.269312
  21 N     7.0000    0    14.007    3.961055    2.867848   -5.139488
  22 H     1.0000    0     1.008    6.945688    4.001684   -2.822117
  23 N     7.0000    0    14.007    2.923973    7.155826   -4.649482
  24 H     1.0000    0     1.008    5.807506    7.485016   -7.276202
  25 H     1.0000    0     1.008    4.040801    1.637259   -6.597979
  26 H     1.0000    0     1.008    1.429767    4.942957   -7.513929
  27 H     1.0000    0     1.008    2.711568    7.276768   -2.743693
  28 H     1.0000    0     1.008   -7.307004    1.034058   -6.434329
  29 H     1.0000    0     1.008   -7.778113    7.930803   -6.269166
  30 H     1.0000    0     1.008   -8.784959    5.113977   -3.100285
  31 H     1.0000    0     1.008   -3.818381    0.723765    3.204220
  32 H     1.0000    0     1.008   -8.424021    4.693702  -10.364581
  33 H     1.0000    0     1.008    7.824222    3.592558   -6.034085
  34 H     1.0000    0     1.008  -12.249772    3.419837   -6.263686
  35 H     1.0000    0     1.008    6.688119    8.371865   -4.157775

--------------------------------
INTERNAL COORDINATES (ANGSTROEM)
--------------------------------
 C      0   0   0     0.000000000000     0.00000000     0.00000000
 C      1   0   0     1.467034907560     0.00000000     0.00000000
 C      1   2   0     1.393558143746   120.38534966     0.00000000
 C      3   1   2     1.385502598338   120.14311312   179.60975465
 H      3   1   2     1.080458236120   120.06592001   359.29745244
 C      4   3   1     1.389072672685   119.53977297     0.30886707
 C      6   4   3     1.388715683644   120.87373692   359.52320634
 H      6   4   3     1.079403450986   118.58153213   180.10686419
 C      7   6   4     1.384563718288   119.37250684     0.25612289
 C      7   6   4     1.507088497733   120.82705991   182.17466035
 H      9   7   6     1.079418866798   120.38274825   179.05614081
 C      4   3   1     1.507968812675   119.69771511   177.97520468
 O      2   1   3     1.204796136282   125.56134750   182.38842918
 C     12   4   3     2.288330784655   144.47963215   260.39117220
 C     14  12   4     1.542984390718    73.48137491   253.33271860
 N     14  12   4     1.453884252614    38.13421104    37.43230323
 H     14  12   4     1.087946441696   145.28116395     0.86144965
 N     15  14  12     1.461223439451   104.12311587   359.60971209
 H     15  14  12     1.092020411897   112.12925896   237.21842238
 C     10   7   6     2.371652567304   133.68725764   181.44254188
 C     20  10   7     1.541205093425    68.00023956   235.29724581
 N     20  10   7     1.460707756534    36.29957193    62.07130453
 H     20  10   7     1.096727960800   117.29377300   337.59462638
 N     21  20  10     1.454067195834   104.40517559    22.32911772
 H     21  20  10     1.094700187266   110.30073113   266.65528157
 H     22  20  10     1.010701498960   112.67832739   123.29843757
 H     10   7   6     1.104005298900   109.47618886   338.62715137
 H     24  21  20     1.016760547032   109.52531086    79.83607382
 H     16  14  12     1.016767864362   109.71459545   244.02833895
 H     18  15  14     1.010915095347   112.98828520   236.86925493
 H     12   4   3     1.106242084717   109.07311231    41.58461436
 H      2   1   3     1.109178028993   113.56677001     2.11183234
 H     15  14  12     1.096625820415   110.61091259   116.06437737
 H     20  10   7     1.090920936640   130.71019608   133.78612847
 H     14  12   4     1.094495952482    99.03982549   144.78275316
 H     21  20  10     1.088000556066   113.62685592   143.82583668

---------------------------
INTERNAL COORDINATES (A.U.)
---------------------------
 C      0   0   0     0.000000000000     0.00000000     0.00000000
 C      1   0   0     2.772294204191     0.00000000     0.00000000
 C      1   2   0     2.633443243375   120.38534966     0.00000000
 C      3   1   2     2.618220468694   120.14311312   179.60975465
 H      3   1   2     2.041770165407   120.06592001   359.29745244
 C      4   3   1     2.624966931489   119.53977297     0.30886707
 C      6   4   3     2.624292319969   120.87373692   359.52320634
 H      6   4   3     2.039776910373   118.58153213   180.10686419
 C      7   6   4     2.616446242528   119.37250684     0.25612289
 C      7   6   4     2.847984520299   120.82705991   182.17466035
 H      9   7   6     2.039806042036   120.38274825   179.05614081
 C      4   3   1     2.849648074450   119.69771511   177.97520468
 O      2   1   3     2.276734744779   125.56134750   182.38842918
 C     12   4   3     4.324318486819   144.47963215   260.39117220
 C     14  12   4     2.915817927373    73.48137491   253.33271860
 N     14  12   4     2.747443067862    38.13421104    37.43230323
 H     14  12   4     2.055920823180   145.28116395     0.86144965
 N     15  14  12     2.761312121028   104.12311587   359.60971209
 H     15  14  12     2.063619511137   112.12925896   237.21842238
 C     10   7   6     4.481773837016   133.68725764   181.44254188
 C     20  10   7     2.912455542778    68.00023956   235.29724581
 N     20  10   7     2.760337621545    36.29957193    62.07130453
 H     20  10   7     2.072515489325   117.29377300   337.59462638
 N     21  20  10     2.747788780445   104.40517559    22.32911772
 H     21  20  10     2.068683552685   110.30073113   266.65528157
 H     22  20  10     1.909949036178   112.67832739   123.29843757
 H     10   7   6     2.086267665319   109.47618886   338.62715137
 H     24  21  20     1.921398977666   109.52531086    79.83607382
 H     16  14  12     1.921412805417   109.71459545   244.02833895
 H     18  15  14     1.910352674852   112.98828520   236.86925493
 H     12   4   3     2.090494577934   109.07311231    41.58461436
 H      2   1   3     2.096042708559   113.56677001     2.11183234
 H     15  14  12     2.072322471970   110.61091259   116.06437737
 H     20  10   7     2.061541804011   130.71019608   133.78612847
 H     14  12   4     2.068297604877    99.03982549   144.78275316
 H     21  20  10     2.056023084519   113.62685592   143.82583668

---------------------
BASIS SET INFORMATION
---------------------
There are 4 groups of distinct atoms

 Group   1 Type C   : 11s6p1d contracted to 5s3p1d pattern {62111/411/1}
 Group   2 Type H   : 5s contracted to 3s pattern {311}
 Group   3 Type O   : 11s6p2d contracted to 5s3p2d pattern {62111/411/11}
 Group   4 Type N   : 11s6p1d contracted to 5s3p1d pattern {62111/411/1}

Atom   0C    basis set group =>   1
Atom   1C    basis set group =>   1
Atom   2C    basis set group =>   1
Atom   3C    basis set group =>   1
Atom   4H    basis set group =>   2
Atom   5C    basis set group =>   1
Atom   6C    basis set group =>   1
Atom   7H    basis set group =>   2
Atom   8C    basis set group =>   1
Atom   9C    basis set group =>   1
Atom  10H    basis set group =>   2
Atom  11C    basis set group =>   1
Atom  12O    basis set group =>   3
Atom  13C    basis set group =>   1
Atom  14C    basis set group =>   1
Atom  15N    basis set group =>   4
Atom  16H    basis set group =>   2
Atom  17N    basis set group =>   4
Atom  18H    basis set group =>   2
Atom  19C    basis set group =>   1
Atom  20C    basis set group =>   1
Atom  21N    basis set group =>   4
Atom  22H    basis set group =>   2
Atom  23N    basis set group =>   4
Atom  24H    basis set group =>   2
Atom  25H    basis set group =>   2
Atom  26H    basis set group =>   2
Atom  27H    basis set group =>   2
Atom  28H    basis set group =>   2
Atom  29H    basis set group =>   2
Atom  30H    basis set group =>   2
Atom  31H    basis set group =>   2
Atom  32H    basis set group =>   2
Atom  33H    basis set group =>   2
Atom  34H    basis set group =>   2
Atom  35H    basis set group =>   2

-------------------------
BASIS SET IN INPUT FORMAT
-------------------------

 # Basis set for element : H 
 NewGTO H 
 S 3 
   1      34.0613410000      0.0254393072
   2       5.1235746000      0.1900859489
   3       1.1646626000      0.8524411301
 S 1 
   1       0.3272304100      1.0000000000
 S 1 
   1       0.1030724100      1.0000000000
  end;

 # Basis set for element : C 
 NewGTO C 
 S 6 
   1   13575.3496820000      0.0006064549
   2    2035.2333680000      0.0046979088
   3     463.2256235900      0.0243324776
   4     131.2001959800      0.0973999683
   5      42.8530158910      0.3019558425
   6      15.5841857660      0.6623360915
 S 2 
   1       6.2067138508      0.6559530854
   2       2.5764896527      0.3758563329
 S 1 
   1       0.5769633942      1.0000000000
 S 1 
   1       0.2297283136      1.0000000000
 S 1 
   1       0.0951644400      1.0000000000
 P 4 
   1      34.6972322440      0.0113272200
   2       7.9582622826      0.0761696592
   3       2.3780826883      0.3019225220
   4       0.8143320818      0.7278502735
 P 1 
   1       0.2888754725      1.0000000000
 P 1 
   1       0.1005682367      1.0000000000
 D 1 
   1       0.8000000000      1.0000000000
  end;

 # Basis set for element : N 
 NewGTO N 
 S 6 
   1   19730.8006470000      0.0005862639
   2    2957.8958745000      0.0045428821
   3     673.2213359500      0.0235584136
   4     190.6824949400      0.0947091933
   5      62.2954418980      0.2971978492
   6      22.6541611820      0.6691624689
 S 2 
   1       8.9791477428      0.6459668363
   2       3.6863002370      0.3870057440
 S 1 
   1       0.8466007680      1.0000000000
 S 1 
   1       0.3364713377      1.0000000000
 S 1 
   1       0.1364765367      1.0000000000
 P 4 
   1      49.2003805100      0.0114488252
   2      11.3467905370      0.0784223379
   3       3.4273972411      0.3081809474
   4       1.1785525134      0.7202719637
 P 1 
   1       0.4164220497      1.0000000000
 P 1 
   1       0.1426082601      1.0000000000
 D 1 
   1       0.8000000000      1.0000000000
  end;

 # Basis set for element : O 
 NewGTO O 
 S 6 
   1   27032.3826310000      0.0005722733
   2    4052.3871392000      0.0044353233
   3     922.3272271000      0.0230201076
   4     261.2407098900      0.0928224906
   5      85.3546413510      0.2937850002
   6      31.0350352450      0.6740160450
 S 2 
   1      12.2608607280      0.6383993702
   2       4.9987076005      0.3953458713
 S 1 
   1       1.1703108158      1.0000000000
 S 1 
   1       0.4647474099      1.0000000000
 S 1 
   1       0.1850453636      1.0000000000
 P 4 
   1      63.2749548010      0.0120183321
   2      14.6270493790      0.0830054217
   3       4.4501223456      0.3199174393
   4       1.5275799647      0.7071554292
 P 1 
   1       0.5293511794      1.0000000000
 P 1 
   1       0.1747842127      1.0000000000
 D 1 
   1       0.9000000000      1.0000000000
 D 1 
   1       0.1500000000      1.0000000000
  end;

---------------------------------
AUXILIARY/J BASIS SET INFORMATION
---------------------------------
There are 4 groups of distinct atoms

 Group   1 Type C   : 8s3p3d contracted to 6s3p3d pattern {311111/111/111}
 Group   2 Type H   : 5s2p contracted to 3s1p pattern {311/2}
 Group   3 Type O   : 8s3p3d contracted to 6s3p3d pattern {311111/111/111}
 Group   4 Type N   : 8s3p3d contracted to 6s3p3d pattern {311111/111/111}

Atom   0C    basis set group =>   1
Atom   1C    basis set group =>   1
Atom   2C    basis set group =>   1
Atom   3C    basis set group =>   1
Atom   4H    basis set group =>   2
Atom   5C    basis set group =>   1
Atom   6C    basis set group =>   1
Atom   7H    basis set group =>   2
Atom   8C    basis set group =>   1
Atom   9C    basis set group =>   1
Atom  10H    basis set group =>   2
Atom  11C    basis set group =>   1
Atom  12O    basis set group =>   3
Atom  13C    basis set group =>   1
Atom  14C    basis set group =>   1
Atom  15N    basis set group =>   4
Atom  16H    basis set group =>   2
Atom  17N    basis set group =>   4
Atom  18H    basis set group =>   2
Atom  19C    basis set group =>   1
Atom  20C    basis set group =>   1
Atom  21N    basis set group =>   4
Atom  22H    basis set group =>   2
Atom  23N    basis set group =>   4
Atom  24H    basis set group =>   2
Atom  25H    basis set group =>   2
Atom  26H    basis set group =>   2
Atom  27H    basis set group =>   2
Atom  28H    basis set group =>   2
Atom  29H    basis set group =>   2
Atom  30H    basis set group =>   2
Atom  31H    basis set group =>   2
Atom  32H    basis set group =>   2
Atom  33H    basis set group =>   2
Atom  34H    basis set group =>   2
Atom  35H    basis set group =>   2

-------------------------------------
AUXILIARY/J BASIS SET IN INPUT FORMAT
-------------------------------------

 # Auxiliary/J basis set for element : H 
 NewAuxJGTO H 
 S 3 
   1      15.6752927000      0.1007184237
   2       3.6063578000      0.3404257499
   3       1.2080016000      0.6491996172
 S 1 
   1       0.4726794000      1.0000000000
 S 1 
   1       0.2018100000      1.0000000000
 P 2 
   1       2.0281365000      0.5596620919
   2       0.5358730000      0.5596620919
  end;

 # Auxiliary/J basis set for element : C 
 NewAuxJGTO C 
 S 3 
   1     459.7023860000      0.1098751775
   2     132.9577920000      0.2844848472
   3      41.5658170000      0.6964707648
 S 1 
   1      13.9155610000      1.0000000000
 S 1 
   1       4.9305290000     -1.0000000000
 S 1 
   1       1.8229480000      1.0000000000
 S 1 
   1       0.6920510000      1.0000000000
 S 1 
   1       0.2650930000      1.0000000000
 P 1 
   1       0.3278473579      1.0000000000
 P 1 
   1       0.7868336591      1.0000000000
 P 1 
   1       1.9710183160      1.0000000000
 D 1 
   1       4.0133010000      1.0000000000
 D 1 
   1       1.2475050000      1.0000000000
 D 1 
   1       0.4081480000      1.0000000000
  end;

 # Auxiliary/J basis set for element : N 
 NewAuxJGTO N 
 S 3 
   1     680.5425300000      0.1043830093
   2     196.7562140000      0.2751518961
   3      61.2707930000      0.7090825511
 S 1 
   1      20.3644630000      1.0000000000
 S 1 
   1       7.1424770000     -1.0000000000
 S 1 
   1       2.6080260000      1.0000000000
 S 1 
   1       0.9763730000      1.0000000000
 S 1 
   1       0.3686330000      1.0000000000
 P 1 
   1       0.4707391941      1.0000000000
 P 1 
   1       1.1297740658     -1.0000000000
 P 1 
   1       2.8300840347      1.0000000000
 D 1 
   1       5.8329865000      1.0000000000
 D 1 
   1       1.7326865000      1.0000000000
 D 1 
   1       0.5452425000      1.0000000000
  end;

 # Auxiliary/J basis set for element : O 
 NewAuxJGTO O 
 S 3 
   1     896.1035700000      0.1049899981
   2     269.7252320000      0.2698166569
   3      85.6150770000      0.7109966875
 S 1 
   1      28.4450350000      1.0000000000
 S 1 
   1       9.8069810000     -1.0000000000
 S 1 
   1       3.4747220000      1.0000000000
 S 1 
   1       1.2519210000      1.0000000000
 S 1 
   1       0.4536130000      1.0000000000
 P 1 
   1       0.6147088630     -1.0000000000
 P 1 
   1       1.4753012711      1.0000000000
 P 1 
   1       3.6956296840     -1.0000000000
 D 1 
   1       7.6526720000      1.0000000000
 D 1 
   1       2.2178680000      1.0000000000
 D 1 
   1       0.6823370000      1.0000000000
  end;



           ************************************************************
           *        Program running with 32 parallel MPI-processes    *
           *              working on a common directory               *
           ************************************************************
------------------------------------------------------------------------------
                           ORCA GTO INTEGRAL CALCULATION
                           -- RI-GTO INTEGRALS CHOSEN --
------------------------------------------------------------------------------

                         BASIS SET STATISTICS AND STARTUP INFO

Gaussian basis set:
 # of primitive gaussian shells          ...  415
 # of primitive gaussian functions       ...  707
 # of contracted shells                  ...  217
 # of contracted basis functions         ...  401
 Highest angular momentum                ...    2
 Maximum contraction depth               ...    6
Auxiliary gaussian basis set:
 # of primitive gaussian shells          ...  378
 # of primitive gaussian functions       ...  774
 # of contracted shells                  ...  288
 # of contracted aux-basis functions     ...  648
 Highest angular momentum                ...    2
 Maximum contraction depth               ...    3
Ratio of auxiliary to basis functions    ...  1.62
Integral package used                  ... LIBINT
 One Electron integrals                  ... done
 Ordering auxiliary basis shells         ... done
 Integral threshhold             Thresh  ...  2.500e-11
 Primitive cut-off               TCut    ...  2.500e-12
 Pre-screening matrix                    ... done
 Shell pair data                         ... 
 Ordering of the shell pairs             ... done (   0.005 sec) 17899 of 23653 pairs
 Determination of significant pairs      ... done (   0.000 sec)
 Creation of shell pair data             ... done (   0.003 sec)
 Storage of shell pair data              ... done (   0.006 sec)
 Shell pair data done in (   0.015 sec)
 Computing two index integrals           ... done
 Cholesky decomposition of the V-matrix  ... done


Timings:
 Total evaluation time                   ...   0.566 sec (  0.009 min)
 One electron matrix time                ...   0.107 sec (  0.002 min) = 18.9%
 Schwartz matrix evaluation time         ...   0.166 sec (  0.003 min) = 29.3%
 Two index repulsion integral time       ...   0.024 sec (  0.000 min) =  4.3%
 Cholesky decomposition of V             ...   0.233 sec (  0.004 min) = 41.3%
 Three index repulsion integral time     ...   0.001 sec (  0.000 min) =  0.1%



           ************************************************************
           *        Program running with 32 parallel MPI-processes    *
           *              working on a common directory               *
           ************************************************************
-------------------------------------------------------------------------------
                                 ORCA SCF
-------------------------------------------------------------------------------

------------
SCF SETTINGS
------------
Hamiltonian:
 Density Functional     Method          .... DFT(GTOs)
 Exchange Functional    Exchange        .... B973C
 Correlation Functional Correlation     .... B973C
 Gradients option       PostSCFGGA      .... off
   Density functional embedding theory  .... OFF
 RI-approximation to the Coulomb term is turned on
   Number of auxiliary basis functions  .... 648


General Settings:
 Integral files         IntName         .... _o_1_alde1_2_ami4_1_opt_B97-3c
 Hartree-Fock type      HFTyp           .... RHF
 Total Charge           Charge          ....    0
 Multiplicity           Mult            ....    1
 Number of Electrons    NEL             ....  132
 Basis Dimension        Dim             ....  401
 Nuclear Repulsion      ENuc            ....   1303.0498234815 Eh

Convergence Acceleration:
 DIIS                   CNVDIIS         .... on
   Start iteration      DIISMaxIt       ....     0
   Startup error        DIISStart       ....  0.200000
   # of expansion vecs  DIISMaxEq       ....     5
   Bias factor          DIISBfac        ....   1.050
   Max. coefficient     DIISMaxC        ....  10.000
 Newton-Raphson         CNVNR           .... off
 SOSCF                  CNVSOSCF        .... on
   Start iteration      SOSCFMaxIt      ....   150
   Startup grad/error   SOSCFStart      ....  0.001000
 Level Shifting         CNVShift        .... on
   Level shift para.    LevelShift      ....    0.2500
   Turn off err/grad.   ShiftErr        ....    0.0000
 Zerner damping         CNVZerner       .... off
 Static damping         CNVDamp         .... on
   Fraction old density DampFac         ....    0.8500
   Max. Damping (<1)    DampMax         ....    0.9800
   Min. Damping (>=0)   DampMin         ....    0.0000
   Turn off err/grad.   DampErr         ....    0.0300
 Fernandez-Rico         CNVRico         .... off

SCF Procedure:
 Maximum # iterations   MaxIter         ....  2000
 SCF integral mode      SCFMode         .... Direct
   Integral package                     .... LIBINT
 Reset frequency        DirectResetFreq ....    20
 Integral Threshold     Thresh          ....  2.500e-11 Eh
 Primitive CutOff       TCut            ....  2.500e-12 Eh

Convergence Tolerance:
 Convergence Check Mode ConvCheckMode   .... Total+1el-Energy
 Convergence forced     ConvForced      .... 0
 Energy Change          TolE            ....  1.000e-08 Eh
 1-El. energy change                    ....  1.000e-05 Eh
 Orbital Gradient       TolG            ....  1.000e-05
 Orbital Rotation angle TolX            ....  1.000e-05
 DIIS Error             TolErr          ....  5.000e-07


Diagonalization of the overlap matrix:
Smallest eigenvalue                        ... 6.665e-06
Time for diagonalization                   ...    0.129 sec
Threshold for overlap eigenvalues          ... 1.000e-08
Number of eigenvalues below threshold      ... 0
Time for construction of square roots      ...    0.055 sec
Total time needed                          ...    0.185 sec

--------------------------------
INITIAL GUESS: MINIMAL BASIS EHT
--------------------------------
The minimal basis has 108 functions
EHT matrix was diagonalized
Basis set overlap was calculated now projecting the orbitals
Using GuessMode=FMatrix for the initial guess
C*T matrix was formed
Effective Fockian was calculated
Effective Fockian was diagonalized
Initial density was built
                      ------------------
                      INITIAL GUESS DONE
                      ------------------
-------------------
DFT GRID GENERATION
-------------------

General Integration Accuracy     IntAcc      ...  5.340
Radial Grid Type                 RadialGrid  ... Gauss-Chebyshev
Angular Grid (max. acc.)         AngularGrid ... Lebedev-590
Angular grid pruning method      GridPruning ... 3 (G Style)
Weight generation scheme         WeightScheme... Becke
Basis function cutoff            BFCut       ...    1.0000e-11
Integration weight cutoff        WCut        ...    1.0000e-14
Grids for H and He will be reduced by one unit

# of grid points (after initial pruning)     ... 494808 (   0.0 sec)
# of grid points (after weights+screening)   ... 429776 (   0.4 sec)
nearest neighbour list constructed           ...    0.0 sec
Grid point re-assignment to atoms done       ...    0.1 sec
Grid point division into batches done        ...    4.5 sec
Reduced shell lists constructed in    4.7 sec

Total number of grid points                  ...   429776
Total number of batches                      ...     6735
Average number of points per batch           ...       63
Average number of grid points per atom       ...    11938
Average number of shells per batch           ...   115.58 (53.26%)
Average number of basis functions per batch  ...   222.45 (55.47%)
Average number of large shells per batch     ...    80.91 (70.00%)
Average number of large basis fcns per batch ...   164.11 (73.77%)
Maximum spatial batch extension              ...   7.07, 13.44,  9.98 au
Average spatial batch extension              ...   0.03,  0.04,  0.04 au

Time for grid setup =    5.290 sec

--------------
SCF ITERATIONS
--------------
ITER       Energy         Delta-E        Max-DP      RMS-DP      [F,P]     Damp
               ***  Starting incremental Fock matrix formation  ***
  0   -797.4330323630   0.000000000000 4.72070572  0.03088504  0.4694743 0.8500
  1   -797.8989923065  -0.465959943550 2.19017755  0.01553942  0.4004883 0.8500
                               ***Turning on DIIS***
  2   -798.2212636630  -0.322271356517 0.52233783  0.00548447  0.3405716 0.8500
  3   -798.4659080114  -0.244644348314 0.47201265  0.00295101  0.2892133 0.8500
  4   -798.6721629144  -0.206254903048 0.62851513  0.00392468  0.2452495 0.8500
  5   -798.8434486593  -0.171285744875 0.54411955  0.00361346  0.2083201 0.8500
  6   -798.9910417285  -0.147593069216 0.44959280  0.00308490  0.1772101 0.8500
  7   -799.1173700981  -0.126328369615 0.35774190  0.00249338  0.1507318 0.8500
  8   -799.2250449298  -0.107674831641 0.33125983  0.00223821  0.1281518 0.8500
  9   -799.3160954433  -0.091050513513 0.30129712  0.00201264  0.1088337 0.8500
 10   -799.3930790011  -0.076983557825 0.25071619  0.00170138  0.0924408 0.8500
 11   -799.4585231566  -0.065444155545 0.20262946  0.00140017  0.0785948 0.8500
 12   -799.5142040796  -0.055680922975 0.16967512  0.00117211  0.0668437 0.8500
 13   -799.5615194392  -0.047315359587 0.14974975  0.00101690  0.0568199 0.8500
 14   -799.6016874798  -0.040168040583 0.13099063  0.00088250  0.0482664 0.8500
 15   -799.6357918047  -0.034104324881 0.10909721  0.00073932  0.0410038 0.8500
 16   -799.6647725831  -0.028980778439 0.08846884  0.00060062  0.0348561 0.8500
 17   -799.6894036583  -0.024631075205 0.48511679  0.00325187  0.0296375 0.0000
 18   -799.8288119806  -0.139408322312 0.03509453  0.00030645  0.0018467 0.0000
 19   -799.8288048137   0.000007166905 0.00861261  0.00007154  0.0028050 0.0000
               *** Restarting incremental Fock matrix formation ***
                                   *** Resetting DIIS ***
                      *** Initiating the SOSCF procedure ***
                           *** Shutting down DIIS ***
                      *** Re-Reading the Fockian *** 
                      *** Removing any level shift *** 
ITER      Energy       Delta-E        Grad      Rot      Max-DP    RMS-DP
 20   -799.82881744  -0.0000126281  0.000302  0.000302  0.023301  0.000200
               *** Restarting incremental Fock matrix formation ***
 21   -799.82881575   0.0000016958  0.000410  0.001510  0.021639  0.000119
 22   -799.82879162   0.0000241224  0.001355  0.001254  0.018997  0.000097
 23   -799.82881891  -0.0000272870  0.000041  0.000224  0.005124  0.000041
 24   -799.82881842   0.0000004940  0.000061  0.000125  0.002986  0.000029
 25   -799.82881909  -0.0000006759  0.000009  0.000058  0.005283  0.000058
 26   -799.82881908   0.0000000156  0.000024  0.000044  0.001756  0.000018
                  ***Gradient check signals convergence***
              ***Rediagonalizing the Fockian in SOSCF/NRSCF***

               *****************************************************
               *                     SUCCESS                       *
               *           SCF CONVERGED AFTER  27 CYCLES          *
               *****************************************************


----------------
TOTAL SCF ENERGY
----------------

Total Energy       :         -799.82881910 Eh          -21764.44865 eV

Components:
Nuclear Repulsion  :         1303.04982348 Eh           35457.78834 eV
Electronic Energy  :        -2102.87864258 Eh          -57222.23699 eV
One Electron Energy:        -3673.51863460 Eh          -99961.52399 eV
Two Electron Energy:         1570.63999202 Eh           42739.28701 eV

Virial components:
Potential Energy   :        -1596.84284073 Eh          -43452.30277 eV
Kinetic Energy     :          797.01402163 Eh           21687.85412 eV
Virial Ratio       :            2.00353168


DFT components:
N(Alpha)           :       65.999994567109 electrons
N(Beta)            :       65.999994567109 electrons
N(Total)           :      131.999989134219 electrons
E(XC)              :     -113.018546156091 Eh       
DFET-embed. en.    :        0.000000000000 Eh       

---------------
SCF CONVERGENCE
---------------

  Last Energy change         ...   -2.3572e-08  Tolerance :   1.0000e-08
  Last MAX-Density change    ...    2.7417e-03  Tolerance :   1.0000e-07
  Last RMS-Density change    ...    2.6027e-05  Tolerance :   5.0000e-09
  Last Orbital Gradient      ...    1.4545e-06  Tolerance :   1.0000e-05
  Last Orbital Rotation      ...    5.7370e-06  Tolerance :   1.0000e-05

             **** THE GBW FILE WAS UPDATED (_o_1_alde1_2_ami4_1_opt_B97-3c.gbw) ****
             **** DENSITY FILE WAS UPDATED (_o_1_alde1_2_ami4_1_opt_B97-3c.scfp) ****
             **** ENERGY FILE WAS UPDATED (_o_1_alde1_2_ami4_1_opt_B97-3c.en.tmp) ****
             **** THE GBW FILE WAS UPDATED (_o_1_alde1_2_ami4_1_opt_B97-3c.gbw) ****
             **** DENSITY FILE WAS UPDATED (_o_1_alde1_2_ami4_1_opt_B97-3c.scfp) ****
----------------
ORBITAL ENERGIES
----------------

  NO   OCC          E(Eh)            E(eV) 
   0   2.0000     -18.730709      -509.6885 
   1   2.0000     -13.985188      -380.5563 
   2   2.0000     -13.981011      -380.4427 
   3   2.0000     -13.977042      -380.3347 
   4   2.0000     -13.971660      -380.1882 
   5   2.0000      -9.966003      -271.1887 
   6   2.0000      -9.952636      -270.8250 
   7   2.0000      -9.948104      -270.7017 
   8   2.0000      -9.920464      -269.9495 
   9   2.0000      -9.918005      -269.8826 
  10   2.0000      -9.915807      -269.8228 
  11   2.0000      -9.912838      -269.7420 
  12   2.0000      -9.904661      -269.5195 
  13   2.0000      -9.904163      -269.5060 
  14   2.0000      -9.902141      -269.4510 
  15   2.0000      -9.901763      -269.4407 
  16   2.0000      -9.897757      -269.3317 
  17   2.0000      -9.896105      -269.2867 
  18   2.0000      -0.959739       -26.1158 
  19   2.0000      -0.893962       -24.3259 
  20   2.0000      -0.888939       -24.1893 
  21   2.0000      -0.798928       -21.7399 
  22   2.0000      -0.787878       -21.4393 
  23   2.0000      -0.782846       -21.3023 
  24   2.0000      -0.721852       -19.6426 
  25   2.0000      -0.714146       -19.4329 
  26   2.0000      -0.670498       -18.2452 
  27   2.0000      -0.658319       -17.9138 
  28   2.0000      -0.597348       -16.2547 
  29   2.0000      -0.580039       -15.7837 
  30   2.0000      -0.572387       -15.5754 
  31   2.0000      -0.558825       -15.2064 
  32   2.0000      -0.556864       -15.1530 
  33   2.0000      -0.528400       -14.3785 
  34   2.0000      -0.511558       -13.9202 
  35   2.0000      -0.479871       -13.0579 
  36   2.0000      -0.473017       -12.8715 
  37   2.0000      -0.460450       -12.5295 
  38   2.0000      -0.453008       -12.3270 
  39   2.0000      -0.446525       -12.1506 
  40   2.0000      -0.426949       -11.6179 
  41   2.0000      -0.409940       -11.1550 
  42   2.0000      -0.403879       -10.9901 
  43   2.0000      -0.388519       -10.5722 
  44   2.0000      -0.386139       -10.5074 
  45   2.0000      -0.381354       -10.3772 
  46   2.0000      -0.374605       -10.1935 
  47   2.0000      -0.367547       -10.0015 
  48   2.0000      -0.362139        -9.8543 
  49   2.0000      -0.358677        -9.7601 
  50   2.0000      -0.354361        -9.6427 
  51   2.0000      -0.347396        -9.4531 
  52   2.0000      -0.343663        -9.3515 
  53   2.0000      -0.338825        -9.2199 
  54   2.0000      -0.322062        -8.7637 
  55   2.0000      -0.316968        -8.6251 
  56   2.0000      -0.315983        -8.5983 
  57   2.0000      -0.313376        -8.5274 
  58   2.0000      -0.300915        -8.1883 
  59   2.0000      -0.236533        -6.4364 
  60   2.0000      -0.232890        -6.3373 
  61   2.0000      -0.209887        -5.7113 
  62   2.0000      -0.207742        -5.6529 
  63   2.0000      -0.205444        -5.5904 
  64   2.0000      -0.190330        -5.1791 
  65   2.0000      -0.184390        -5.0175 
  66   0.0000      -0.087264        -2.3746 
  67   0.0000      -0.046062        -1.2534 
  68   0.0000       0.003971         0.1081 
  69   0.0000       0.013418         0.3651 
  70   0.0000       0.019594         0.5332 
  71   0.0000       0.032239         0.8773 
  72   0.0000       0.037182         1.0118 
  73   0.0000       0.054455         1.4818 
  74   0.0000       0.056414         1.5351 
  75   0.0000       0.061398         1.6707 
  76   0.0000       0.066147         1.7999 
  77   0.0000       0.072396         1.9700 
  78   0.0000       0.080192         2.1821 
  79   0.0000       0.083083         2.2608 
  80   0.0000       0.089001         2.4218 
  81   0.0000       0.091183         2.4812 
  82   0.0000       0.100659         2.7391 
  83   0.0000       0.102714         2.7950 
  84   0.0000       0.106057         2.8860 
  85   0.0000       0.108820         2.9611 
  86   0.0000       0.116529         3.1709 
  87   0.0000       0.125188         3.4065 
  88   0.0000       0.130432         3.5492 
  89   0.0000       0.134045         3.6475 
  90   0.0000       0.140133         3.8132 
  91   0.0000       0.144787         3.9399 
  92   0.0000       0.152777         4.1573 
  93   0.0000       0.158381         4.3098 
  94   0.0000       0.167160         4.5487 
  95   0.0000       0.174064         4.7365 
  96   0.0000       0.177789         4.8379 
  97   0.0000       0.182518         4.9666 
  98   0.0000       0.188672         5.1340 
  99   0.0000       0.190643         5.1877 
 100   0.0000       0.197593         5.3768 
 101   0.0000       0.198743         5.4081 
 102   0.0000       0.204163         5.5556 
 103   0.0000       0.211861         5.7650 
 104   0.0000       0.219546         5.9742 
 105   0.0000       0.224752         6.1158 
 106   0.0000       0.232610         6.3296 
 107   0.0000       0.237544         6.4639 
 108   0.0000       0.243940         6.6379 
 109   0.0000       0.245448         6.6790 
 110   0.0000       0.251153         6.8342 
 111   0.0000       0.258905         7.0452 
 112   0.0000       0.265290         7.2189 
 113   0.0000       0.268985         7.3195 
 114   0.0000       0.280181         7.6241 
 115   0.0000       0.286199         7.7879 
 116   0.0000       0.290267         7.8986 
 117   0.0000       0.295180         8.0323 
 118   0.0000       0.299983         8.1629 
 119   0.0000       0.304240         8.2788 
 120   0.0000       0.311282         8.4704 
 121   0.0000       0.315202         8.5771 
 122   0.0000       0.322029         8.7629 
 123   0.0000       0.325990         8.8706 
 124   0.0000       0.327772         8.9191 
 125   0.0000       0.332286         9.0420 
 126   0.0000       0.339246         9.2314 
 127   0.0000       0.341151         9.2832 
 128   0.0000       0.353276         9.6131 
 129   0.0000       0.357625         9.7315 
 130   0.0000       0.370098        10.0709 
 131   0.0000       0.371351        10.1050 
 132   0.0000       0.372795        10.1443 
 133   0.0000       0.380774        10.3614 
 134   0.0000       0.382229        10.4010 
 135   0.0000       0.385726        10.4961 
 136   0.0000       0.387730        10.5507 
 137   0.0000       0.389762        10.6060 
 138   0.0000       0.398202        10.8356 
 139   0.0000       0.405559        11.0358 
 140   0.0000       0.407138        11.0788 
 141   0.0000       0.409543        11.1442 
 142   0.0000       0.410990        11.1836 
 143   0.0000       0.417958        11.3732 
 144   0.0000       0.420600        11.4451 
 145   0.0000       0.424223        11.5437 
 146   0.0000       0.426616        11.6088 
 147   0.0000       0.432924        11.7804 
 148   0.0000       0.436931        11.8895 
 149   0.0000       0.441018        12.0007 
 150   0.0000       0.442583        12.0433 
 151   0.0000       0.446751        12.1567 
 152   0.0000       0.453364        12.3367 
 153   0.0000       0.461466        12.5571 
 154   0.0000       0.468714        12.7543 
 155   0.0000       0.470099        12.7921 
 156   0.0000       0.477774        13.0009 
 157   0.0000       0.484547        13.1852 
 158   0.0000       0.486205        13.2303 
 159   0.0000       0.488672        13.2974 
 160   0.0000       0.500314        13.6142 
 161   0.0000       0.507510        13.8101 
 162   0.0000       0.510333        13.8869 
 163   0.0000       0.514169        13.9912 
 164   0.0000       0.528444        14.3797 
 165   0.0000       0.534748        14.5512 
 166   0.0000       0.539088        14.6693 
 167   0.0000       0.548738        14.9319 
 168   0.0000       0.559223        15.2172 
 169   0.0000       0.562393        15.3035 
 170   0.0000       0.568820        15.4784 
 171   0.0000       0.581716        15.8293 
 172   0.0000       0.583409        15.8754 
 173   0.0000       0.589591        16.0436 
 174   0.0000       0.603286        16.4162 
 175   0.0000       0.621011        16.8986 
 176   0.0000       0.627661        17.0795 
 177   0.0000       0.636486        17.3197 
 178   0.0000       0.640400        17.4262 
 179   0.0000       0.649209        17.6659 
 180   0.0000       0.651702        17.7337 
 181   0.0000       0.663031        18.0420 
 182   0.0000       0.668957        18.2032 
 183   0.0000       0.675153        18.3718 
 184   0.0000       0.687564        18.7096 
 185   0.0000       0.693912        18.8823 
 186   0.0000       0.704419        19.1682 
 187   0.0000       0.713210        19.4074 
 188   0.0000       0.717802        19.5324 
 189   0.0000       0.725153        19.7324 
 190   0.0000       0.730245        19.8710 
 191   0.0000       0.755631        20.5618 
 192   0.0000       0.759083        20.6557 
 193   0.0000       0.775735        21.1088 
 194   0.0000       0.789656        21.4876 
 195   0.0000       0.795716        21.6525 
 196   0.0000       0.816091        22.2070 
 197   0.0000       0.838622        22.8201 
 198   0.0000       0.855521        23.2799 
 199   0.0000       0.862048        23.4575 
 200   0.0000       0.881997        24.0004 
 201   0.0000       0.912143        24.8207 
 202   0.0000       0.957272        26.0487 
 203   0.0000       1.113559        30.3015 
 204   0.0000       1.144995        31.1569 
 205   0.0000       1.155098        31.4318 
 206   0.0000       1.209408        32.9097 
 207   0.0000       1.255929        34.1756 
 208   0.0000       1.271857        34.6090 
 209   0.0000       1.278327        34.7851 
 210   0.0000       1.289109        35.0784 
 211   0.0000       1.303566        35.4718 
 212   0.0000       1.309493        35.6331 
 213   0.0000       1.327389        36.1201 
 214   0.0000       1.332285        36.2533 
 215   0.0000       1.338164        36.4133 
 216   0.0000       1.338585        36.4248 
 217   0.0000       1.344304        36.5804 
 218   0.0000       1.354698        36.8632 
 219   0.0000       1.367058        37.1995 
 220   0.0000       1.367977        37.2245 
 221   0.0000       1.378553        37.5123 
 222   0.0000       1.388962        37.7956 
 223   0.0000       1.395501        37.9735 
 224   0.0000       1.404025        38.2055 
 225   0.0000       1.405116        38.2351 
 226   0.0000       1.416254        38.5382 
 227   0.0000       1.425388        38.7868 
 228   0.0000       1.426544        38.8182 
 229   0.0000       1.428292        38.8658 
 230   0.0000       1.442272        39.2462 
 231   0.0000       1.449026        39.4300 
 232   0.0000       1.466119        39.8951 
 233   0.0000       1.470600        40.0170 
 234   0.0000       1.482658        40.3452 
 235   0.0000       1.485602        40.4253 
 236   0.0000       1.489799        40.5395 
 237   0.0000       1.501428        40.8559 
 238   0.0000       1.504045        40.9271 
 239   0.0000       1.508055        41.0363 
 240   0.0000       1.517779        41.3009 
 241   0.0000       1.527097        41.5544 
 242   0.0000       1.530186        41.6385 
 243   0.0000       1.536671        41.8149 
 244   0.0000       1.547048        42.0973 
 245   0.0000       1.548414        42.1345 
 246   0.0000       1.559752        42.4430 
 247   0.0000       1.568748        42.6878 
 248   0.0000       1.569441        42.7067 
 249   0.0000       1.573156        42.8078 
 250   0.0000       1.586847        43.1803 
 251   0.0000       1.598397        43.4946 
 252   0.0000       1.607471        43.7415 
 253   0.0000       1.622665        44.1550 
 254   0.0000       1.647532        44.8316 
 255   0.0000       1.657283        45.0970 
 256   0.0000       1.666293        45.3421 
 257   0.0000       1.666736        45.3542 
 258   0.0000       1.675365        45.5890 
 259   0.0000       1.678483        45.6738 
 260   0.0000       1.686429        45.8901 
 261   0.0000       1.694794        46.1177 
 262   0.0000       1.704424        46.3797 
 263   0.0000       1.711694        46.5776 
 264   0.0000       1.733619        47.1742 
 265   0.0000       1.736735        47.2590 
 266   0.0000       1.745003        47.4840 
 267   0.0000       1.752667        47.6925 
 268   0.0000       1.753373        47.7117 
 269   0.0000       1.765889        48.0523 
 270   0.0000       1.776470        48.3402 
 271   0.0000       1.785013        48.5727 
 272   0.0000       1.797923        48.9240 
 273   0.0000       1.803894        49.0865 
 274   0.0000       1.813663        49.3523 
 275   0.0000       1.820692        49.5435 
 276   0.0000       1.829606        49.7861 
 277   0.0000       1.843156        50.1548 
 278   0.0000       1.863182        50.6998 
 279   0.0000       1.877097        51.0784 
 280   0.0000       1.891447        51.4689 
 281   0.0000       1.906029        51.8657 
 282   0.0000       1.921269        52.2804 
 283   0.0000       1.928229        52.4698 
 284   0.0000       1.933885        52.6237 
 285   0.0000       1.940750        52.8105 
 286   0.0000       1.951908        53.1141 
 287   0.0000       1.962228        53.3949 
 288   0.0000       1.968519        53.5661 
 289   0.0000       1.983384        53.9706 
 290   0.0000       1.999409        54.4067 
 291   0.0000       2.012121        54.7526 
 292   0.0000       2.016232        54.8645 
 293   0.0000       2.024138        55.0796 
 294   0.0000       2.028260        55.1918 
 295   0.0000       2.047155        55.7059 
 296   0.0000       2.066333        56.2278 
 297   0.0000       2.078333        56.5543 
 298   0.0000       2.085817        56.7580 
 299   0.0000       2.091929        56.9243 
 300   0.0000       2.108569        57.3771 
 301   0.0000       2.114546        57.5397 
 302   0.0000       2.124076        57.7991 
 303   0.0000       2.144351        58.3508 
 304   0.0000       2.147287        58.4307 
 305   0.0000       2.150339        58.5137 
 306   0.0000       2.171133        59.0795 
 307   0.0000       2.195244        59.7356 
 308   0.0000       2.202906        59.9441 
 309   0.0000       2.208351        60.0923 
 310   0.0000       2.224553        60.5332 
 311   0.0000       2.225442        60.5574 
 312   0.0000       2.228773        60.6480 
 313   0.0000       2.239699        60.9453 
 314   0.0000       2.248367        61.1812 
 315   0.0000       2.259013        61.4709 
 316   0.0000       2.270702        61.7890 
 317   0.0000       2.276698        61.9521 
 318   0.0000       2.279355        62.0244 
 319   0.0000       2.298263        62.5389 
 320   0.0000       2.299112        62.5620 
 321   0.0000       2.318964        63.1022 
 322   0.0000       2.329177        63.3801 
 323   0.0000       2.340441        63.6866 
 324   0.0000       2.356644        64.1275 
 325   0.0000       2.366409        64.3933 
 326   0.0000       2.381763        64.8111 
 327   0.0000       2.407305        65.5061 
 328   0.0000       2.413299        65.6692 
 329   0.0000       2.431031        66.1517 
 330   0.0000       2.467230        67.1368 
 331   0.0000       2.475236        67.3546 
 332   0.0000       2.484292        67.6010 
 333   0.0000       2.493923        67.8631 
 334   0.0000       2.512451        68.3673 
 335   0.0000       2.519785        68.5668 
 336   0.0000       2.527123        68.7665 
 337   0.0000       2.535415        68.9921 
 338   0.0000       2.540421        69.1284 
 339   0.0000       2.576756        70.1171 
 340   0.0000       2.597087        70.6703 
 341   0.0000       2.654285        72.2268 
 342   0.0000       2.673130        72.7396 
 343   0.0000       2.689280        73.1790 
 344   0.0000       2.706442        73.6460 
 345   0.0000       2.720910        74.0397 
 346   0.0000       2.724440        74.1358 
 347   0.0000       2.731925        74.3395 
 348   0.0000       2.736354        74.4600 
 349   0.0000       2.743107        74.6437 
 350   0.0000       2.785833        75.8064 
 351   0.0000       2.798425        76.1490 
 352   0.0000       2.814078        76.5749 
 353   0.0000       2.825081        76.8744 
 354   0.0000       2.835456        77.1567 
 355   0.0000       2.845300        77.4246 
 356   0.0000       2.938891        79.9713 
 357   0.0000       2.957544        80.4789 
 358   0.0000       2.976836        81.0038 
 359   0.0000       2.990021        81.3626 
 360   0.0000       3.012200        81.9661 
 361   0.0000       3.039790        82.7169 
 362   0.0000       3.065521        83.4171 
 363   0.0000       3.079778        83.8050 
 364   0.0000       3.092014        84.1380 
 365   0.0000       3.098201        84.3063 
 366   0.0000       3.122765        84.9748 
 367   0.0000       3.174583        86.3848 
 368   0.0000       3.180712        86.5516 
 369   0.0000       3.204522        87.1995 
 370   0.0000       3.223615        87.7190 
 371   0.0000       3.280883        89.2774 
 372   0.0000       3.351710        91.2047 
 373   0.0000       3.358847        91.3989 
 374   0.0000       3.398377        92.4745 
 375   0.0000       3.399623        92.5085 
 376   0.0000       3.472758        94.4986 
 377   0.0000       3.488018        94.9138 
 378   0.0000       3.501015        95.2675 
 379   0.0000       3.545315        96.4729 
 380   0.0000       3.548970        96.5724 
 381   0.0000       3.575850        97.3038 
 382   0.0000       3.965901       107.9176 
 383   0.0000      21.107076       574.3527 
 384   0.0000      21.563433       586.7708 
 385   0.0000      21.583587       587.3193 
 386   0.0000      21.661600       589.4421 
 387   0.0000      21.686847       590.1291 
 388   0.0000      21.777426       592.5939 
 389   0.0000      21.784366       592.7827 
 390   0.0000      21.899719       595.9216 
 391   0.0000      21.902955       596.0097 
 392   0.0000      21.970793       597.8557 
 393   0.0000      22.006280       598.8213 
 394   0.0000      22.079085       600.8024 
 395   0.0000      22.136360       602.3610 
 396   0.0000      31.694692       862.4564 
 397   0.0000      31.719431       863.1296 
 398   0.0000      31.768251       864.4581 
 399   0.0000      31.789136       865.0264 
 400   0.0000      43.319303      1178.7782 

                    ********************************
                    * MULLIKEN POPULATION ANALYSIS *
                    ********************************

-----------------------
MULLIKEN ATOMIC CHARGES
-----------------------
   0 C :    0.247201
   1 C :   -0.156782
   2 C :   -0.179997
   3 C :    0.154926
   4 H :    0.202539
   5 C :   -0.232751
   6 C :    0.504029
   7 H :    0.208645
   8 C :   -0.109388
   9 C :   -0.706904
  10 H :    0.221500
  11 C :   -0.536948
  12 O :   -0.310257
  13 C :   -0.268843
  14 C :   -0.256855
  15 N :   -0.308611
  16 H :    0.191441
  17 N :   -0.327572
  18 H :    0.157464
  19 C :   -0.255730
  20 C :   -0.259903
  21 N :   -0.292545
  22 H :    0.152067
  23 N :   -0.308030
  24 H :    0.158040
  25 H :    0.301795
  26 H :    0.172518
  27 H :    0.309774
  28 H :    0.304779
  29 H :    0.305174
  30 H :    0.160745
  31 H :    0.097577
  32 H :    0.148890
  33 H :    0.161884
  34 H :    0.161447
  35 H :    0.188682
Sum of atomic charges:   -0.0000000

--------------------------------
MULLIKEN REDUCED ORBITAL CHARGES
--------------------------------
  0 C s       :     3.213176  s :     3.213176
      pz      :     0.794125  p :     2.492573
      px      :     0.742905
      py      :     0.955543
      dz2     :     0.010837  d :     0.047050
      dxz     :     0.013747
      dyz     :     0.005664
      dx2y2   :     0.008382
      dxy     :     0.008419
  1 C s       :     3.347700  s :     3.347700
      pz      :     0.964164  p :     2.723079
      px      :     0.942622
      py      :     0.816294
      dz2     :     0.021842  d :     0.086003
      dxz     :     0.024518
      dyz     :     0.009606
      dx2y2   :     0.017026
      dxy     :     0.013011
  2 C s       :     2.996114  s :     2.996114
      pz      :     1.139261  p :     3.142452
      px      :     1.011944
      py      :     0.991247
      dz2     :     0.008708  d :     0.041431
      dxz     :     0.014193
      dyz     :     0.005587
      dx2y2   :     0.007208
      dxy     :     0.005735
  3 C s       :     3.240194  s :     3.240194
      pz      :     0.843607  p :     2.557207
      px      :     0.768185
      py      :     0.945415
      dz2     :     0.011223  d :     0.047673
      dxz     :     0.014718
      dyz     :     0.006736
      dx2y2   :     0.008069
      dxy     :     0.006928
  4 H s       :     0.797461  s :     0.797461
  5 C s       :     3.233801  s :     3.233801
      pz      :     1.004572  p :     2.957391
      px      :     1.008896
      py      :     0.943923
      dz2     :     0.009576  d :     0.041559
      dxz     :     0.011609
      dyz     :     0.004961
      dx2y2   :     0.007789
      dxy     :     0.007623
  6 C s       :     3.149615  s :     3.149615
      pz      :     0.739534  p :     2.298080
      px      :     0.680523
      py      :     0.878023
      dz2     :     0.011392  d :     0.048275
      dxz     :     0.014743
      dyz     :     0.005964
      dx2y2   :     0.008149
      dxy     :     0.008027
  7 H s       :     0.791355  s :     0.791355
  8 C s       :     3.243538  s :     3.243538
      pz      :     0.966129  p :     2.824606
      px      :     0.914055
      py      :     0.944421
      dz2     :     0.009706  d :     0.041244
      dxz     :     0.012921
      dyz     :     0.006035
      dx2y2   :     0.007531
      dxy     :     0.005051
  9 C s       :     3.556979  s :     3.556979
      pz      :     1.204388  p :     3.074852
      px      :     1.006865
      py      :     0.863599
      dz2     :     0.017223  d :     0.075072
      dxz     :     0.013780
      dyz     :     0.009602
      dx2y2   :     0.015753
      dxy     :     0.018715
 10 H s       :     0.778500  s :     0.778500
 11 C s       :     3.466334  s :     3.466334
      pz      :     1.033956  p :     2.994883
      px      :     1.094945
      py      :     0.865983
      dz2     :     0.011124  d :     0.075732
      dxz     :     0.018103
      dyz     :     0.019634
      dx2y2   :     0.012731
      dxy     :     0.014140
 12 O s       :     3.843187  s :     3.843187
      pz      :     1.620883  p :     4.435826
      px      :     1.425708
      py      :     1.389234
      dz2     :     0.004331  d :     0.031244
      dxz     :     0.009324
      dyz     :     0.004157
      dx2y2   :     0.006082
      dxy     :     0.007351
 13 C s       :     3.202227  s :     3.202227
      pz      :     1.010579  p :     3.011613
      px      :     0.978890
      py      :     1.022144
      dz2     :     0.005757  d :     0.055003
      dxz     :     0.014307
      dyz     :     0.014676
      dx2y2   :     0.011607
      dxy     :     0.008656
 14 C s       :     3.224936  s :     3.224936
      pz      :     1.000423  p :     2.977201
      px      :     0.970609
      py      :     1.006169
      dz2     :     0.012941  d :     0.054718
      dxz     :     0.013306
      dyz     :     0.009547
      dx2y2   :     0.006620
      dxy     :     0.012304
 15 N s       :     3.457894  s :     3.457894
      pz      :     1.402804  p :     3.805839
      px      :     1.141424
      py      :     1.261610
      dz2     :     0.006301  d :     0.044879
      dxz     :     0.012274
      dyz     :     0.007890
      dx2y2   :     0.006551
      dxy     :     0.011863
 16 H s       :     0.808559  s :     0.808559
 17 N s       :     3.393904  s :     3.393904
      pz      :     1.158908  p :     3.892595
      px      :     1.618159
      py      :     1.115527
      dz2     :     0.007557  d :     0.041073
      dxz     :     0.007865
      dyz     :     0.010500
      dx2y2   :     0.010093
      dxy     :     0.005058
 18 H s       :     0.842536  s :     0.842536
 19 C s       :     3.218256  s :     3.218256
      pz      :     1.132983  p :     2.982491
      px      :     0.922912
      py      :     0.926595
      dz2     :     0.011749  d :     0.054983
      dxz     :     0.014618
      dyz     :     0.005730
      dx2y2   :     0.010967
      dxy     :     0.011919
 20 C s       :     3.198576  s :     3.198576
      pz      :     1.135601  p :     3.006192
      px      :     0.866320
      py      :     1.004271
      dz2     :     0.013378  d :     0.055136
      dxz     :     0.008292
      dyz     :     0.007520
      dx2y2   :     0.012744
      dxy     :     0.013202
 21 N s       :     3.370915  s :     3.370915
      pz      :     1.537236  p :     3.880653
      px      :     1.071695
      py      :     1.271722
      dz2     :     0.007220  d :     0.040977
      dxz     :     0.004485
      dyz     :     0.009598
      dx2y2   :     0.006791
      dxy     :     0.012883
 22 H s       :     0.847933  s :     0.847933
 23 N s       :     3.463600  s :     3.463600
      pz      :     1.220259  p :     3.799590
      px      :     1.172590
      py      :     1.406740
      dz2     :     0.016832  d :     0.044841
      dxz     :     0.004008
      dyz     :     0.003271
      dx2y2   :     0.013175
      dxy     :     0.007554
 24 H s       :     0.841960  s :     0.841960
 25 H s       :     0.698205  s :     0.698205
 26 H s       :     0.827482  s :     0.827482
 27 H s       :     0.690226  s :     0.690226
 28 H s       :     0.695221  s :     0.695221
 29 H s       :     0.694826  s :     0.694826
 30 H s       :     0.839255  s :     0.839255
 31 H s       :     0.902423  s :     0.902423
 32 H s       :     0.851110  s :     0.851110
 33 H s       :     0.838116  s :     0.838116
 34 H s       :     0.838553  s :     0.838553
 35 H s       :     0.811318  s :     0.811318


                     *******************************
                     * LOEWDIN POPULATION ANALYSIS *
                     *******************************

----------------------
LOEWDIN ATOMIC CHARGES
----------------------
   0 C :   -0.072625
   1 C :    0.205400
   2 C :   -0.122968
   3 C :   -0.079852
   4 H :    0.176051
   5 C :   -0.124337
   6 C :   -0.072750
   7 H :    0.185563
   8 C :   -0.094569
   9 C :   -0.036076
  10 H :    0.197817
  11 C :   -0.033977
  12 O :   -0.466867
  13 C :   -0.213621
  14 C :   -0.216078
  15 N :   -0.356925
  16 H :    0.156697
  17 N :   -0.392534
  18 H :    0.145774
  19 C :   -0.217172
  20 C :   -0.214310
  21 N :   -0.388297
  22 H :    0.139871
  23 N :   -0.357337
  24 H :    0.149725
  25 H :    0.265969
  26 H :    0.144592
  27 H :    0.270240
  28 H :    0.269889
  29 H :    0.267560
  30 H :    0.145756
  31 H :    0.146565
  32 H :    0.138386
  33 H :    0.147237
  34 H :    0.151060
  35 H :    0.156143

-------------------------------
LOEWDIN REDUCED ORBITAL CHARGES
-------------------------------
  0 C s       :     2.852269  s :     2.852269
      pz      :     1.041250  p :     3.122452
      px      :     1.090857
      py      :     0.990345
      dz2     :     0.022513  d :     0.097904
      dxz     :     0.029629
      dyz     :     0.011286
      dx2y2   :     0.018082
      dxy     :     0.016394
  1 C s       :     2.857417  s :     2.857417
      pz      :     0.959463  p :     2.753477
      px      :     1.014078
      py      :     0.779935
      dz2     :     0.046839  d :     0.183706
      dxz     :     0.052681
      dyz     :     0.020042
      dx2y2   :     0.039783
      dxy     :     0.024361
  2 C s       :     2.892109  s :     2.892109
      pz      :     1.069977  p :     3.149263
      px      :     1.088389
      py      :     0.990896
      dz2     :     0.018239  d :     0.081597
      dxz     :     0.028163
      dyz     :     0.010810
      dx2y2   :     0.013611
      dxy     :     0.010774
  3 C s       :     2.860454  s :     2.860454
      pz      :     1.072345  p :     3.121203
      px      :     1.063976
      py      :     0.984881
      dz2     :     0.023669  d :     0.098195
      dxz     :     0.030990
      dyz     :     0.013496
      dx2y2   :     0.016804
      dxy     :     0.013237
  4 H s       :     0.823949  s :     0.823949
  5 C s       :     2.896102  s :     2.896102
      pz      :     1.087907  p :     3.146355
      px      :     1.076584
      py      :     0.981864
      dz2     :     0.017532  d :     0.081880
      dxz     :     0.025113
      dyz     :     0.007509
      dx2y2   :     0.016742
      dxy     :     0.014984
  6 C s       :     2.860933  s :     2.860933
      pz      :     1.066512  p :     3.112771
      px      :     1.071117
      py      :     0.975142
      dz2     :     0.023339  d :     0.099046
      dxz     :     0.032032
      dyz     :     0.012065
      dx2y2   :     0.016647
      dxy     :     0.014963
  7 H s       :     0.814437  s :     0.814437
  8 C s       :     2.892607  s :     2.892607
      pz      :     1.051293  p :     3.121073
      px      :     1.108241
      py      :     0.961539
      dz2     :     0.020175  d :     0.080889
      dxz     :     0.026153
      dyz     :     0.011963
      dx2y2   :     0.013268
      dxy     :     0.009330
  9 C s       :     2.869030  s :     2.869030
      pz      :     1.091739  p :     3.018708
      px      :     0.992788
      py      :     0.934181
      dz2     :     0.032364  d :     0.148338
      dxz     :     0.026983
      dyz     :     0.017530
      dx2y2   :     0.030732
      dxy     :     0.040729
 10 H s       :     0.802183  s :     0.802183
 11 C s       :     2.866541  s :     2.866541
      pz      :     1.007882  p :     3.017959
      px      :     1.055592
      py      :     0.954485
      dz2     :     0.021033  d :     0.149477
      dxz     :     0.033073
      dyz     :     0.042287
      dx2y2   :     0.025494
      dxy     :     0.027590
 12 O s       :     3.558279  s :     3.558279
      pz      :     1.650034  p :     4.645124
      px      :     1.600176
      py      :     1.394913
      dz2     :     0.054945  d :     0.263464
      dxz     :     0.074816
      dyz     :     0.026996
      dx2y2   :     0.069331
      dxy     :     0.037377
 13 C s       :     2.933117  s :     2.933117
      pz      :     1.051509  p :     3.177560
      px      :     1.045271
      py      :     1.080780
      dz2     :     0.009924  d :     0.102945
      dxz     :     0.027849
      dyz     :     0.027198
      dx2y2   :     0.022006
      dxy     :     0.015968
 14 C s       :     2.939880  s :     2.939880
      pz      :     1.051789  p :     3.173590
      px      :     1.041807
      py      :     1.079994
      dz2     :     0.023365  d :     0.102608
      dxz     :     0.026166
      dyz     :     0.018304
      dx2y2   :     0.012784
      dxy     :     0.021989
 15 N s       :     3.235123  s :     3.235123
      pz      :     1.448320  p :     4.042189
      px      :     1.260309
      py      :     1.333560
      dz2     :     0.010628  d :     0.079614
      dxz     :     0.021100
      dyz     :     0.013952
      dx2y2   :     0.012365
      dxy     :     0.021567
 16 H s       :     0.843303  s :     0.843303
 17 N s       :     3.224666  s :     3.224666
      pz      :     1.283428  p :     4.094477
      px      :     1.612447
      py      :     1.198601
      dz2     :     0.013896  d :     0.073391
      dxz     :     0.014268
      dyz     :     0.020477
      dx2y2   :     0.016706
      dxy     :     0.008044
 18 H s       :     0.854226  s :     0.854226
 19 C s       :     2.939517  s :     2.939517
      pz      :     1.136822  p :     3.174441
      px      :     0.997614
      py      :     1.040005
      dz2     :     0.020896  d :     0.103214
      dxz     :     0.025655
      dyz     :     0.009735
      dx2y2   :     0.022514
      dxy     :     0.024414
 20 C s       :     2.934547  s :     2.934547
      pz      :     1.130313  p :     3.176291
      px      :     0.965629
      py      :     1.080350
      dz2     :     0.023850  d :     0.103471
      dxz     :     0.015264
      dyz     :     0.012097
      dx2y2   :     0.027885
      dxy     :     0.024375
 21 N s       :     3.226168  s :     3.226168
      pz      :     1.564839  p :     4.088908
      px      :     1.188984
      py      :     1.335085
      dz2     :     0.011110  d :     0.073221
      dxz     :     0.008261
      dyz     :     0.014359
      dx2y2   :     0.013457
      dxy     :     0.026034
 22 H s       :     0.860129  s :     0.860129
 23 N s       :     3.233704  s :     3.233704
      pz      :     1.296343  p :     4.044213
      px      :     1.280180
      py      :     1.467690
      dz2     :     0.026333  d :     0.079420
      dxz     :     0.009184
      dyz     :     0.006550
      dx2y2   :     0.023293
      dxy     :     0.014061
 24 H s       :     0.850275  s :     0.850275
 25 H s       :     0.734031  s :     0.734031
 26 H s       :     0.855408  s :     0.855408
 27 H s       :     0.729760  s :     0.729760
 28 H s       :     0.730111  s :     0.730111
 29 H s       :     0.732440  s :     0.732440
 30 H s       :     0.854244  s :     0.854244
 31 H s       :     0.853435  s :     0.853435
 32 H s       :     0.861614  s :     0.861614
 33 H s       :     0.852763  s :     0.852763
 34 H s       :     0.848940  s :     0.848940
 35 H s       :     0.843857  s :     0.843857


                      *****************************
                      * MAYER POPULATION ANALYSIS *
                      *****************************

  NA   - Mulliken gross atomic population
  ZA   - Total nuclear charge
  QA   - Mulliken gross atomic charge
  VA   - Mayer's total valence
  BVA  - Mayer's bonded valence
  FA   - Mayer's free valence

  ATOM       NA         ZA         QA         VA         BVA        FA
  0 C      5.7528     6.0000     0.2472     3.1870     3.1870    -0.0000
  1 C      6.1568     6.0000    -0.1568     4.0419     4.0419    -0.0000
  2 C      6.1800     6.0000    -0.1800     3.7105     3.7105    -0.0000
  3 C      5.8451     6.0000     0.1549     3.4740     3.4740     0.0000
  4 H      0.7975     1.0000     0.2025     0.9185     0.9185    -0.0000
  5 C      6.2328     6.0000    -0.2328     3.6749     3.6749     0.0000
  6 C      5.4960     6.0000     0.5040     2.7581     2.7581     0.0000
  7 H      0.7914     1.0000     0.2086     0.9525     0.9525    -0.0000
  8 C      6.1094     6.0000    -0.1094     3.3723     3.3723    -0.0000
  9 C      6.7069     6.0000    -0.7069     4.1724     4.1724    -0.0000
 10 H      0.7785     1.0000     0.2215     0.9568     0.9568    -0.0000
 11 C      6.5369     6.0000    -0.5369     4.0697     4.0697    -0.0000
 12 O      8.3103     8.0000    -0.3103     2.1631     2.1631    -0.0000
 13 C      6.2688     6.0000    -0.2688     3.7865     3.7865    -0.0000
 14 C      6.2569     6.0000    -0.2569     3.7944     3.7944    -0.0000
 15 N      7.3086     7.0000    -0.3086     2.8573     2.8573    -0.0000
 16 H      0.8086     1.0000     0.1914     0.9330     0.9330    -0.0000
 17 N      7.3276     7.0000    -0.3276     2.6829     2.6829    -0.0000
 18 H      0.8425     1.0000     0.1575     0.9411     0.9411    -0.0000
 19 C      6.2557     6.0000    -0.2557     3.7709     3.7709    -0.0000
 20 C      6.2599     6.0000    -0.2599     3.7598     3.7598     0.0000
 21 N      7.2925     7.0000    -0.2925     2.6723     2.6723    -0.0000
 22 H      0.8479     1.0000     0.1521     0.9427     0.9427    -0.0000
 23 N      7.3080     7.0000    -0.3080     2.8380     2.8380    -0.0000
 24 H      0.8420     1.0000     0.1580     0.9461     0.9461    -0.0000
 25 H      0.6982     1.0000     0.3018     0.8797     0.8797    -0.0000
 26 H      0.8275     1.0000     0.1725     0.8928     0.8928    -0.0000
 27 H      0.6902     1.0000     0.3098     0.8812     0.8812    -0.0000
 28 H      0.6952     1.0000     0.3048     0.8795     0.8795    -0.0000
 29 H      0.6948     1.0000     0.3052     0.8778     0.8778    -0.0000
 30 H      0.8393     1.0000     0.1607     0.9140     0.9140    -0.0000
 31 H      0.9024     1.0000     0.0976     0.9412     0.9412    -0.0000
 32 H      0.8511     1.0000     0.1489     0.9399     0.9399    -0.0000
 33 H      0.8381     1.0000     0.1619     0.9420     0.9420     0.0000
 34 H      0.8386     1.0000     0.1614     0.9434     0.9434    -0.0000
 35 H      0.8113     1.0000     0.1887     0.9365     0.9365     0.0000

  Mayer bond orders larger than 0.100000
B(  0-C ,  1-C ) :   0.9037 B(  0-C ,  2-C ) :   1.2610 B(  0-C ,  8-C ) :   1.2018 
B(  0-C , 12-O ) :  -0.1652 B(  0-C , 31-H ) :  -0.1019 B(  1-C , 12-O ) :   2.0782 
B(  1-C , 31-H ) :   0.9564 B(  2-C ,  3-C ) :   1.4174 B(  2-C ,  4-H ) :   0.8645 
B(  3-C ,  5-C ) :   1.4160 B(  3-C , 11-C ) :   0.7229 B(  3-C , 15-N ) :  -0.1195 
B(  3-C , 17-N ) :  -0.1042 B(  5-C ,  6-C ) :   1.2483 B(  5-C ,  7-H ) :   0.8941 
B(  6-C ,  8-C ) :   1.2542 B(  6-C ,  9-C ) :   0.5546 B(  6-C , 21-N ) :  -0.1171 
B(  6-C , 23-N ) :  -0.1328 B(  8-C , 10-H ) :   0.9149 B(  9-C , 21-N ) :   1.1285 
B(  9-C , 23-N ) :   1.2308 B(  9-C , 26-H ) :   0.9779 B( 11-C , 15-N ) :   1.2124 
B( 11-C , 17-N ) :   1.0417 B( 11-C , 30-H ) :   0.9732 B( 13-C , 14-C ) :   0.9496 
B( 13-C , 15-N ) :   1.0079 B( 13-C , 16-H ) :   0.9465 B( 13-C , 34-H ) :   0.9416 
B( 14-C , 17-N ) :   1.0364 B( 14-C , 18-H ) :   0.9472 B( 14-C , 32-H ) :   0.9428 
B( 15-N , 28-H ) :   0.8421 B( 17-N , 29-H ) :   0.8570 B( 19-C , 20-C ) :   0.9397 
B( 19-C , 21-N ) :   1.0236 B( 19-C , 22-H ) :   0.9443 B( 19-C , 33-H ) :   0.9475 
B( 20-C , 23-N ) :   0.9913 B( 20-C , 24-H ) :   0.9425 B( 20-C , 35-H ) :   0.9449 
B( 21-N , 25-H ) :   0.8654 B( 23-N , 27-H ) :   0.8517 

-------
TIMINGS
-------

Total SCF time: 0 days 0 hours 0 min 25 sec 

Total time                  ....      25.881 sec
Sum of individual times     ....      24.589 sec  ( 95.0%)

Fock matrix formation       ....      15.145 sec  ( 58.5%)
  Split-RI-J                ....       3.951 sec  ( 26.1% of F)
  XC integration            ....       9.230 sec  ( 60.9% of F)
    Basis function eval.    ....       1.402 sec  ( 15.2% of XC)
    Density eval.           ....       2.534 sec  ( 27.5% of XC)
    XC-Functional eval.     ....       0.803 sec  (  8.7% of XC)
    XC-Potential eval.      ....       1.398 sec  ( 15.1% of XC)
Diagonalization             ....       1.922 sec  (  7.4%)
Density matrix formation    ....       0.114 sec  (  0.4%)
Population analysis         ....       0.115 sec  (  0.4%)
Initial guess               ....       0.177 sec  (  0.7%)
Orbital Transformation      ....       0.000 sec  (  0.0%)
Orbital Orthonormalization  ....       0.000 sec  (  0.0%)
DIIS solution               ....       1.126 sec  (  4.4%)
[...]
      py      :     1.001068
      dz2     :     0.012792  d :     0.054415
      dxz     :     0.012980
      dyz     :     0.009994
      dx2y2   :     0.006225
      dxy     :     0.012424
 15 N s       :     3.460689  s :     3.460689
      pz      :     1.404933  p :     3.806798
      px      :     1.138019
      py      :     1.263846
      dz2     :     0.006211  d :     0.044543
      dxz     :     0.012352
      dyz     :     0.007670
      dx2y2   :     0.006544
      dxy     :     0.011766
 16 H s       :     0.808813  s :     0.808813
 17 N s       :     3.396899  s :     3.396899
      pz      :     1.149302  p :     3.875985
      px      :     1.613462
      py      :     1.113221
      dz2     :     0.007110  d :     0.040827
      dxz     :     0.007763
      dyz     :     0.010995
      dx2y2   :     0.008673
      dxy     :     0.006286
 18 H s       :     0.839861  s :     0.839861
 19 C s       :     3.220506  s :     3.220506
      pz      :     1.139106  p :     2.988596
      px      :     0.926420
      py      :     0.923070
      dz2     :     0.011751  d :     0.054830
      dxz     :     0.014151
      dyz     :     0.005831
      dx2y2   :     0.010986
      dxy     :     0.012110
 20 C s       :     3.198160  s :     3.198160
      pz      :     1.138003  p :     3.006649
      px      :     0.864630
      py      :     1.004017
      dz2     :     0.013210  d :     0.055015
      dxz     :     0.008170
      dyz     :     0.007804
      dx2y2   :     0.012747
      dxy     :     0.013084
 21 N s       :     3.378037  s :     3.378037
      pz      :     1.493109  p :     3.869644
      px      :     1.056159
      py      :     1.320375
      dz2     :     0.008857  d :     0.040868
      dxz     :     0.004317
      dyz     :     0.008481
      dx2y2   :     0.005988
      dxy     :     0.013225
 22 H s       :     0.846433  s :     0.846433
 23 N s       :     3.465021  s :     3.465021
      pz      :     1.223769  p :     3.804674
      px      :     1.179714
      py      :     1.401190
      dz2     :     0.016865  d :     0.044372
      dxz     :     0.003853
      dyz     :     0.003164
      dx2y2   :     0.013274
      dxy     :     0.007217
 24 H s       :     0.841530  s :     0.841530
 25 H s       :     0.696714  s :     0.696714
 26 H s       :     0.824474  s :     0.824474
 27 H s       :     0.689396  s :     0.689396
 28 H s       :     0.694057  s :     0.694057
 29 H s       :     0.694962  s :     0.694962
 30 H s       :     0.835365  s :     0.835365
 31 H s       :     0.898742  s :     0.898742
 32 H s       :     0.848852  s :     0.848852
 33 H s       :     0.835628  s :     0.835628
 34 H s       :     0.838606  s :     0.838606
 35 H s       :     0.812563  s :     0.812563


                     *******************************
                     * LOEWDIN POPULATION ANALYSIS *
                     *******************************

----------------------
LOEWDIN ATOMIC CHARGES
----------------------
   0 C :   -0.071387
   1 C :    0.207890
   2 C :   -0.121891
   3 C :   -0.080512
   4 H :    0.176045
   5 C :   -0.121683
   6 C :   -0.072751
   7 H :    0.185036
   8 C :   -0.095652
   9 C :   -0.037321
  10 H :    0.196983
  11 C :   -0.035675
  12 O :   -0.471038
  13 C :   -0.215182
  14 C :   -0.216533
  15 N :   -0.357500
  16 H :    0.156646
  17 N :   -0.390775
  18 H :    0.147060
  19 C :   -0.217772
  20 C :   -0.215885
  21 N :   -0.387107
  22 H :    0.140574
  23 N :   -0.358586
  24 H :    0.149220
  25 H :    0.264805
  26 H :    0.146121
  27 H :    0.270257
  28 H :    0.270011
  29 H :    0.266286
  30 H :    0.147404
  31 H :    0.148617
  32 H :    0.139130
  33 H :    0.148278
  34 H :    0.150939
  35 H :    0.155947

-------------------------------
LOEWDIN REDUCED ORBITAL CHARGES
-------------------------------
  0 C s       :     2.852753  s :     2.852753
      pz      :     1.040561  p :     3.120897
      px      :     1.091573
      py      :     0.988763
      dz2     :     0.022825  d :     0.097737
      dxz     :     0.029481
      dyz     :     0.011160
      dx2y2   :     0.018009
      dxy     :     0.016262
  1 C s       :     2.861366  s :     2.861366
      pz      :     0.961062  p :     2.751684
      px      :     1.012212
      py      :     0.778411
      dz2     :     0.047346  d :     0.179059
      dxz     :     0.049784
      dyz     :     0.020731
      dx2y2   :     0.039141
      dxy     :     0.022057
  2 C s       :     2.893319  s :     2.893319
      pz      :     1.069261  p :     3.147216
      px      :     1.088633
      py      :     0.989322
      dz2     :     0.018246  d :     0.081356
      dxz     :     0.028023
      dyz     :     0.010836
      dx2y2   :     0.013524
      dxy     :     0.010727
  3 C s       :     2.860882  s :     2.860882
      pz      :     1.071734  p :     3.121450
      px      :     1.065555
      py      :     0.984162
      dz2     :     0.023655  d :     0.098180
      dxz     :     0.030941
      dyz     :     0.013344
      dx2y2   :     0.016993
      dxy     :     0.013248
  4 H s       :     0.823955  s :     0.823955
  5 C s       :     2.897217  s :     2.897217
      pz      :     1.085416  p :     3.143217
      px      :     1.074873
      py      :     0.982928
      dz2     :     0.017156  d :     0.081249
      dxz     :     0.024519
      dyz     :     0.007708
      dx2y2   :     0.016860
      dxy     :     0.015006
  6 C s       :     2.861635  s :     2.861635
      pz      :     1.065951  p :     3.112553
      px      :     1.068873
      py      :     0.977729
      dz2     :     0.023220  d :     0.098562
      dxz     :     0.031710
      dyz     :     0.012165
      dx2y2   :     0.016493
      dxy     :     0.014973
  7 H s       :     0.814964  s :     0.814964
  8 C s       :     2.892954  s :     2.892954
      pz      :     1.050812  p :     3.121950
      px      :     1.105770
      py      :     0.965368
      dz2     :     0.020098  d :     0.080748
      dxz     :     0.025928
      dyz     :     0.011947
      dx2y2   :     0.013146
      dxy     :     0.009629
  9 C s       :     2.870183  s :     2.870183
      pz      :     1.094412  p :     3.020751
      px      :     0.991808
      py      :     0.934530
      dz2     :     0.031785  d :     0.146387
      dxz     :     0.027552
      dyz     :     0.015969
      dx2y2   :     0.031071
      dxy     :     0.040010
 10 H s       :     0.803017  s :     0.803017
 11 C s       :     2.867407  s :     2.867407
      pz      :     1.009790  p :     3.020434
      px      :     1.056834
      py      :     0.953810
      dz2     :     0.020618  d :     0.147834
      dxz     :     0.032052
      dyz     :     0.042007
      dx2y2   :     0.025475
      dxy     :     0.027682
 12 O s       :     3.566548  s :     3.566548
      pz      :     1.650614  p :     4.645773
      px      :     1.605413
      py      :     1.389746
      dz2     :     0.054765  d :     0.258716
      dxz     :     0.072722
      dyz     :     0.027669
      dx2y2   :     0.067637
      dxy     :     0.035923
 13 C s       :     2.932356  s :     2.932356
      pz      :     1.051346  p :     3.180121
      px      :     1.044609
      py      :     1.084166
      dz2     :     0.009823  d :     0.102706
      dxz     :     0.027649
      dyz     :     0.026887
      dx2y2   :     0.022478
      dxy     :     0.015870
 14 C s       :     2.939056  s :     2.939056
      pz      :     1.051829  p :     3.175476
      px      :     1.045008
      py      :     1.078639
      dz2     :     0.023012  d :     0.102001
      dxz     :     0.025377
      dyz     :     0.019404
      dx2y2   :     0.011964
      dxy     :     0.022243
 15 N s       :     3.239428  s :     3.239428
      pz      :     1.449839  p :     4.039398
      px      :     1.254936
      py      :     1.334624
      dz2     :     0.010425  d :     0.078674
      dxz     :     0.021102
      dyz     :     0.013489
      dx2y2   :     0.012327
      dxy     :     0.021332
 16 H s       :     0.843354  s :     0.843354
 17 N s       :     3.232451  s :     3.232451
      pz      :     1.277185  p :     4.086015
      px      :     1.611382
      py      :     1.197448
      dz2     :     0.013104  d :     0.072308
      dxz     :     0.013830
      dyz     :     0.021096
      dx2y2   :     0.014674
      dxy     :     0.009605
 18 H s       :     0.852940  s :     0.852940
 19 C s       :     2.938190  s :     2.938190
      pz      :     1.139181  p :     3.176627
      px      :     0.999198
      py      :     1.038248
      dz2     :     0.020962  d :     0.102955
      dxz     :     0.024725
      dyz     :     0.010063
      dx2y2   :     0.022199
      dxy     :     0.025006
 20 C s       :     2.933723  s :     2.933723
      pz      :     1.132522  p :     3.178877
      px      :     0.962818
      py      :     1.083536
      dz2     :     0.023533  d :     0.103284
      dxz     :     0.015045
      dyz     :     0.012674
      dx2y2   :     0.027838
      dxy     :     0.024194
 21 N s       :     3.233498  s :     3.233498
      pz      :     1.526739  p :     4.081245
      px      :     1.180875
      py      :     1.373632
      dz2     :     0.013307  d :     0.072364
      dxz     :     0.008056
      dyz     :     0.012875
      dx2y2   :     0.011928
      dxy     :     0.026198
 22 H s       :     0.859426  s :     0.859426
 23 N s       :     3.237918  s :     3.237918
      pz      :     1.299788  p :     4.042397
      px      :     1.283701
      py      :     1.458907
      dz2     :     0.026243  d :     0.078272
      dxz     :     0.008741
      dyz     :     0.006364
      dx2y2   :     0.023453
      dxy     :     0.013470
 24 H s       :     0.850780  s :     0.850780
 25 H s       :     0.735195  s :     0.735195
 26 H s       :     0.853879  s :     0.853879
 27 H s       :     0.729743  s :     0.729743
 28 H s       :     0.729989  s :     0.729989
 29 H s       :     0.733714  s :     0.733714
 30 H s       :     0.852596  s :     0.852596
 31 H s       :     0.851383  s :     0.851383
 32 H s       :     0.860870  s :     0.860870
 33 H s       :     0.851722  s :     0.851722
 34 H s       :     0.849061  s :     0.849061
 35 H s       :     0.844053  s :     0.844053


                      *****************************
                      * MAYER POPULATION ANALYSIS *
                      *****************************

  NA   - Mulliken gross atomic population
  ZA   - Total nuclear charge
  QA   - Mulliken gross atomic charge
  VA   - Mayer's total valence
  BVA  - Mayer's bonded valence
  FA   - Mayer's free valence

  ATOM       NA         ZA         QA         VA         BVA        FA
  0 C      5.7210     6.0000     0.2790     3.1486     3.1486    -0.0000
  1 C      6.1625     6.0000    -0.1625     4.0395     4.0395    -0.0000
  2 C      6.1943     6.0000    -0.1943     3.7262     3.7262     0.0000
  3 C      5.8332     6.0000     0.1668     3.4755     3.4755     0.0000
  4 H      0.7966     1.0000     0.2034     0.9178     0.9178    -0.0000
  5 C      6.2344     6.0000    -0.2344     3.6828     3.6828     0.0000
  6 C      5.5037     6.0000     0.4963     2.7633     2.7633    -0.0000
  7 H      0.7918     1.0000     0.2082     0.9507     0.9507     0.0000
  8 C      6.1324     6.0000    -0.1324     3.3850     3.3850    -0.0000
  9 C      6.6943     6.0000    -0.6943     4.1567     4.1567    -0.0000
 10 H      0.7803     1.0000     0.2197     0.9554     0.9554     0.0000
 11 C      6.5545     6.0000    -0.5545     4.0683     4.0683    -0.0000
 12 O      8.3109     8.0000    -0.3109     2.1558     2.1558    -0.0000
 13 C      6.2651     6.0000    -0.2651     3.7661     3.7661    -0.0000
 14 C      6.2671     6.0000    -0.2671     3.7979     3.7979    -0.0000
 15 N      7.3120     7.0000    -0.3120     2.8609     2.8609    -0.0000
 16 H      0.8088     1.0000     0.1912     0.9331     0.9331    -0.0000
 17 N      7.3137     7.0000    -0.3137     2.6946     2.6946    -0.0000
 18 H      0.8399     1.0000     0.1601     0.9407     0.9407    -0.0000
 19 C      6.2639     6.0000    -0.2639     3.7733     3.7733    -0.0000
 20 C      6.2598     6.0000    -0.2598     3.7425     3.7425    -0.0000
 21 N      7.2885     7.0000    -0.2885     2.6862     2.6862    -0.0000
 22 H      0.8464     1.0000     0.1536     0.9425     0.9425    -0.0000
 23 N      7.3141     7.0000    -0.3141     2.8506     2.8506    -0.0000
 24 H      0.8415     1.0000     0.1585     0.9466     0.9466    -0.0000
 25 H      0.6967     1.0000     0.3033     0.8779     0.8779     0.0000
 26 H      0.8245     1.0000     0.1755     0.8949     0.8949     0.0000
 27 H      0.6894     1.0000     0.3106     0.8798     0.8798    -0.0000
 28 H      0.6941     1.0000     0.3059     0.8784     0.8784     0.0000
 29 H      0.6950     1.0000     0.3050     0.8776     0.8776     0.0000
 30 H      0.8354     1.0000     0.1646     0.9133     0.9133    -0.0000
 31 H      0.8987     1.0000     0.1013     0.9403     0.9403    -0.0000
 32 H      0.8489     1.0000     0.1511     0.9389     0.9389     0.0000
 33 H      0.8356     1.0000     0.1644     0.9413     0.9413     0.0000
 34 H      0.8386     1.0000     0.1614     0.9445     0.9445    -0.0000
 35 H      0.8126     1.0000     0.1874     0.9369     0.9369     0.0000

  Mayer bond orders larger than 0.100000
B(  0-C ,  1-C ) :   0.8947 B(  0-C ,  2-C ) :   1.2636 B(  0-C ,  8-C ) :   1.1832 
B(  0-C , 12-O ) :  -0.1639 B(  0-C , 31-H ) :  -0.1040 B(  1-C , 12-O ) :   2.0725 
B(  1-C , 31-H ) :   0.9565 B(  2-C ,  3-C ) :   1.4145 B(  2-C ,  4-H ) :   0.8622 
B(  3-C ,  5-C ) :   1.4365 B(  3-C , 11-C ) :   0.7116 B(  3-C , 15-N ) :  -0.1132 
B(  3-C , 17-N ) :  -0.1106 B(  5-C ,  6-C ) :   1.2399 B(  5-C ,  7-H ) :   0.8940 
B(  6-C ,  8-C ) :   1.2684 B(  6-C ,  9-C ) :   0.5555 B(  6-C , 21-N ) :  -0.1296 
B(  6-C , 23-N ) :  -0.1232 B(  8-C , 10-H ) :   0.9225 B(  9-C , 21-N ) :   1.1353 
B(  9-C , 23-N ) :   1.2241 B(  9-C , 26-H ) :   0.9850 B( 11-C , 15-N ) :   1.2086 
B( 11-C , 17-N ) :   1.0594 B( 11-C , 30-H ) :   0.9789 B( 13-C , 14-C ) :   0.9438 
B( 13-C , 15-N ) :   1.0049 B( 13-C , 16-H ) :   0.9473 B( 13-C , 34-H ) :   0.9406 
B( 14-C , 17-N ) :   1.0385 B( 14-C , 18-H ) :   0.9498 B( 14-C , 32-H ) :   0.9403 
B( 15-N , 28-H ) :   0.8442 B( 17-N , 29-H ) :   0.8595 B( 19-C , 20-C ) :   0.9342 
B( 19-C , 21-N ) :   1.0255 B( 19-C , 22-H ) :   0.9418 B( 19-C , 33-H ) :   0.9500 
B( 20-C , 23-N ) :   0.9928 B( 20-C , 24-H ) :   0.9416 B( 20-C , 35-H ) :   0.9460 
B( 21-N , 25-H ) :   0.8672 B( 23-N , 27-H ) :   0.8538 

-------
TIMINGS
-------

Total SCF time: 0 days 0 hours 0 min 10 sec 

Total time                  ....      10.465 sec
Sum of individual times     ....       9.921 sec  ( 94.8%)

Fock matrix formation       ....       3.991 sec  ( 38.1%)
  Split-RI-J                ....       1.118 sec  ( 28.0% of F)
  XC integration            ....       2.415 sec  ( 60.5% of F)
    Basis function eval.    ....       0.390 sec  ( 16.1% of XC)
    Density eval.           ....       0.662 sec  ( 27.4% of XC)
    XC-Functional eval.     ....       0.227 sec  (  9.4% of XC)
    XC-Potential eval.      ....       0.233 sec  (  9.6% of XC)
Diagonalization             ....       0.092 sec  (  0.9%)
Density matrix formation    ....       0.035 sec  (  0.3%)
Population analysis         ....       0.093 sec  (  0.9%)
Initial guess               ....       0.074 sec  (  0.7%)
Orbital Transformation      ....       0.000 sec  (  0.0%)
Orbital Orthonormalization  ....       0.062 sec  (  0.6%)
DIIS solution               ....       0.029 sec  (  0.3%)
SOSCF solution              ....       0.548 sec  (  5.2%)
Grid generation             ....       5.059 sec  ( 48.3%)


-------------------------------------------------------------------------------
                          DFT DISPERSION CORRECTION                            
                                                                               
                              DFTD3 V3.1  Rev 1                                
                          USING Becke-Johnson damping                          
-------------------------------------------------------------------------------
The B97-3c composite method is recognized
Using three-body term ABC
Active option DFTDOPT                   ...         4   

molecular C6(AA) [au] = 12408.785151 


            DFT-D V3
 parameters
 s6 scaling factor         :     1.0000 
 a1 scaling factor         :     0.3700 
 s8 scaling factor         :     1.5000 
 a2 scaling factor         :     4.1000 
 Damping factor alpha9(ATM):    16.0000 
 ad hoc parameters k1-k3   :    16.0000     1.3333    -4.0000 

 Edisp/kcal,au: -58.969812674119  -0.093974368231 
 E6   /kcal   : -30.303342814 
 E8   /kcal   : -28.711212061 
 E6(ABC)      :   0.044742201 
 % E8         :  48.687982476 
 % E6(ABC)    :  -0.075873060 

-------------------------   ----------------
Dispersion correction           -0.093974368
-------------------------   ----------------

------------------   -----------------
SRB correction            -0.108859931
------------------   -----------------

-------------------------   --------------------
FINAL SINGLE POINT ENERGY      -800.034283221292
-------------------------   --------------------

                                *** OPTIMIZATION RUN DONE ***

                            ***************************************
                            *     ORCA property calculations      *
                            ***************************************

                                    ---------------------
                                    Active property flags
                                    ---------------------
   (+) Dipole Moment


------------------------------------------------------------------------------
                       ORCA ELECTRIC PROPERTIES CALCULATION
------------------------------------------------------------------------------

Dipole Moment Calculation                       ... on
Quadrupole Moment Calculation                   ... off
Polarizability Calculation                      ... off
GBWName                                         ... _o_1_alde1_2_ami4_1_opt_B97-3c.gbw
Electron density file                           ... _o_1_alde1_2_ami4_1_opt_B97-3c.scfp
The origin for moment calculation is the CENTER OF MASS  = (-2.209345,  3.851061 -3.828236)

-------------
DIPOLE MOMENT
-------------
                                X             Y             Z
Electronic contribution:      0.67539      -3.96078       9.87298
Nuclear contribution   :     -1.33065       4.65174     -11.45550
                        -----------------------------------------
Total Dipole Moment    :     -0.65527       0.69096      -1.58252
                        -----------------------------------------
Magnitude (a.u.)       :      1.84694
Magnitude (Debye)      :      4.69454



--------------------
Rotational spectrum 
--------------------
 
Rotational constants in cm-1:     0.018981     0.008261     0.006157 
Rotational constants in MHz :   569.023081   247.670256   184.585031 

 Dipole components along the rotational axes: 
x,y,z [a.u.] :     0.952859    -1.582161    -0.000220 
x,y,z [Debye]:     2.421975    -4.021533    -0.000558 

 

Timings for individual modules:

Sum of individual times         ...      807.789 sec (=  13.463 min)
GTO integral calculation        ...       45.400 sec (=   0.757 min)   5.6 %
SCF iterations                  ...      571.785 sec (=   9.530 min)  70.8 %
SCF Gradient evaluation         ...      169.372 sec (=   2.823 min)  21.0 %
Geometry relaxation             ...       21.232 sec (=   0.354 min)   2.6 %
                             ****ORCA TERMINATED NORMALLY****
TOTAL RUN TIME: 0 days 0 hours 14 minutes 37 seconds 452 msec
