Job execution start: Thu Mar 10 18:29:24 GMT 2022
Shared library path: /work/e05/e05/atarzia/orca_4_2_1_linux_x86-64_openmpi314:/work/e05/e05/atarzia/openmpi-3.1.4/lib:/opt/cray/pe/papi/6.0.0.6/lib64:/opt/cray/libfabric/1.11.0.4.71/lib64
Slurm Job ID is: 1234896
Slurm Job name is: o_1_alde1_2_ami1_2_opt_MP2
nid006790

                                 *****************
                                 * O   R   C   A *
                                 *****************

           --- An Ab Initio, DFT and Semiempirical electronic structure package ---

                  #######################################################
                  #                        -***-                        #
                  #          Department of theory and spectroscopy      #
                  #               Directorship: Frank Neese             #
                  #        Max Planck Institute fuer Kohlenforschung    #
                  #                Kaiser Wilhelm Platz 1               #
                  #                 D-45470 Muelheim/Ruhr               #
                  #                      Germany                        #
                  #                                                     #
                  #                  All rights reserved                #
                  #                        -***-                        #
                  #######################################################


                         Program Version 4.2.1 -  RELEASE  -


 With contributions from (in alphabetic order):
   Daniel Aravena         : Magnetic Suceptibility
   Michael Atanasov       : Ab Initio Ligand Field Theory (pilot matlab implementation)
   Alexander A. Auer      : GIAO ZORA, VPT2
   Ute Becker             : Parallelization
   Giovanni Bistoni       : ED, misc. LED, open-shell LED, HFLD
   Martin Brehm           : Molecular dynamics
   Dmytro Bykov           : SCF Hessian
   Vijay G. Chilkuri      : MRCI spin determinant printing, contributions to CSF-ICE
   Dipayan Datta          : RHF DLPNO-CCSD density
   Achintya Kumar Dutta   : EOM-CC, STEOM-CC
   Dmitry Ganyushin       : Spin-Orbit,Spin-Spin,Magnetic field MRCI
   Miquel Garcia          : C-PCM Hessian, Gaussian charge scheme
   Yang Guo               : DLPNO-NEVPT2, CIM, IAO-localization
   Andreas Hansen         : Spin unrestricted coupled pair/coupled cluster methods
   Benjamin Helmich-Paris : CASSCF linear response (MC-RPA)
   Lee Huntington         : MR-EOM, pCC
   Robert Izsak           : Overlap fitted RIJCOSX, COSX-SCS-MP3, EOM
   Christian Kollmar      : KDIIS, OOCD, Brueckner-CCSD(T), CCSD density
   Simone Kossmann        : Meta GGA functionals, TD-DFT gradient, OOMP2, MP2 Hessian
   Martin Krupicka        : AUTO-CI
   Lucas Lang             : DCDCAS
   Dagmar Lenk            : GEPOL surface, SMD
   Dimitrios Liakos       : Extrapolation schemes; Compound Job, initial MDCI parallelization
   Dimitrios Manganas     : Further ROCIS development; embedding schemes
   Dimitrios Pantazis     : SARC Basis sets
   Taras Petrenko         : DFT Hessian,TD-DFT gradient, ASA, ECA, R-Raman, ABS, FL, XAS/XES, NRVS
   Peter Pinski           : DLPNO-MP2, DLPNO-MP2 Gradient
   Christoph Reimann      : Effective Core Potentials
   Marius Retegan         : Local ZFS, SOC
   Christoph Riplinger    : Optimizer, TS searches, QM/MM, DLPNO-CCSD(T), (RO)-DLPNO pert. Triples
   Tobias Risthaus        : Range-separated hybrids, TD-DFT gradient, RPA, STAB
   Michael Roemelt        : Original ROCIS implementation
   Masaaki Saitow         : Open-shell DLPNO-CCSD energy and density
   Barbara Sandhoefer     : DKH picture change effects
   Avijit Sen             : IP-ROCIS
   Kantharuban Sivalingam : CASSCF convergence, NEVPT2, FIC-MRCI
   Bernardo de Souza      : ESD, SOC TD-DFT
   Georgi Stoychev        : AutoAux, RI-MP2 NMR
   Willem Van den Heuvel  : Paramagnetic NMR
   Boris Wezisla          : Elementary symmetry handling
   Frank Wennmohs         : Technical directorship


 We gratefully acknowledge several colleagues who have allowed us to
 interface, adapt or use parts of their codes:
   Stefan Grimme, W. Hujo, H. Kruse,             : VdW corrections, initial TS optimization,
                  C. Bannwarth                     DFT functionals, gCP, sTDA/sTD-DF
   Ed Valeev, F. Pavosevic, A. Kumar             : LibInt (2-el integral package), F12 methods
   Garnet Chan, S. Sharma, J. Yang, R. Olivares  : DMRG
   Ulf Ekstrom                                   : XCFun DFT Library
   Mihaly Kallay                                 : mrcc  (arbitrary order and MRCC methods)
   Andreas Klamt, Michael Diedenhofen            : otool_cosmo (COSMO solvation model)
   Jiri Pittner, Ondrej Demel                    : Mk-CCSD
   Frank Weinhold                                : gennbo (NPA and NBO analysis)
   Christopher J. Cramer and Donald G. Truhlar   : smd solvation model
   Lars Goerigk                                  : TD-DFT with DH, B97 family of functionals
   V. Asgeirsson, H. Jonsson                     : NEB implementation
   FAccTs GmbH                                   : IRC, NEB, NEB-TS, Multilevel, MM, QM/MM, CI optimization
   S Lehtola, MJT Oliveira, MAL Marques          : LibXC Library


 Your calculation uses the libint2 library for the computation of 2-el integrals
 For citations please refer to: http://libint.valeyev.net

 Your ORCA version has been built with support for libXC version: 4.2.3
 For citations please refer to: https://tddft.org/programs/libxc/

 This ORCA versions uses:
   CBLAS   interface :  Fast vector & matrix operations
   LAPACKE interface :  Fast linear algebra routines
   SCALAPACK package :  Parallel linear algebra routines




***************************************
The coordinates will be read from file: _o_1_alde1_2_ami1_2_opt_B97-3c.xyz
***************************************


----- Orbital basis set information -----
Your calculation utilizes the basis: cc-pVTZ 
       H, B-Ne : Obtained from the ccRepo (grant-hill.group.shef.ac.uk/ccrepo) Feb. 2017
                 T. H. Dunning, Jr., J. Chem. Phys. 90, 1007 (1989)
            He : Obtained from the ccRepo (grant-hill.group.shef.ac.uk/ccrepo) Feb. 2017
                 D. E. Woon, T. H. Dunning, Jr., J. Chem. Phys. 100, 2975 (1994)
  Li-Be, Na-Mg : Obtained from the ccRepo (grant-hill.group.shef.ac.uk/ccrepo) Feb. 2017
                 B. P. Prascher, D. E. Woon, K. A. Peterson, T. H. Dunning, Jr., A. K. Wilson, Theor. Chem. Acc. 128, 69 (2011)
         Al-Ar : Obtained from the ccRepo (grant-hill.group.shef.ac.uk/ccrepo) Feb. 2017
                 D. E. Woon, T. H. Dunning, Jr., J. Chem. Phys. 98, 1358 (1993)
            Ca : Obtained from the Peterson Research Group Website (tyr0.chem.wsu.edu/~kipeters) Feb. 2017
                 J. Koput, K. A. Peterson, J. Phys. Chem. 106, 9595 (2002)
         Sc-Zn : Obtained from the ccRepo (grant-hill.group.shef.ac.uk/ccrepo) Feb. 2017
                 N. B. Balabanov, K. A. Peterson, J. Chem. Phys. 123, 064107 (2005)
                 N. B. Balabanov, K. A. Peterson, J. Chem. Phys. 125, 074110 (2006)
         Ga-Kr : Obtained from the ccRepo (grant-hill.group.shef.ac.uk/ccrepo) Feb. 2017
                 A. K. Wilson, D. E. Woon, K. A. Peterson, T. H. Dunning, Jr., J. Chem. Phys. 110, 7667 (1999)
             Y : Obtained from the ccRepo (grant-hill.group.shef.ac.uk/ccrepo) Feb. 2017
                 K. A. Peterson, D. Figgen, M. Dolg, H. Stoll, J. Chem. Phys. 126, 124101 (2007)
        Ag, Au : Obtained from the Peterson Research Group Website (tyr0.chem.wsu.edu/~kipeters) Feb. 2017
                 K. A. Peterson, C. Puzzarini, Theor. Chem. Acc. 114, 283 (2005)

----- AuxC basis set information -----
Your calculation utilizes the auxiliary basis: cc-pVTZ/C 
  Obtained from the EMSL Basis Set Exchange (bse.pnl.gov) Feb. 2017
  H-He, B-F, Al-Ar, Ga-Kr : F. Weigend, A. Kohn, C. Hattig, J. Chem. Phys. 116, 3175 (2002)
             Li-Be, Na-Mg : C. Haettig, Phys. Chem. Chem. Phys. 7, 59 (2005)
                       Ne : C. Haettig, Phys. Chem. Chem. Phys. 7, 59 (2005)
                            F. Weigend, A. Kohn, C. Hattig, J. Chem. Phys. 116, 3175 (2002)
                    Sc-Zn : J. G. Hill, J. A. Platts, J. Chem. Phys. 128, 044104 (2008)

================================================================================
                                        WARNINGS
                       Please study these warnings very carefully!
================================================================================


WARNING: No MP2 level density has been requested!
         To caclulate MP2 level properties use
         %mp2 Density relaxed end
         or
         %mp2 Density unrelaxed end

WARNING: Post HF methods need fully converged wavefunctions
  ===> : Setting SCFConvForced true
         You can overwrite this default with %scf ConvForced false 


INFO   : the flag for use of LIBINT has been found!

================================================================================
                                       INPUT FILE
================================================================================
NAME = o_1_alde1_2_ami1_2_opt_MP2.in
|  1> ! RI-MP2 cc-pVTZ cc-pVTZ/C TIGHTSCF printbasis Grid6 NOFINALGRID SlowConv
|  2> 
|  3> %base "_o_1_alde1_2_ami1_2_opt_MP2"
|  4> %maxcore 3000
|  5> %pal
|  6>    nprocs 32
|  7> end
|  8> 
|  9> * xyzfile 0 1 _o_1_alde1_2_ami1_2_opt_B97-3c.xyz
| 10> 
| 11>                          ****END OF INPUT****
================================================================================

                       ****************************
                       * Single Point Calculation *
                       ****************************

---------------------------------
CARTESIAN COORDINATES (ANGSTROEM)
---------------------------------
  C     -1.490412    2.048162   -0.706622
  C     -1.858365    1.771180    0.694309
  C     -2.492699    2.124898   -1.666395
  C     -2.175748    2.384892   -2.998701
  H     -3.530974    1.983048   -1.395383
  C     -0.839054    2.566457   -3.343955
  C      0.178279    2.491967   -2.390694
  H     -0.582916    2.769585   -4.378098
  C     -0.157489    2.230660   -1.067116
  C      1.567918    2.691293   -2.802588
  H      0.616330    2.170149   -0.315898
  C     -3.210023    2.467466   -4.028283
  O     -1.074987    1.685456    1.616536
  C     -5.413182    2.462818   -4.835175
  C     -6.412910    3.585409   -4.456085
  N     -4.446302    2.363435   -3.767088
  H     -4.932372    2.723390   -5.789313
  C     -6.083037    1.090512   -5.039506
  N     -7.175943    3.291725   -3.246895
  H     -7.123287    3.672224   -5.280232
  C     -5.738554    4.960033   -4.314075
  H     -6.502397    0.788586   -4.077067
  C     -5.055494    0.043827   -5.447921
  C     -7.207239    1.154496   -6.064980
  H     -5.081196    4.906980   -3.440713
  C     -6.779992    6.041645   -4.056852
  C     -4.894418    5.332438   -5.525879
  H     -8.045750    1.765128   -5.736508
  H     -7.594012    0.156005   -6.263293
  H     -6.853210    1.562267   -7.013040
  H     -5.528581   -0.927387   -5.586189
  H     -4.275816   -0.072515   -4.699615
  H     -4.577197    0.313335   -6.391611
  H     -4.539647    6.358425   -5.438520
  H     -5.479664    5.269182   -6.445133
  H     -4.018450    4.699715   -5.647826
  H     -6.300969    7.001702   -3.865373
  H     -7.407157    5.788245   -3.208149
  H     -7.428706    6.166357   -4.926622
  C      4.698225    1.489996   -2.141480
  C      3.889671    2.771052   -2.472934
  N      4.802981    1.228444   -0.710098
  H      5.709363    1.643482   -2.523333
  C      4.149105    0.241236   -2.851209
  N      2.541546    2.567493   -2.001512
  H      3.915409    2.935647   -3.559750
  C      4.464689    4.043015   -1.820794
  H      3.165413    0.032310   -2.419564
  C      5.046838   -0.960634   -2.586330
  C      3.981076    0.440106   -4.352125
  H      4.372840    3.922088   -0.739147
  C      3.654807    5.268152   -2.222153
  C      5.933728    4.244509   -2.169135
  H      3.205456    1.159306   -4.604653
  H      3.714145   -0.501074   -4.830985
  H      4.911753    0.783073   -4.808044
  H      5.197376   -1.109807   -1.521953
  H      6.027267   -0.817258   -3.045983
  H      4.615260   -1.866994   -3.010976
  H      6.286530    5.198815   -1.780246
  H      6.084360    4.256164   -3.249848
  H      6.576946    3.470333   -1.755460
  H      2.613240    5.180698   -1.924377
  H      3.683532    5.418535   -3.303114
  H      4.057587    6.166099   -1.755718
  H     -2.947952    1.639272    0.862431
  H      3.880790    1.319476   -0.300127
  H      5.381815    1.927308   -0.264925
  H     -7.821334    2.531829   -3.413572
  H     -6.531402    2.967462   -2.535418
  H      1.715842    2.959096   -3.858499
  H     -2.844512    2.624346   -5.053229

----------------------------
CARTESIAN COORDINATES (A.U.)
----------------------------
  NO LB      ZA    FRAG     MASS         X           Y           Z
   0 C     6.0000    0    12.011   -2.816470    3.870466   -1.335323
   1 C     6.0000    0    12.011   -3.511800    3.347045    1.312054
   2 C     6.0000    0    12.011   -4.710518    4.015476   -3.149031
   3 C     6.0000    0    12.011   -4.111568    4.506792   -5.666723
   4 H     1.0000    0     1.008   -6.672574    3.747417   -2.636892
   5 C     6.0000    0    12.011   -1.585582    4.849900   -6.319159
   6 C     6.0000    0    12.011    0.336899    4.709134   -4.517757
   7 H     1.0000    0     1.008   -1.101552    5.233757   -8.273407
   8 C     6.0000    0    12.011   -0.297611    4.215336   -2.016558
   9 C     6.0000    0    12.011    2.962936    5.085806   -5.296124
  10 H     1.0000    0     1.008    1.164695    4.100988   -0.596961
  11 C     6.0000    0    12.011   -6.066064    4.662835   -7.612351
  12 O     8.0000    0    15.999   -2.031431    3.185051    3.054810
  13 C     6.0000    0    12.011  -10.229431    4.654051   -9.137157
  14 C     6.0000    0    12.011  -12.118644    6.775441   -8.420781
  15 N     7.0000    0    14.007   -8.402294    4.466244   -7.118764
  16 H     1.0000    0     1.008   -9.320832    5.146462  -10.940216
  17 C     6.0000    0    12.011  -11.495273    2.060768   -9.523286
  18 N     7.0000    0    14.007  -13.560567    6.220458   -6.135743
  19 H     1.0000    0     1.008  -13.461062    6.939497   -9.978192
  20 C     6.0000    0    12.011  -10.844296    9.373104   -8.152420
  21 H     1.0000    0     1.008  -12.287749    1.490211   -7.704539
  22 C     6.0000    0    12.011   -9.553498    0.082821  -10.295078
  23 C     6.0000    0    12.011  -13.619709    2.181682  -11.461151
  24 H     1.0000    0     1.008   -9.602069    9.272849   -6.502005
  25 C     6.0000    0    12.011  -12.812328   11.417054   -7.666340
  26 C     6.0000    0    12.011   -9.249110   10.076847  -10.442398
  27 H     1.0000    0     1.008  -15.204265    3.335608  -10.840429
  28 H     1.0000    0     1.008  -14.350603    0.294806  -11.835908
  29 H     1.0000    0     1.008  -12.950691    2.952256  -13.252726
  30 H     1.0000    0     1.008  -10.447504   -1.752507  -10.556367
  31 H     1.0000    0     1.008   -8.080122   -0.137033   -8.880985
  32 H     1.0000    0     1.008   -8.649648    0.592117  -12.078395
  33 H     1.0000    0     1.008   -8.578689   12.015681  -10.277314
  34 H     1.0000    0     1.008  -10.355065    9.957311  -12.179536
  35 H     1.0000    0     1.008   -7.593769    8.881174  -10.672844
  36 H     1.0000    0     1.008  -11.907105   13.231299   -7.304497
  37 H     1.0000    0     1.008  -13.997499   10.938197   -6.062523
  38 H     1.0000    0     1.008  -14.038220   11.652726   -9.309966
  39 C     6.0000    0    12.011    8.878358    2.815685   -4.046811
  40 C     6.0000    0    12.011    7.350414    5.236529   -4.673168
  41 N     7.0000    0    14.007    9.076319    2.321422   -1.341891
  42 H     1.0000    0     1.008   10.789132    3.105732   -4.768408
  43 C     6.0000    0    12.011    7.840672    0.455870   -5.388005
  44 N     7.0000    0    14.007    4.802826    4.851859   -3.782310
  45 H     1.0000    0     1.008    7.399051    5.547568   -6.726953
  46 C     6.0000    0    12.011    8.437039    7.640192   -3.440802
  47 H     1.0000    0     1.008    5.981763    0.061058   -4.572314
  48 C     6.0000    0    12.011    9.537142   -1.815335   -4.887456
  49 C     6.0000    0    12.011    7.523144    0.831679   -8.224325
  50 H     1.0000    0     1.008    8.263471    7.411672   -1.396786
  51 C     6.0000    0    12.011    6.906584    9.955365   -4.199260
  52 C     6.0000    0    12.011   11.213122    8.020959   -4.099070
  53 H     1.0000    0     1.008    6.057433    2.190771   -8.701534
  54 H     1.0000    0     1.008    7.018717   -0.946893   -9.129238
  55 H     1.0000    0     1.008    9.281868    1.479793   -9.085886
  56 H     1.0000    0     1.008    9.821616   -2.097231   -2.876075
  57 H     1.0000    0     1.008   11.389884   -1.544394   -5.756074
  58 H     1.0000    0     1.008    8.721578   -3.528106   -5.689919
  59 H     1.0000    0     1.008   11.879819    9.824336   -3.364178
  60 H     1.0000    0     1.008   11.497774    8.042985   -6.141322
  61 H     1.0000    0     1.008   12.428628    6.557979   -3.317340
  62 H     1.0000    0     1.008    4.938308    9.790100   -3.636546
  63 H     1.0000    0     1.008    6.960867   10.239548   -6.241981
  64 H     1.0000    0     1.008    7.667728   11.652239   -3.317826
  65 H     1.0000    0     1.008   -5.570821    3.097776    1.629758
  66 H     1.0000    0     1.008    7.333630    2.493447   -0.567158
  67 H     1.0000    0     1.008   10.170156    3.642085   -0.500635
  68 H     1.0000    0     1.008  -14.780179    4.784464   -6.450717
  69 H     1.0000    0     1.008  -12.342562    5.607690   -4.791245
  70 H     1.0000    0     1.008    3.242472    5.591881   -7.291506
  71 H     1.0000    0     1.008   -5.375349    4.959295   -9.549219

--------------------------------
INTERNAL COORDINATES (ANGSTROEM)
--------------------------------
 C      0   0   0     0.000000000000     0.00000000     0.00000000
 C      1   0   0     1.474692521214     0.00000000     0.00000000
 C      1   2   0     1.389831397261   119.10818928     0.00000000
 C      3   1   2     1.393948146604   120.42126236   180.02100594
 H      3   1   2     1.082397653164   120.77174864   359.93175258
 C      4   3   1     1.392450623923   118.65760958   359.93193474
 C      6   4   3     1.396145384837   121.55015764     0.08055048
 H      6   4   3     1.084582946847   119.17920815   180.02367931
 C      7   6   4     1.390280116000   118.95141226   359.97140646
 C      7   6   4     1.463039373662   119.51298280   180.05768988
 H      9   7   6     1.080178903932   119.97392151   180.04269259
 C      4   3   1     1.461705146637   121.52508386   179.84570399
 O      2   1   3     1.213067006738   125.05488270   180.23790993
 C     12   4   3     2.346275171331   155.03205945     3.37806732
 C     14  12   4     1.550282619262   121.33252692    66.03596431
 N     12   4   3     1.267845466423   122.69846606     2.92930068
 H     14  12   4     1.099752254708    83.53294822   174.15496322
 C     14  12   4     1.540675240173   117.10573726   279.54567108
 N     15  14  12     1.459661043980   113.20230777   269.89072447
 H     15  14  12     1.091508256260   107.01701435   151.59726970
 C     15  14  12     1.537697946120   112.77439365    34.81107021
 H     18  14  12     1.092387878175   107.23236326    84.80723237
 C     18  14  12     1.522562414045   110.76129554   327.44913210
 C     18  14  12     1.522998179762   111.88910856   203.97359264
 H     21  15  14     1.094393012074   107.08459844   292.76441763
 C     21  15  14     1.523364647120   110.51792508   175.27125283
 C     21  15  14     1.523062340660   112.84008433    51.82726406
 H     24  18  14     1.088055610637   112.90253639   294.16741625
 H     24  18  14     1.088993347641   110.25882298   174.28200609
 H     24  18  14     1.091068804701   111.17751335    55.23189885
 H     23  18  14     1.089121580226   110.72794233   179.64793271
 H     23  18  14     1.086919283860   111.90178031    59.51970246
 H     23  18  14     1.091766950009   110.96634906   298.94303397
 H     27  21  15     1.089102357040   110.30770832   172.90616204
 H     27  21  15     1.091577700305   111.02104905    54.14039104
 H     27  21  15     1.087441788104   113.16691724   292.91778743
 H     26  21  15     1.089879339219   110.77085532   174.84022938
 H     26  21  15     1.085285866278   111.18180017    53.73400548
 H     26  21  15     1.092191677750   110.65022487   293.93539726
 C     10   7   6     3.417454568199   140.14491166   217.89178192
 C     40  10   7     1.550716764351    35.96900746   217.46011404
 N     40  10   7     1.458848458461   108.57857081   321.74915769
 H     40  10   7     1.091682158538   136.99615021   175.92032499
 C     40  10   7     1.537741827156    82.47741595    69.80011253
 N     10   7   6     1.266885933324   122.59053277   183.79650892
 H     41  40  10     1.099510614087   108.82845681   265.99739688
 C     41  40  10     1.540721485367   113.38680013   147.52415932
 H     44  40  10     1.094357335311   107.09607174   312.60437449
 C     44  40  10     1.523344217197   110.48766459   195.10576879
 C     44  40  10     1.523329005129   112.83770903    71.71118850
 H     47  41  40     1.092254139316   107.23992502   295.46621051
 C     47  41  40     1.522484154839   110.74535688   178.11154747
 C     47  41  40     1.523160508567   111.86142707    54.67719662
 H     50  44  40     1.087477319842   113.19163824   292.78263991
 H     50  44  40     1.089209994083   110.32809922   172.75037082
 H     50  44  40     1.091625627428   111.00698140    53.97935888
 H     49  44  40     1.085270813228   111.14453672    53.73333412
 H     49  44  40     1.092281262947   110.62412502   293.97074600
 H     49  44  40     1.089986545899   110.79176920   174.86219304
 H     53  47  41     1.089221053489   110.28206605   174.29741805
 H     53  47  41     1.091222250788   111.16412063    55.25244743
 H     53  47  41     1.088211290825   112.89402775   294.21522229
 H     52  47  41     1.086820844156   111.88944275    59.51698356
 H     52  47  41     1.091750016789   110.96897940   298.92188289
 H     52  47  41     1.089083000233   110.72198556   179.62477261
 H      2   1   3     1.110344138101   114.26773521     0.24832230
 H     42  40  10     1.013311159885   108.39169763     9.38021105
 H     42  40  10     1.010762071811   110.44448761   253.28719908
 H     19  15  14     1.010817100829   110.39084452   291.10534963
 H     19  15  14     1.013301350539   108.27217204    47.13353854
 H     10   7   6     1.099339597355   115.55688657     3.90251502
 H     12   4   3     1.099419725257   115.43440742   183.08146113

---------------------------
INTERNAL COORDINATES (A.U.)
---------------------------
 C      0   0   0     0.000000000000     0.00000000     0.00000000
 C      1   0   0     2.786764996836     0.00000000     0.00000000
 C      1   2   0     2.626400713148   119.10818928     0.00000000
 C      3   1   2     2.634180241969   120.42126236   180.02100594
 H      3   1   2     2.045435132479   120.77174864   359.93175258
 C      4   3   1     2.631350334222   118.65760958   359.93193474
 C      6   4   3     2.638332420480   121.55015764     0.08055048
 H      6   4   3     2.049564739063   119.17920815   180.02367931
 C      7   6   4     2.627248668677   118.95141226   359.97140646
 C      7   6   4     2.764743739364   119.51298280   180.05768988
 H      9   7   6     2.041242304071   119.97392151   180.04269259
 C      4   3   1     2.762222415687   121.52508386   179.84570399
 O      2   1   3     2.292364424830   125.05488270   180.23790993
 C     12   4   3     4.433817508634   155.03205945     3.37806732
 C     14  12   4     2.929609580583   121.33252692    66.03596431
 N     12   4   3     2.395880711672   122.69846606     2.92930068
 H     14  12   4     2.078230576561    83.53294822   174.15496322
 C     14  12   4     2.911454265241   117.10573726   279.54567108
 N     15  14  12     2.758359621476   113.20230777   269.89072447
 H     15  14  12     2.062651677245   107.01701435   151.59726970
 C     15  14  12     2.905827994860   112.77439365    34.81107021
 H     18  14  12     2.064313921766   107.23236326    84.80723237
 C     18  14  12     2.877225984348   110.76129554   327.44913210
 C     18  14  12     2.878049462211   111.88910856   203.97359264
 H     21  15  14     2.068103075697   107.08459844   292.76441763
 C     21  15  14     2.878741985154   110.51792508   175.27125283
 C     21  15  14     2.878170708736   112.84008433    51.82726406
 H     24  18  14     2.056127122581   112.90253639   294.16741625
 H     24  18  14     2.057899188704   110.25882298   174.28200609
 H     24  18  14     2.061821234151   111.17751335    55.23189885
 H     23  18  14     2.058141513170   110.72794233   179.64793271
 H     23  18  14     2.053979776173   111.90178031    59.51970246
 H     23  18  14     2.063140537584   110.96634906   298.94303397
 H     27  21  15     2.058105186613   110.30770832   172.90616204
 H     27  21  15     2.062782907472   111.02104905    54.14039104
 H     27  21  15     2.054967166097   113.16691724   292.91778743
 H     26  21  15     2.059573470143   110.77085532   174.84022938
 H     26  21  15     2.050893064281   111.18180017    53.73400548
 H     26  21  15     2.063943156696   110.65022487   293.93539726
 C     10   7   6     6.458053209015   140.14491166   217.89178192
 C     40  10   7     2.930429995905    35.96900746   217.46011404
 N     40  10   7     2.756824057384   108.57857081   321.74915769
 H     40  10   7     2.062980304924   136.99615021   175.92032499
 C     40  10   7     2.905910918001    82.47741595    69.80011253
 N     10   7   6     2.394067456900   122.59053277   183.79650892
 H     41  40  10     2.077773941964   108.82845681   265.99739688
 C     41  40  10     2.911541655992   113.38680013   147.52415932
 H     44  40  10     2.068035656386   107.09607174   312.60437449
 C     44  40  10     2.878703378196   110.48766459   195.10576879
 C     44  40  10     2.878674631552   112.83770903    71.71118850
 H     47  41  40     2.064061191950   107.23992502   295.46621051
 C     47  41  40     2.877078095881   110.74535688   178.11154747
 C     47  41  40     2.878356219195   111.86142707    54.67719662
 H     50  44  40     2.055034311352   113.19163824   292.78263991
 H     50  44  40     2.058308591146   110.32809922   172.75037082
 H     50  44  40     2.062873476608   111.00698140    53.97935888
 H     49  44  40     2.050864618139   111.14453672    53.73333412
 H     49  44  40     2.064112448184   110.62412502   293.97074600
 H     49  44  40     2.059776061407   110.79176920   174.86219304
 H     53  47  41     2.058329490395   110.28206605   174.29741805
 H     53  47  41     2.062111205231   111.16412063    55.25244743
 H     53  47  41     2.056421315501   112.89402775   294.21522229
 H     52  47  41     2.053793752093   111.88944275    59.51698356
 H     52  47  41     2.063108538434   110.96897940   298.92188289
 H     52  47  41     2.058068607549   110.72198556   179.62477261
 H      2   1   3     2.098246335416   114.26773521     0.24832230
 H     42  40  10     1.914880580629   108.39169763     9.38021105
 H     42  40  10     1.910063502277   110.44448761   253.28719908
 H     19  15  14     1.910167492052   110.39084452   291.10534963
 H     19  15  14     1.914862043652   108.27217204    47.13353854
 H     10   7   6     2.077450767175   115.55688657     3.90251502
 H     12   4   3     2.077602186968   115.43440742   183.08146113

---------------------
BASIS SET INFORMATION
---------------------
There are 4 groups of distinct atoms

 Group   1 Type C   : 18s5p2d1f contracted to 4s3p2d1f pattern {8811/311/11/1}
 Group   2 Type H   : 5s2p1d contracted to 3s2p1d pattern {311/11/1}
 Group   3 Type O   : 18s5p2d1f contracted to 4s3p2d1f pattern {8811/311/11/1}
 Group   4 Type N   : 18s5p2d1f contracted to 4s3p2d1f pattern {8811/311/11/1}

Atom   0C    basis set group =>   1
Atom   1C    basis set group =>   1
Atom   2C    basis set group =>   1
Atom   3C    basis set group =>   1
Atom   4H    basis set group =>   2
Atom   5C    basis set group =>   1
Atom   6C    basis set group =>   1
Atom   7H    basis set group =>   2
Atom   8C    basis set group =>   1
Atom   9C    basis set group =>   1
Atom  10H    basis set group =>   2
Atom  11C    basis set group =>   1
Atom  12O    basis set group =>   3
Atom  13C    basis set group =>   1
Atom  14C    basis set group =>   1
Atom  15N    basis set group =>   4
Atom  16H    basis set group =>   2
Atom  17C    basis set group =>   1
Atom  18N    basis set group =>   4
Atom  19H    basis set group =>   2
Atom  20C    basis set group =>   1
Atom  21H    basis set group =>   2
Atom  22C    basis set group =>   1
Atom  23C    basis set group =>   1
Atom  24H    basis set group =>   2
Atom  25C    basis set group =>   1
Atom  26C    basis set group =>   1
Atom  27H    basis set group =>   2
Atom  28H    basis set group =>   2
Atom  29H    basis set group =>   2
Atom  30H    basis set group =>   2
Atom  31H    basis set group =>   2
Atom  32H    basis set group =>   2
Atom  33H    basis set group =>   2
Atom  34H    basis set group =>   2
Atom  35H    basis set group =>   2
Atom  36H    basis set group =>   2
Atom  37H    basis set group =>   2
Atom  38H    basis set group =>   2
Atom  39C    basis set group =>   1
Atom  40C    basis set group =>   1
Atom  41N    basis set group =>   4
Atom  42H    basis set group =>   2
Atom  43C    basis set group =>   1
Atom  44N    basis set group =>   4
Atom  45H    basis set group =>   2
Atom  46C    basis set group =>   1
Atom  47H    basis set group =>   2
Atom  48C    basis set group =>   1
Atom  49C    basis set group =>   1
Atom  50H    basis set group =>   2
Atom  51C    basis set group =>   1
Atom  52C    basis set group =>   1
Atom  53H    basis set group =>   2
Atom  54H    basis set group =>   2
Atom  55H    basis set group =>   2
Atom  56H    basis set group =>   2
Atom  57H    basis set group =>   2
Atom  58H    basis set group =>   2
Atom  59H    basis set group =>   2
Atom  60H    basis set group =>   2
Atom  61H    basis set group =>   2
Atom  62H    basis set group =>   2
Atom  63H    basis set group =>   2
Atom  64H    basis set group =>   2
Atom  65H    basis set group =>   2
Atom  66H    basis set group =>   2
Atom  67H    basis set group =>   2
Atom  68H    basis set group =>   2
Atom  69H    basis set group =>   2
Atom  70H    basis set group =>   2
Atom  71H    basis set group =>   2

-------------------------
BASIS SET IN INPUT FORMAT
-------------------------

 # Basis set for element : H 
 NewGTO H 
 S 3 
   1      33.8700000000      0.0254948632
   2       5.0950000000      0.1903627659
   3       1.1590000000      0.8521620222
 S 1 
   1       0.3258000000      1.0000000000
 S 1 
   1       0.1027000000      1.0000000000
 P 1 
   1       1.4070000000      1.0000000000
 P 1 
   1       0.3880000000      1.0000000000
 D 1 
   1       1.0570000000      1.0000000000
  end;

 # Basis set for element : C 
 NewGTO C 
 S 8 
   1    8236.0000000000      0.0005424302
   2    1235.0000000000      0.0041964279
   3     280.8000000000      0.0215409141
   4      79.2700000000      0.0836149496
   5      25.5900000000      0.2398716189
   6       8.9970000000      0.4437518201
   7       3.3190000000      0.3535796965
   8       0.3643000000     -0.0091763661
 S 8 
   1    8236.0000000000     -0.0001963922
   2    1235.0000000000     -0.0015259503
   3     280.8000000000     -0.0078904490
   4      79.2700000000     -0.0315148705
   5      25.5900000000     -0.0969100083
   6       8.9970000000     -0.2205415263
   7       3.3190000000     -0.2960691129
   8       0.3643000000      1.0405034329
 S 1 
   1       0.9059000000      1.0000000000
 S 1 
   1       0.1285000000      1.0000000000
 P 3 
   1      18.7100000000      0.0394263872
   2       4.1330000000      0.2440889849
   3       1.2000000000      0.8154920089
 P 1 
   1       0.3827000000      1.0000000000
 P 1 
   1       0.1209000000      1.0000000000
 D 1 
   1       1.0970000000      1.0000000000
 D 1 
   1       0.3180000000      1.0000000000
 F 1 
   1       0.7610000000      1.0000000000
  end;

 # Basis set for element : N 
 NewGTO N 
 S 8 
   1   11420.0000000000      0.0005349809
   2    1712.0000000000      0.0041376631
   3     389.3000000000      0.0212509149
   4     110.0000000000      0.0825762988
   5      35.5700000000      0.2384132727
   6      12.5400000000      0.4434316661
   7       4.6440000000      0.3554319088
   8       0.5118000000     -0.0087029018
 S 8 
   1   11420.0000000000     -0.0001987770
   2    1712.0000000000     -0.0015470035
   3     389.3000000000     -0.0079925633
   4     110.0000000000     -0.0320255651
   5      35.5700000000     -0.0991102048
   6      12.5400000000     -0.2282927747
   7       4.6440000000     -0.2981827627
   8       0.5118000000      1.0370005182
 S 1 
   1       1.2930000000      1.0000000000
 S 1 
   1       0.1787000000      1.0000000000
 P 3 
   1      26.6300000000      0.0398072123
   2       5.9480000000      0.2490026605
   3       1.7420000000      0.8104797267
 P 1 
   1       0.5550000000      1.0000000000
 P 1 
   1       0.1725000000      1.0000000000
 D 1 
   1       1.6540000000      1.0000000000
 D 1 
   1       0.4690000000      1.0000000000
 F 1 
   1       1.0930000000      1.0000000000
  end;

 # Basis set for element : O 
 NewGTO O 
 S 8 
   1   15330.0000000000      0.0005201983
   2    2299.0000000000      0.0040233448
   3     522.4000000000      0.0207290833
   4     147.3000000000      0.0810823271
   5      47.5500000000      0.2362263521
   6      16.7600000000      0.4435182094
   7       6.2070000000      0.3586705887
   8       0.6882000000     -0.0083497972
 S 8 
   1   15330.0000000000     -0.0001972360
   2    2299.0000000000     -0.0015350107
   3     522.4000000000     -0.0079511839
   4     147.3000000000     -0.0321134529
   5      47.5500000000     -0.1002696430
   6      16.7600000000     -0.2340471118
   7       6.2070000000     -0.3014109278
   8       0.6882000000      1.0349196495
 S 1 
   1       1.7520000000      1.0000000000
 S 1 
   1       0.2384000000      1.0000000000
 P 3 
   1      34.4600000000      0.0411634896
   2       7.7490000000      0.2577628359
   3       2.2800000000      0.8024192744
 P 1 
   1       0.7156000000      1.0000000000
 P 1 
   1       0.2140000000      1.0000000000
 D 1 
   1       2.3140000000      1.0000000000
 D 1 
   1       0.6450000000      1.0000000000
 F 1 
   1       1.4280000000      1.0000000000
  end;

---------------------------------
AUXILIARY/C BASIS SET INFORMATION
---------------------------------
There are 4 groups of distinct atoms

 Group   1 Type C   : 8s6p5d3f1g contracted to 8s6p5d3f1g pattern {11111111/111111/11111/111/1}
 Group   2 Type H   : 4s3p2d1f contracted to 4s3p2d1f pattern {1111/111/11/1}
 Group   3 Type O   : 8s6p5d3f1g contracted to 8s6p5d3f1g pattern {11111111/111111/11111/111/1}
 Group   4 Type N   : 8s6p5d3f1g contracted to 8s6p5d3f1g pattern {11111111/111111/11111/111/1}

Atom   0C    basis set group =>   1
Atom   1C    basis set group =>   1
Atom   2C    basis set group =>   1
Atom   3C    basis set group =>   1
Atom   4H    basis set group =>   2
Atom   5C    basis set group =>   1
Atom   6C    basis set group =>   1
Atom   7H    basis set group =>   2
Atom   8C    basis set group =>   1
Atom   9C    basis set group =>   1
Atom  10H    basis set group =>   2
Atom  11C    basis set group =>   1
Atom  12O    basis set group =>   3
Atom  13C    basis set group =>   1
Atom  14C    basis set group =>   1
Atom  15N    basis set group =>   4
Atom  16H    basis set group =>   2
Atom  17C    basis set group =>   1
Atom  18N    basis set group =>   4
Atom  19H    basis set group =>   2
Atom  20C    basis set group =>   1
Atom  21H    basis set group =>   2
Atom  22C    basis set group =>   1
Atom  23C    basis set group =>   1
Atom  24H    basis set group =>   2
Atom  25C    basis set group =>   1
Atom  26C    basis set group =>   1
Atom  27H    basis set group =>   2
Atom  28H    basis set group =>   2
Atom  29H    basis set group =>   2
Atom  30H    basis set group =>   2
Atom  31H    basis set group =>   2
Atom  32H    basis set group =>   2
Atom  33H    basis set group =>   2
Atom  34H    basis set group =>   2
Atom  35H    basis set group =>   2
Atom  36H    basis set group =>   2
Atom  37H    basis set group =>   2
Atom  38H    basis set group =>   2
Atom  39C    basis set group =>   1
Atom  40C    basis set group =>   1
Atom  41N    basis set group =>   4
Atom  42H    basis set group =>   2
Atom  43C    basis set group =>   1
Atom  44N    basis set group =>   4
Atom  45H    basis set group =>   2
Atom  46C    basis set group =>   1
Atom  47H    basis set group =>   2
Atom  48C    basis set group =>   1
Atom  49C    basis set group =>   1
Atom  50H    basis set group =>   2
Atom  51C    basis set group =>   1
Atom  52C    basis set group =>   1
Atom  53H    basis set group =>   2
Atom  54H    basis set group =>   2
Atom  55H    basis set group =>   2
Atom  56H    basis set group =>   2
Atom  57H    basis set group =>   2
Atom  58H    basis set group =>   2
Atom  59H    basis set group =>   2
Atom  60H    basis set group =>   2
Atom  61H    basis set group =>   2
Atom  62H    basis set group =>   2
Atom  63H    basis set group =>   2
Atom  64H    basis set group =>   2
Atom  65H    basis set group =>   2
Atom  66H    basis set group =>   2
Atom  67H    basis set group =>   2
Atom  68H    basis set group =>   2
Atom  69H    basis set group =>   2
Atom  70H    basis set group =>   2
Atom  71H    basis set group =>   2

-------------------------------------
AUXILIARY/C BASIS SET IN INPUT FORMAT
-------------------------------------

 # Auxiliary/C basis set for element : H 
 NewAuxCGTO H 
 S 1 
   1       8.5128275910      1.0000000000
 S 1 
   1       1.8730891166      1.0000000000
 S 1 
   1       0.5261842694      1.0000000000
 S 1 
   1       0.2897398994      1.0000000000
 P 1 
   1       2.3725491635      1.0000000000
 P 1 
   1       1.1804084468      1.0000000000
 P 1 
   1       0.6038220424      1.0000000000
 D 1 
   1       1.8096373189      1.0000000000
 D 1 
   1       1.1439726055      1.0000000000
 F 1 
   1       1.8063060576      1.0000000000
  end;

 # Auxiliary/C basis set for element : C 
 NewAuxCGTO C 
 S 1 
   1     280.5566118800      1.0000000000
 S 1 
   1      60.2302471910      1.0000000000
 S 1 
   1      22.1166508240      1.0000000000
 S 1 
   1       6.8620932896      1.0000000000
 S 1 
   1       1.5622549539      1.0000000000
 S 1 
   1       0.9124504549      1.0000000000
 S 1 
   1       0.5027491704      1.0000000000
 S 1 
   1       0.2158234875      1.0000000000
 P 1 
   1      24.2318651760      1.0000000000
 P 1 
   1       6.4764514185      1.0000000000
 P 1 
   1       2.1290884677      1.0000000000
 P 1 
   1       1.0375639746      1.0000000000
 P 1 
   1       0.5494127505      1.0000000000
 P 1 
   1       0.2815265223      1.0000000000
 D 1 
   1       9.7189810815      1.0000000000
 D 1 
   1       3.0351475003      1.0000000000
 D 1 
   1       1.4677737562      1.0000000000
 D 1 
   1       0.5737082791      1.0000000000
 D 1 
   1       0.2905558967      1.0000000000
 F 1 
   1       2.2756201303      1.0000000000
 F 1 
   1       1.1968898852      1.0000000000
 F 1 
   1       0.5415748722      1.0000000000
 G 1 
   1       1.2166101638      1.0000000000
  end;

 # Auxiliary/C basis set for element : N 
 NewAuxCGTO N 
 S 1 
   1     287.5092694700      1.0000000000
 S 1 
   1      64.2760308980      1.0000000000
 S 1 
   1      21.6819240160      1.0000000000
 S 1 
   1       7.9068743193      1.0000000000
 S 1 
   1       2.4319673913      1.0000000000
 S 1 
   1       1.2226681474      1.0000000000
 S 1 
   1       0.7667482736      1.0000000000
 S 1 
   1       0.3115884699      1.0000000000
 P 1 
   1      34.9650273710      1.0000000000
 P 1 
   1      10.3238966480      1.0000000000
 P 1 
   1       2.8981582643      1.0000000000
 P 1 
   1       1.4077404555      1.0000000000
 P 1 
   1       0.8508338654      1.0000000000
 P 1 
   1       0.3735327414      1.0000000000
 D 1 
   1      13.9086370890      1.0000000000
 D 1 
   1       4.5847232531      1.0000000000
 D 1 
   1       2.2101848651      1.0000000000
 D 1 
   1       0.8376830121      1.0000000000
 D 1 
   1       0.4194837561      1.0000000000
 F 1 
   1       3.4730665788      1.0000000000
 F 1 
   1       1.5589463548      1.0000000000
 F 1 
   1       0.8467763824      1.0000000000
 G 1 
   1       1.7764066281      1.0000000000
  end;

 # Auxiliary/C basis set for element : O 
 NewAuxCGTO O 
 S 1 
   1     366.5453150300      1.0000000000
 S 1 
   1      76.6933148580      1.0000000000
 S 1 
   1      24.5738350910      1.0000000000
 S 1 
   1       8.4165585072      1.0000000000
 S 1 
   1       3.0202080356      1.0000000000
 S 1 
   1       1.3331563617      1.0000000000
 S 1 
   1       0.8125065873      1.0000000000
 S 1 
   1       0.3650525366      1.0000000000
 P 1 
   1      52.8543864230      1.0000000000
 P 1 
   1      15.0217958240      1.0000000000
 P 1 
   1       3.9137719482      1.0000000000
 P 1 
   1       2.1678840611      1.0000000000
 P 1 
   1       0.9741924398      1.0000000000
 P 1 
   1       0.5184561541      1.0000000000
 D 1 
   1      15.9077331320      1.0000000000
 D 1 
   1       5.3799329215      1.0000000000
 D 1 
   1       2.9552623921      1.0000000000
 D 1 
   1       1.1624458997      1.0000000000
 D 1 
   1       0.5035339942      1.0000000000
 F 1 
   1       4.6873846701      1.0000000000
 F 1 
   1       2.1512789489      1.0000000000
 F 1 
   1       1.0894068169      1.0000000000
 G 1 
   1       2.3270964878      1.0000000000
  end;



           ************************************************************
           *        Program running with 32 parallel MPI-processes    *
           *              working on a common directory               *
           ************************************************************
------------------------------------------------------------------------------
                           ORCA GTO INTEGRAL CALCULATION
------------------------------------------------------------------------------

                         BASIS SET STATISTICS AND STARTUP INFO

 # of primitive gaussian shells          ... 1116
 # of primitive gaussian functions       ... 2172
 # of contracted shells                  ...  552
 # of contracted basis functions         ... 1488
 Highest angular momentum                ...    3
 Maximum contraction depth               ...    8
 Integral package used                   ... LIBINT
 Integral threshhold            Thresh   ...  2.500e-11
 Primitive cut-off              TCut     ...  2.500e-12


------------------------------ INTEGRAL EVALUATION ----------------------------


 * One electron integrals 
 Pre-screening matrix                    ... done
 Shell pair data                         ... done (   0.028 sec)



           ************************************************************
           *        Program running with 32 parallel MPI-processes    *
           *              working on a common directory               *
           ************************************************************
-------------------------------------------------------------------------------
                                 ORCA SCF
-------------------------------------------------------------------------------

------------
SCF SETTINGS
------------
Hamiltonian:
 Ab initio Hamiltonian  Method          .... Hartree-Fock(GTOs)


General Settings:
 Integral files         IntName         .... _o_1_alde1_2_ami1_2_opt_MP2
 Hartree-Fock type      HFTyp           .... RHF
 Total Charge           Charge          ....    0
 Multiplicity           Mult            ....    1
 Number of Electrons    NEL             ....  228
 Basis Dimension        Dim             .... 1488
 Nuclear Repulsion      ENuc            ....   2919.9397114545 Eh

Convergence Acceleration:
 DIIS                   CNVDIIS         .... on
   Start iteration      DIISMaxIt       ....     0
   Startup error        DIISStart       ....  0.200000
   # of expansion vecs  DIISMaxEq       ....     5
   Bias factor          DIISBfac        ....   1.050
   Max. coefficient     DIISMaxC        ....  10.000
 Newton-Raphson         CNVNR           .... off
 SOSCF                  CNVSOSCF        .... on
   Start iteration      SOSCFMaxIt      ....   150
   Startup grad/error   SOSCFStart      ....  0.001000
 Level Shifting         CNVShift        .... on
   Level shift para.    LevelShift      ....    0.2500
   Turn off err/grad.   ShiftErr        ....    0.0000
 Zerner damping         CNVZerner       .... off
 Static damping         CNVDamp         .... on
   Fraction old density DampFac         ....    0.8500
   Max. Damping (<1)    DampMax         ....    0.9800
   Min. Damping (>=0)   DampMin         ....    0.0000
   Turn off err/grad.   DampErr         ....    0.0300
 Fernandez-Rico         CNVRico         .... off

SCF Procedure:
 Maximum # iterations   MaxIter         ....   125
 SCF integral mode      SCFMode         .... Direct
   Integral package                     .... LIBINT
 Reset frequency        DirectResetFreq ....    20
 Integral Threshold     Thresh          ....  2.500e-11 Eh
 Primitive CutOff       TCut            ....  2.500e-12 Eh

Convergence Tolerance:
 Convergence Check Mode ConvCheckMode   .... Total+1el-Energy
 Convergence forced     ConvForced      .... 1
 Energy Change          TolE            ....  1.000e-08 Eh
 1-El. energy change                    ....  1.000e-05 Eh
 Orbital Gradient       TolG            ....  1.000e-05
 Orbital Rotation angle TolX            ....  1.000e-05
 DIIS Error             TolErr          ....  5.000e-07


Diagonalization of the overlap matrix:
Smallest eigenvalue                        ... 2.427e-05
Time for diagonalization                   ...    2.411 sec
Threshold for overlap eigenvalues          ... 1.000e-08
Number of eigenvalues below threshold      ... 0
Time for construction of square roots      ...    0.289 sec
Total time needed                          ...    2.707 sec

-------------------
DFT GRID GENERATION
-------------------

General Integration Accuracy     IntAcc      ...  5.340
Radial Grid Type                 RadialGrid  ... Gauss-Chebyshev
Angular Grid (max. acc.)         AngularGrid ... Lebedev-590
Angular grid pruning method      GridPruning ... 3 (G Style)
Weight generation scheme         WeightScheme... Becke
Basis function cutoff            BFCut       ...    1.0000e-11
Integration weight cutoff        WCut        ...    1.0000e-14
Grids for H and He will be reduced by one unit

# of grid points (after initial pruning)     ... 957960 (   0.0 sec)
# of grid points (after weights+screening)   ... 804951 (   1.1 sec)
nearest neighbour list constructed           ...    0.0 sec
Grid point re-assignment to atoms done       ...    0.1 sec
Grid point division into batches done        ...    7.8 sec
Reduced shell lists constructed in    8.3 sec

Total number of grid points                  ...   804951
Total number of batches                      ...    12617
Average number of points per batch           ...       63
Average number of grid points per atom       ...    11180
Average number of shells per batch           ...   161.95 (29.34%)
Average number of basis functions per batch  ...   375.26 (25.22%)
Average number of large shells per batch     ...    85.18 (52.59%)
Average number of large basis fcns per batch ...   222.08 (59.18%)
Maximum spatial batch extension              ...   4.74, 14.12,  8.27 au
Average spatial batch extension              ...   0.03,  0.04,  0.03 au

Time for grid setup =    9.724 sec

------------------------------
INITIAL GUESS: MODEL POTENTIAL
------------------------------
Loading Hartree-Fock densities                     ... done
Calculating cut-offs                               ... done
Setting up the integral package                    ... done
Initializing the effective Hamiltonian             ... done
Starting the Coulomb interaction                   ... done (   0.3 sec)
Reading the grid                                   ... done
Mapping shells                                     ... done
Starting the XC term evaluation                    ... done (   0.5 sec)
Transforming the Hamiltonian                       ... done (   0.2 sec)
Diagonalizing the Hamiltonian                      ... done (   0.3 sec)
Back transforming the eigenvectors                 ... done (   0.1 sec)
Now organizing SCF variables                       ... done
                      ------------------
                      INITIAL GUESS DONE (  11.3 sec)
                      ------------------
--------------
SCF ITERATIONS
--------------
ITER       Energy         Delta-E        Max-DP      RMS-DP      [F,P]     Damp
               ***  Starting incremental Fock matrix formation  ***
  0  -1262.6438837754   0.000000000000 0.05080733  0.00018899  0.3174586 0.8500
  1  -1262.9302236470  -0.286339871554 0.05966497  0.00020038  0.2562502 0.8500
                               ***Turning on DIIS***
  2  -1263.1574626492  -0.227239002205 0.04831466  0.00016685  0.2002601 0.8500
  3  -1268.1185935643  -4.961130915063 0.02759325  0.00011464  0.1557838 0.8500
  4  -1270.0175429618  -1.898949397517 0.01463908  0.00008312  0.1268428 0.8500
  5  -1269.9115357239   0.106007237930 0.00837948  0.00006667  0.1078522 0.8500
  6  -1269.3266748464   0.584860877500 0.00606499  0.00005610  0.0924803 0.8500
  7  -1268.4255111109   0.901163735469 0.00518749  0.00004834  0.0793332 0.8500
  8  -1267.6972861653   0.728224945631 0.00442433  0.00004165  0.0675528 0.8500
  9  -1267.1330489086   0.564237256626 0.00376640  0.00003574  0.0573792 0.8500
 10  -1266.6782888427   0.454760065883 0.00320413  0.00003061  0.0487939 0.8500
 11  -1266.2993564549   0.378932387820 0.00272563  0.00002620  0.0415444 0.8500
 12  -1265.9781811659   0.321175289026 0.00231902  0.00002244  0.0353776 0.8500
 13  -1265.7060180984   0.272163067515 0.00197331  0.00001922  0.0301057 0.8500
 14  -1265.4759521541   0.230065944309 0.01119464  0.00010975  0.0256075 0.0000
 15  -1264.2086260030   1.267326151096 0.00296695  0.00000777  0.0010572 0.0000
                      *** Initiating the SOSCF procedure ***
                           *** Shutting down DIIS ***
                      *** Re-Reading the Fockian *** 
                      *** Removing any level shift *** 
ITER      Energy       Delta-E        Grad      Rot      Max-DP    RMS-DP
 16  -1264.22210278  -0.0134767780  0.000227  0.000227  0.001711  0.000004
               *** Restarting incremental Fock matrix formation ***
 17  -1264.21592768   0.0061751053  0.000103  0.000268  0.001432  0.000003
 18  -1264.21592925  -0.0000015785  0.000072  0.000410  0.001367  0.000003
 19  -1264.21592984  -0.0000005809  0.000039  0.000053  0.000053  0.000001
 20  -1264.21592990  -0.0000000683  0.000016  0.000050  0.000056  0.000000
 21  -1264.21592992  -0.0000000143  0.000009  0.000060  0.000021  0.000000
 22  -1264.21592990   0.0000000197  0.000003  0.000011  0.000013  0.000000
                  ***Gradient check signals convergence***
              ***Rediagonalizing the Fockian in SOSCF/NRSCF***

               *****************************************************
               *                     SUCCESS                       *
               *           SCF CONVERGED AFTER  23 CYCLES          *
               *****************************************************


----------------
TOTAL SCF ENERGY
----------------

Total Energy       :        -1264.21592989 Eh          -34401.06437 eV

Components:
Nuclear Repulsion  :         2919.93971145 Eh           79455.59899 eV
Electronic Energy  :        -4184.15564135 Eh         -113856.66336 eV
One Electron Energy:        -7524.66521773 Eh         -204756.55020 eV
Two Electron Energy:         3340.50957638 Eh           90899.88683 eV

Virial components:
Potential Energy   :        -2527.30572429 Eh          -68771.48503 eV
Kinetic Energy     :         1263.08979440 Eh           34370.42066 eV
Virial Ratio       :            2.00089157


---------------
SCF CONVERGENCE
---------------

  Last Energy change         ...    3.6171e-09  Tolerance :   1.0000e-08
  Last MAX-Density change    ...    4.3270e-06  Tolerance :   1.0000e-07
  Last RMS-Density change    ...    2.3180e-08  Tolerance :   5.0000e-09
  Last Orbital Gradient      ...    1.0795e-06  Tolerance :   1.0000e-05
  Last Orbital Rotation      ...    2.7097e-06  Tolerance :   1.0000e-05

             **** THE GBW FILE WAS UPDATED (_o_1_alde1_2_ami1_2_opt_MP2.gbw) ****
             **** DENSITY FILE WAS UPDATED (_o_1_alde1_2_ami1_2_opt_MP2.scfp) ****
             **** ENERGY FILE WAS UPDATED (_o_1_alde1_2_ami1_2_opt_MP2.en.tmp) ****
             **** THE GBW FILE WAS UPDATED (_o_1_alde1_2_ami1_2_opt_MP2.gbw) ****
             **** DENSITY FILE WAS UPDATED (_o_1_alde1_2_ami1_2_opt_MP2.scfp) ****
----------------
ORBITAL ENERGIES
----------------

  NO   OCC          E(Eh)            E(eV) 
   0   2.0000     -20.557656      -559.4023 
   1   2.0000     -15.566219      -423.5784 
   2   2.0000     -15.562909      -423.4883 
   3   2.0000     -15.530809      -422.6148 
   4   2.0000     -15.525479      -422.4698 
   5   2.0000     -11.337538      -308.5101 
   6   2.0000     -11.294835      -307.3481 
   7   2.0000     -11.291030      -307.2445 
   8   2.0000     -11.271800      -306.7213 
   9   2.0000     -11.267528      -306.6050 
  10   2.0000     -11.262769      -306.4755 
  11   2.0000     -11.262319      -306.4633 
  12   2.0000     -11.261005      -306.4275 
  13   2.0000     -11.258043      -306.3469 
  14   2.0000     -11.257035      -306.3195 
  15   2.0000     -11.253253      -306.2166 
  16   2.0000     -11.249922      -306.1260 
  17   2.0000     -11.246005      -306.0194 
  18   2.0000     -11.232182      -305.6432 
  19   2.0000     -11.228340      -305.5387 
  20   2.0000     -11.218995      -305.2844 
  21   2.0000     -11.218901      -305.2818 
  22   2.0000     -11.215660      -305.1936 
  23   2.0000     -11.215450      -305.1879 
  24   2.0000     -11.214749      -305.1688 
  25   2.0000     -11.211701      -305.0859 
  26   2.0000     -11.211275      -305.0743 
  27   2.0000     -11.209044      -305.0136 
  28   2.0000     -11.196761      -304.6793 
  29   2.0000     -11.193476      -304.5900 
  30   2.0000      -1.392328       -37.8872 
  31   2.0000      -1.259328       -34.2680 
  32   2.0000      -1.255297       -34.1584 
  33   2.0000      -1.194539       -32.5050 
  34   2.0000      -1.183158       -32.1954 
  35   2.0000      -1.174853       -31.9694 
  36   2.0000      -1.095116       -29.7996 
  37   2.0000      -1.088888       -29.6301 
  38   2.0000      -1.069402       -29.0999 
  39   2.0000      -1.066133       -29.0109 
  40   2.0000      -1.062617       -28.9153 
  41   2.0000      -1.055997       -28.7351 
  42   2.0000      -0.971199       -26.4277 
  43   2.0000      -0.964362       -26.2416 
  44   2.0000      -0.939881       -25.5755 
  45   2.0000      -0.936491       -25.4832 
  46   2.0000      -0.925422       -25.1820 
  47   2.0000      -0.922412       -25.1001 
  48   2.0000      -0.909625       -24.7521 
  49   2.0000      -0.899013       -24.4634 
  50   2.0000      -0.878271       -23.8990 
  51   2.0000      -0.857956       -23.3462 
  52   2.0000      -0.835176       -22.7263 
  53   2.0000      -0.790301       -21.5052 
  54   2.0000      -0.780537       -21.2395 
  55   2.0000      -0.777006       -21.1434 
  56   2.0000      -0.772118       -21.0104 
  57   2.0000      -0.753897       -20.5146 
  58   2.0000      -0.750278       -20.4161 
  59   2.0000      -0.719246       -19.5717 
  60   2.0000      -0.698734       -19.0135 
  61   2.0000      -0.683442       -18.5974 
  62   2.0000      -0.673706       -18.3325 
  63   2.0000      -0.661751       -18.0072 
  64   2.0000      -0.651722       -17.7343 
  65   2.0000      -0.650893       -17.7117 
  66   2.0000      -0.646337       -17.5877 
  67   2.0000      -0.634765       -17.2728 
  68   2.0000      -0.631156       -17.1746 
  69   2.0000      -0.628062       -17.0904 
  70   2.0000      -0.621604       -16.9147 
  71   2.0000      -0.618308       -16.8250 
  72   2.0000      -0.612892       -16.6776 
  73   2.0000      -0.604012       -16.4360 
  74   2.0000      -0.599642       -16.3171 
  75   2.0000      -0.594269       -16.1709 
  76   2.0000      -0.590797       -16.0764 
  77   2.0000      -0.569383       -15.4937 
  78   2.0000      -0.567937       -15.4544 
  79   2.0000      -0.563741       -15.3402 
  80   2.0000      -0.555955       -15.1283 
  81   2.0000      -0.552901       -15.0452 
  82   2.0000      -0.543730       -14.7957 
  83   2.0000      -0.541907       -14.7460 
  84   2.0000      -0.539176       -14.6717 
  85   2.0000      -0.538304       -14.6480 
  86   2.0000      -0.530857       -14.4454 
  87   2.0000      -0.530222       -14.4281 
  88   2.0000      -0.527767       -14.3613 
  89   2.0000      -0.526891       -14.3374 
  90   2.0000      -0.523616       -14.2483 
  91   2.0000      -0.518164       -14.1000 
  92   2.0000      -0.512860       -13.9556 
  93   2.0000      -0.508107       -13.8263 
  94   2.0000      -0.498793       -13.5729 
  95   2.0000      -0.485305       -13.2058 
  96   2.0000      -0.481623       -13.1056 
  97   2.0000      -0.478754       -13.0276 
  98   2.0000      -0.474680       -12.9167 
  99   2.0000      -0.472063       -12.8455 
 100   2.0000      -0.469185       -12.7672 
 101   2.0000      -0.466385       -12.6910 
 102   2.0000      -0.460334       -12.5263 
 103   2.0000      -0.452750       -12.3200 
 104   2.0000      -0.446882       -12.1603 
 105   2.0000      -0.439759       -11.9665 
 106   2.0000      -0.433793       -11.8041 
 107   2.0000      -0.425214       -11.5707 
 108   2.0000      -0.417450       -11.3594 
 109   2.0000      -0.413345       -11.2477 
 110   2.0000      -0.384211       -10.4549 
 111   2.0000      -0.379700       -10.3322 
 112   2.0000      -0.353601        -9.6220 
 113   2.0000      -0.332048        -9.0355 
 114   0.0000       0.052882         1.4390 
 115   0.0000       0.061866         1.6835 
 116   0.0000       0.121172         3.2972 
 117   0.0000       0.122012         3.3201 
 118   0.0000       0.133000         3.6191 
 119   0.0000       0.134084         3.6486 
 120   0.0000       0.139642         3.7998 
 121   0.0000       0.145932         3.9710 
 122   0.0000       0.153249         4.1701 
 123   0.0000       0.157497         4.2857 
 124   0.0000       0.158430         4.3111 
 125   0.0000       0.168406         4.5826 
 126   0.0000       0.171452         4.6654 
 127   0.0000       0.177481         4.8295 
 128   0.0000       0.186489         5.0746 
 129   0.0000       0.187692         5.1073 
 130   0.0000       0.189239         5.1494 
 131   0.0000       0.191228         5.2036 
 132   0.0000       0.193562         5.2671 
 133   0.0000       0.196276         5.3410 
 134   0.0000       0.198521         5.4020 
 135   0.0000       0.204319         5.5598 
 136   0.0000       0.207580         5.6485 
 137   0.0000       0.209677         5.7056 
 138   0.0000       0.211115         5.7447 
 139   0.0000       0.219459         5.9718 
 140   0.0000       0.222344         6.0503 
 141   0.0000       0.227075         6.1790 
 142   0.0000       0.229463         6.2440 
 143   0.0000       0.231659         6.3038 
 144   0.0000       0.236824         6.4443 
 145   0.0000       0.241772         6.5789 
 146   0.0000       0.246483         6.7071 
 147   0.0000       0.250095         6.8054 
 148   0.0000       0.253290         6.8924 
 149   0.0000       0.261090         7.1046 
 150   0.0000       0.265401         7.2219 
 151   0.0000       0.268659         7.3106 
 152   0.0000       0.270496         7.3606 
 153   0.0000       0.271795         7.3959 
 154   0.0000       0.273638         7.4461 
 155   0.0000       0.277062         7.5392 
 156   0.0000       0.280093         7.6217 
 157   0.0000       0.286835         7.8052 
 158   0.0000       0.291382         7.9289 
 159   0.0000       0.294257         8.0071 
 160   0.0000       0.300424         8.1750 
 161   0.0000       0.302054         8.2193 
 162   0.0000       0.304947         8.2980 
 163   0.0000       0.311501         8.4764 
 164   0.0000       0.318397         8.6640 
 165   0.0000       0.323337         8.7984 
 166   0.0000       0.328447         8.9375 
 167   0.0000       0.331018         9.0075 
 168   0.0000       0.339195         9.2300 
 169   0.0000       0.346267         9.4224 
 170   0.0000       0.348078         9.4717 
 171   0.0000       0.353228         9.6118 
 172   0.0000       0.357151         9.7186 
 173   0.0000       0.359066         9.7707 
 174   0.0000       0.364876         9.9288 
 175   0.0000       0.365841         9.9551 
 176   0.0000       0.370798        10.0899 
 177   0.0000       0.372623        10.1396 
 178   0.0000       0.380423        10.3518 
 179   0.0000       0.381646        10.3851 
 180   0.0000       0.393477        10.7071 
 181   0.0000       0.396256        10.7827 
 182   0.0000       0.403659        10.9841 
 183   0.0000       0.405733        11.0406 
 184   0.0000       0.406689        11.0666 
 185   0.0000       0.414775        11.2866 
 186   0.0000       0.416854        11.3432 
 187   0.0000       0.420999        11.4560 
 188   0.0000       0.423743        11.5306 
 189   0.0000       0.427593        11.6354 
 190   0.0000       0.432900        11.7798 
 191   0.0000       0.443076        12.0567 
 192   0.0000       0.443864        12.0781 
 193   0.0000       0.445513        12.1230 
 194   0.0000       0.447945        12.1892 
 195   0.0000       0.453600        12.3431 
 196   0.0000       0.454581        12.3698 
 197   0.0000       0.456288        12.4162 
 198   0.0000       0.461716        12.5639 
 199   0.0000       0.463216        12.6047 
 200   0.0000       0.468227        12.7411 
 201   0.0000       0.469737        12.7822 
 202   0.0000       0.476148        12.9566 
 203   0.0000       0.482930        13.1412 
 204   0.0000       0.487051        13.2533 
 205   0.0000       0.489736        13.3264 
 206   0.0000       0.492905        13.4126 
 207   0.0000       0.495748        13.4900 
 208   0.0000       0.497842        13.5470 
 209   0.0000       0.500974        13.6322 
 210   0.0000       0.501456        13.6453 
 211   0.0000       0.503017        13.6878 
 212   0.0000       0.508109        13.8263 
 213   0.0000       0.510954        13.9038 
 214   0.0000       0.514199        13.9921 
 215   0.0000       0.524456        14.2712 
 216   0.0000       0.528588        14.3836 
 217   0.0000       0.536074        14.5873 
 218   0.0000       0.538577        14.6554 
 219   0.0000       0.542545        14.7634 
 220   0.0000       0.544863        14.8265 
 221   0.0000       0.548945        14.9375 
 222   0.0000       0.552770        15.0416 
 223   0.0000       0.557321        15.1655 
 224   0.0000       0.561785        15.2869 
 225   0.0000       0.562721        15.3124 
 226   0.0000       0.564562        15.3625 
 227   0.0000       0.570102        15.5133 
 228   0.0000       0.573354        15.6018 
 229   0.0000       0.575043        15.6477 
 230   0.0000       0.576699        15.6928 
 231   0.0000       0.579642        15.7729 
 232   0.0000       0.585463        15.9313 
 233   0.0000       0.586978        15.9725 
 234   0.0000       0.591351        16.0915 
 235   0.0000       0.591797        16.1036 
 236   0.0000       0.594960        16.1897 
 237   0.0000       0.595809        16.2128 
 238   0.0000       0.606810        16.5121 
 239   0.0000       0.608026        16.5452 
 240   0.0000       0.610113        16.6020 
 241   0.0000       0.614194        16.7131 
 242   0.0000       0.618393        16.8273 
 243   0.0000       0.618967        16.8430 
 244   0.0000       0.624817        17.0021 
 245   0.0000       0.626292        17.0423 
 246   0.0000       0.626751        17.0548 
 247   0.0000       0.629632        17.1332 
 248   0.0000       0.632101        17.2003 
 249   0.0000       0.635537        17.2938 
 250   0.0000       0.639210        17.3938 
 251   0.0000       0.640105        17.4181 
 252   0.0000       0.641795        17.4641 
 253   0.0000       0.643770        17.5179 
 254   0.0000       0.646535        17.5931 
 255   0.0000       0.649249        17.6670 
 256   0.0000       0.650105        17.6903 
 257   0.0000       0.653271        17.7764 
 258   0.0000       0.655057        17.8250 
 259   0.0000       0.655466        17.8361 
 260   0.0000       0.658116        17.9082 
 261   0.0000       0.659625        17.9493 
 262   0.0000       0.662167        18.0185 
 263   0.0000       0.663349        18.0506 
 264   0.0000       0.666695        18.1417 
 265   0.0000       0.670934        18.2570 
 266   0.0000       0.674228        18.3467 
 267   0.0000       0.674836        18.3632 
 268   0.0000       0.678419        18.4607 
 269   0.0000       0.679536        18.4911 
 270   0.0000       0.681730        18.5508 
 271   0.0000       0.686730        18.6869 
 272   0.0000       0.690989        18.8028 
 273   0.0000       0.692277        18.8378 
 274   0.0000       0.697887        18.9905 
 275   0.0000       0.699039        19.0218 
 276   0.0000       0.700019        19.0485 
 277   0.0000       0.705459        19.1965 
 278   0.0000       0.708234        19.2720 
 279   0.0000       0.710081        19.3223 
 280   0.0000       0.714989        19.4558 
 281   0.0000       0.716117        19.4865 
 282   0.0000       0.717010        19.5108 
 283   0.0000       0.721057        19.6210 
 284   0.0000       0.724998        19.7282 
 285   0.0000       0.728673        19.8282 
 286   0.0000       0.733766        19.9668 
 287   0.0000       0.737928        20.0801 
 288   0.0000       0.742033        20.1917 
 289   0.0000       0.751472        20.4486 
 290   0.0000       0.752482        20.4761 
 291   0.0000       0.754267        20.5246 
 292   0.0000       0.761371        20.7180 
 293   0.0000       0.763605        20.7787 
 294   0.0000       0.776033        21.1169 
 295   0.0000       0.776933        21.1414 
 296   0.0000       0.777085        21.1455 
 297   0.0000       0.783554        21.3216 
 298   0.0000       0.784623        21.3507 
 299   0.0000       0.788726        21.4623 
 300   0.0000       0.790684        21.5156 
 301   0.0000       0.793365        21.5886 
 302   0.0000       0.793942        21.6043 
 303   0.0000       0.798301        21.7229 
 304   0.0000       0.799942        21.7675 
 305   0.0000       0.805887        21.9293 
 306   0.0000       0.808174        21.9915 
 307   0.0000       0.812710        22.1150 
 308   0.0000       0.819614        22.3028 
 309   0.0000       0.820890        22.3376 
 310   0.0000       0.827237        22.5103 
 311   0.0000       0.833014        22.6675 
 312   0.0000       0.836294        22.7567 
 313   0.0000       0.839892        22.8546 
 314   0.0000       0.844677        22.9848 
 315   0.0000       0.850672        23.1480 
 316   0.0000       0.852034        23.1850 
 317   0.0000       0.856435        23.3048 
 318   0.0000       0.857994        23.3472 
 319   0.0000       0.864009        23.5109 
 320   0.0000       0.867137        23.5960 
 321   0.0000       0.878333        23.9007 
 322   0.0000       0.882012        24.0008 
 323   0.0000       0.887432        24.1483 
 324   0.0000       0.889249        24.1977 
 325   0.0000       0.895406        24.3652 
 326   0.0000       0.904657        24.6170 
 327   0.0000       0.908256        24.7149 
 328   0.0000       0.914380        24.8815 
 329   0.0000       0.917240        24.9594 
 330   0.0000       0.924714        25.1627 
 331   0.0000       0.927143        25.2288 
 332   0.0000       0.932375        25.3712 
 333   0.0000       0.938981        25.5510 
 334   0.0000       0.944561        25.7028 
 335   0.0000       0.945168        25.7193 
 336   0.0000       0.947470        25.7820 
 337   0.0000       0.952820        25.9275 
 338   0.0000       0.963345        26.2140 
 339   0.0000       0.965708        26.2782 
 340   0.0000       0.975008        26.5313 
 341   0.0000       0.978306        26.6210 
 342   0.0000       0.979123        26.6433 
 343   0.0000       0.983184        26.7538 
 344   0.0000       0.988250        26.8917 
 345   0.0000       0.989653        26.9298 
 346   0.0000       0.994955        27.0741 
 347   0.0000       0.997632        27.1469 
 348   0.0000       1.001799        27.2603 
 349   0.0000       1.013289        27.5730 
 350   0.0000       1.015223        27.6256 
 351   0.0000       1.018284        27.7089 
 352   0.0000       1.022901        27.8346 
 353   0.0000       1.026218        27.9248 
 354   0.0000       1.031421        28.0664 
 355   0.0000       1.035342        28.1731 
 356   0.0000       1.042229        28.3605 
 357   0.0000       1.050234        28.5783 
 358   0.0000       1.050959        28.5980 
 359   0.0000       1.054534        28.6953 
 360   0.0000       1.060213        28.8499 
 361   0.0000       1.066563        29.0226 
 362   0.0000       1.067058        29.0361 
 363   0.0000       1.071215        29.1492 
 364   0.0000       1.074722        29.2447 
 365   0.0000       1.083022        29.4705 
 366   0.0000       1.088266        29.6132 
 367   0.0000       1.095805        29.8184 
 368   0.0000       1.097432        29.8627 
 369   0.0000       1.101165        29.9642 
 370   0.0000       1.108809        30.1722 
 371   0.0000       1.110090        30.2071 
 372   0.0000       1.113194        30.2915 
 373   0.0000       1.119640        30.4670 
 374   0.0000       1.124720        30.6052 
 375   0.0000       1.128344        30.7038 
 376   0.0000       1.132467        30.8160 
 377   0.0000       1.134888        30.8819 
 378   0.0000       1.138371        30.9767 
 379   0.0000       1.139843        31.0167 
 380   0.0000       1.147844        31.2344 
 381   0.0000       1.149041        31.2670 
 382   0.0000       1.151079        31.3224 
 383   0.0000       1.154080        31.4041 
 384   0.0000       1.158679        31.5293 
 385   0.0000       1.161253        31.5993 
 386   0.0000       1.166582        31.7443 
 387   0.0000       1.170039        31.8384 
 388   0.0000       1.171253        31.8714 
 389   0.0000       1.172700        31.9108 
 390   0.0000       1.175446        31.9855 
 391   0.0000       1.180076        32.1115 
 392   0.0000       1.183763        32.2118 
 393   0.0000       1.188409        32.3382 
 394   0.0000       1.194029        32.4912 
 395   0.0000       1.197010        32.5723 
 396   0.0000       1.198593        32.6154 
 397   0.0000       1.206018        32.8174 
 398   0.0000       1.208552        32.8864 
 399   0.0000       1.212704        32.9994 
 400   0.0000       1.214463        33.0472 
 401   0.0000       1.216158        33.0933 
 402   0.0000       1.217635        33.1335 
 403   0.0000       1.221254        33.2320 
 404   0.0000       1.230797        33.4917 
 405   0.0000       1.231986        33.5240 
 406   0.0000       1.238617        33.7045 
 407   0.0000       1.241208        33.7750 
 408   0.0000       1.245719        33.8977 
 409   0.0000       1.246859        33.9288 
 410   0.0000       1.248065        33.9616 
 411   0.0000       1.253385        34.1064 
 412   0.0000       1.255284        34.1580 
 413   0.0000       1.257626        34.2217 
 414   0.0000       1.259519        34.2733 
 415   0.0000       1.263446        34.3801 
 416   0.0000       1.271380        34.5960 
 417   0.0000       1.274417        34.6787 
 418   0.0000       1.278831        34.7988 
 419   0.0000       1.281818        34.8800 
 420   0.0000       1.284503        34.9531 
 421   0.0000       1.285469        34.9794 
 422   0.0000       1.291947        35.1557 
 423   0.0000       1.293119        35.1876 
 424   0.0000       1.297325        35.3020 
 425   0.0000       1.300753        35.3953 
 426   0.0000       1.305842        35.5338 
 427   0.0000       1.309699        35.6387 
 428   0.0000       1.316614        35.8269 
 429   0.0000       1.322605        35.9899 
 430   0.0000       1.323612        36.0173 
 431   0.0000       1.334963        36.3262 
 432   0.0000       1.337000        36.3816 
 433   0.0000       1.344314        36.5806 
 434   0.0000       1.347010        36.6540 
 435   0.0000       1.349222        36.7142 
 436   0.0000       1.352740        36.8099 
 437   0.0000       1.355123        36.8748 
 438   0.0000       1.357078        36.9280 
 439   0.0000       1.359520        36.9944 
 440   0.0000       1.363677        37.1075 
 441   0.0000       1.365675        37.1619 
 442   0.0000       1.373639        37.3786 
 443   0.0000       1.375874        37.4394 
 444   0.0000       1.379897        37.5489 
 445   0.0000       1.383941        37.6589 
 446   0.0000       1.384915        37.6854 
 447   0.0000       1.397408        38.0254 
 448   0.0000       1.401016        38.1236 
 449   0.0000       1.401786        38.1445 
 450   0.0000       1.409376        38.3511 
 451   0.0000       1.410259        38.3751 
 452   0.0000       1.410970        38.3944 
 453   0.0000       1.414773        38.4979 
 454   0.0000       1.420808        38.6622 
 455   0.0000       1.428539        38.8725 
 456   0.0000       1.434064        39.0229 
 457   0.0000       1.436758        39.0962 
 458   0.0000       1.439376        39.1674 
 459   0.0000       1.441359        39.2214 
 460   0.0000       1.443277        39.2736 
 461   0.0000       1.449086        39.4316 
 462   0.0000       1.450671        39.4748 
 463   0.0000       1.453141        39.5420 
 464   0.0000       1.455928        39.6178 
 465   0.0000       1.458774        39.6952 
 466   0.0000       1.467713        39.9385 
 467   0.0000       1.468912        39.9711 
 468   0.0000       1.472090        40.0576 
 469   0.0000       1.473604        40.0988 
 470   0.0000       1.474332        40.1186 
 471   0.0000       1.481587        40.3160 
 472   0.0000       1.484912        40.4065 
 473   0.0000       1.488387        40.5011 
 474   0.0000       1.490627        40.5620 
 475   0.0000       1.491850        40.5953 
 476   0.0000       1.493532        40.6411 
 477   0.0000       1.501569        40.8598 
 478   0.0000       1.502897        40.8959 
 479   0.0000       1.504248        40.9327 
 480   0.0000       1.509100        41.0647 
 481   0.0000       1.511385        41.1269 
 482   0.0000       1.514783        41.2193 
 483   0.0000       1.517676        41.2981 
 484   0.0000       1.520674        41.3796 
 485   0.0000       1.522068        41.4176 
 486   0.0000       1.526172        41.5292 
 487   0.0000       1.526526        41.5389 
 488   0.0000       1.530485        41.6466 
 489   0.0000       1.535968        41.7958 
 490   0.0000       1.538525        41.8654 
 491   0.0000       1.545866        42.0652 
 492   0.0000       1.548175        42.1280 
 493   0.0000       1.552021        42.2326 
 494   0.0000       1.554792        42.3080 
 495   0.0000       1.558433        42.4071 
 496   0.0000       1.561851        42.5001 
 497   0.0000       1.564186        42.5637 
 498   0.0000       1.565548        42.6007 
 499   0.0000       1.569403        42.7056 
 500   0.0000       1.574098        42.8334 
 501   0.0000       1.575949        42.8838 
 502   0.0000       1.581604        43.0376 
 503   0.0000       1.585800        43.1518 
 504   0.0000       1.588504        43.2254 
 505   0.0000       1.591853        43.3165 
 506   0.0000       1.598724        43.5035 
 507   0.0000       1.602259        43.5997 
 508   0.0000       1.605071        43.6762 
 509   0.0000       1.609931        43.8085 
 510   0.0000       1.613304        43.9002 
 511   0.0000       1.614138        43.9229 
 512   0.0000       1.618574        44.0436 
 513   0.0000       1.623383        44.1745 
 514   0.0000       1.626526        44.2600 
 515   0.0000       1.628912        44.3249 
 516   0.0000       1.631226        44.3879 
 517   0.0000       1.639670        44.6177 
 518   0.0000       1.644691        44.7543 
 519   0.0000       1.650024        44.8994 
 520   0.0000       1.655134        45.0385 
 521   0.0000       1.658929        45.1417 
 522   0.0000       1.660531        45.1853 
 523   0.0000       1.666609        45.3507 
 524   0.0000       1.667754        45.3819 
 525   0.0000       1.674908        45.5766 
 526   0.0000       1.678111        45.6637 
 527   0.0000       1.682296        45.7776 
 528   0.0000       1.686447        45.8905 
 529   0.0000       1.688714        45.9523 
 530   0.0000       1.691102        46.0172 
 531   0.0000       1.698764        46.2257 
 532   0.0000       1.701704        46.3057 
 533   0.0000       1.708369        46.4871 
 534   0.0000       1.715540        46.6822 
 535   0.0000       1.718016        46.7496 
 536   0.0000       1.721929        46.8561 
 537   0.0000       1.724763        46.9332 
 538   0.0000       1.728771        47.0422 
 539   0.0000       1.734053        47.1860 
 540   0.0000       1.743892        47.4537 
 541   0.0000       1.754795        47.7504 
 542   0.0000       1.762073        47.9485 
 543   0.0000       1.763562        47.9890 
 544   0.0000       1.765357        48.0378 
 545   0.0000       1.766945        48.0810 
 546   0.0000       1.769828        48.1595 
 547   0.0000       1.774800        48.2948 
 548   0.0000       1.777616        48.3714 
 549   0.0000       1.780617        48.4531 
 550   0.0000       1.788922        48.6790 
 551   0.0000       1.798340        48.9353 
 552   0.0000       1.801520        49.0219 
 553   0.0000       1.804442        49.1014 
 554   0.0000       1.808083        49.2004 
 555   0.0000       1.811648        49.2974 
 556   0.0000       1.816633        49.4331 
 557   0.0000       1.826124        49.6913 
 558   0.0000       1.827895        49.7396 
 559   0.0000       1.833036        49.8795 
 560   0.0000       1.835139        49.9367 
 561   0.0000       1.844337        50.1870 
 562   0.0000       1.851552        50.3833 
 563   0.0000       1.855982        50.5038 
 564   0.0000       1.870751        50.9057 
 565   0.0000       1.876136        51.0523 
 566   0.0000       1.877584        51.0917 
 567   0.0000       1.883485        51.2522 
 568   0.0000       1.885198        51.2988 
 569   0.0000       1.888776        51.3962 
 570   0.0000       1.896952        51.6187 
 571   0.0000       1.900863        51.7251 
 572   0.0000       1.904467        51.8232 
 573   0.0000       1.911411        52.0121 
 574   0.0000       1.914960        52.1087 
 575   0.0000       1.926153        52.4133 
 576   0.0000       1.929877        52.5146 
 577   0.0000       1.934854        52.6500 
 578   0.0000       1.947994        53.0076 
 579   0.0000       1.956115        53.2286 
 580   0.0000       1.958328        53.2888 
 581   0.0000       1.968817        53.5742 
 582   0.0000       1.977130        53.8004 
 583   0.0000       1.985443        54.0266 
[...]
      dxz     :     0.001640
      dyz     :     0.007070
      dx2y2   :     0.007130
      dxy     :     0.007938
 60 H s       :     0.847376  s :     0.847376
      pz      :     0.072491  p :     0.152523
      px      :     0.039428
      py      :     0.040605
      dz2     :     0.008971  d :     0.028330
      dxz     :     0.009249
      dyz     :     0.009644
      dx2y2   :     0.000380
      dxy     :     0.000086
 61 H s       :     0.848300  s :     0.848300
      pz      :     0.045880  p :     0.156381
      px      :     0.052095
      py      :     0.058406
      dz2     :     0.005024  d :     0.028559
      dxz     :     0.003771
      dyz     :     0.005059
      dx2y2   :     0.008464
      dxy     :     0.006240
 62 H s       :     0.846539  s :     0.846539
      pz      :     0.043276  p :     0.157195
      px      :     0.072055
      py      :     0.041864
      dz2     :     0.003983  d :     0.028681
      dxz     :     0.008350
      dyz     :     0.000514
      dx2y2   :     0.006818
      dxy     :     0.009018
 63 H s       :     0.850777  s :     0.850777
      pz      :     0.072317  p :     0.152524
      px      :     0.040335
      py      :     0.039872
      dz2     :     0.008993  d :     0.028302
      dxz     :     0.009302
      dyz     :     0.009514
      dx2y2   :     0.000249
      dxy     :     0.000245
 64 H s       :     0.846298  s :     0.846298
      pz      :     0.045965  p :     0.153052
      px      :     0.044424
      py      :     0.062664
      dz2     :     0.005498  d :     0.028465
      dxz     :     0.002210
      dyz     :     0.006488
      dx2y2   :     0.007529
      dxy     :     0.006741
 65 H s       :     0.878574  s :     0.878574
      pz      :     0.025473  p :     0.132509
      px      :     0.084922
      py      :     0.022114
      dz2     :     0.003102  d :     0.023627
      dxz     :     0.007777
      dyz     :     0.000220
      dx2y2   :     0.007535
      dxy     :     0.004993
 66 H s       :     0.776622  s :     0.776622
      pz      :     0.063277  p :     0.271107
      px      :     0.113202
      py      :     0.094628
      dz2     :     0.009149  d :     0.060857
      dxz     :     0.015843
      dyz     :     0.003480
      dx2y2   :     0.011498
      dxy     :     0.020887
 67 H s       :     0.783084  s :     0.783084
      pz      :     0.066259  p :     0.272514
      px      :     0.078291
      py      :     0.127965
      dz2     :     0.009890  d :     0.060781
      dxz     :     0.009326
      dyz     :     0.010080
      dx2y2   :     0.020277
      dxy     :     0.011209
 68 H s       :     0.783153  s :     0.783153
      pz      :     0.059981  p :     0.272531
      px      :     0.086971
      py      :     0.125579
      dz2     :     0.005351  d :     0.060775
      dxz     :     0.008233
      dyz     :     0.009837
      dx2y2   :     0.023746
      dxy     :     0.013609
 69 H s       :     0.778893  s :     0.778893
      pz      :     0.085553  p :     0.271640
      px      :     0.092277
      py      :     0.093810
      dz2     :     0.017681  d :     0.060871
      dxz     :     0.013010
      dyz     :     0.011020
      dx2y2   :     0.007219
      dxy     :     0.011942
 70 H s       :     0.865408  s :     0.865408
      pz      :     0.080244  p :     0.144753
      px      :     0.028164
      py      :     0.036344
      dz2     :     0.009937  d :     0.026305
      dxz     :     0.008009
      dyz     :     0.007054
      dx2y2   :     0.000694
      dxy     :     0.000611
 71 H s       :     0.864463  s :     0.864463
      pz      :     0.079407  p :     0.144375
      px      :     0.031262
      py      :     0.033706
      dz2     :     0.009569  d :     0.026265
      dxz     :     0.008407
      dyz     :     0.005851
      dx2y2   :     0.001156
      dxy     :     0.001281


                      *****************************
                      * MAYER POPULATION ANALYSIS *
                      *****************************

  NA   - Mulliken gross atomic population
  ZA   - Total nuclear charge
  QA   - Mulliken gross atomic charge
  VA   - Mayer's total valence
  BVA  - Mayer's bonded valence
  FA   - Mayer's free valence

  ATOM       NA         ZA         QA         VA         BVA        FA
  0 C      5.9211     6.0000     0.0789     3.4164     3.4164    -0.0000
  1 C      5.8263     6.0000     0.1737     4.0562     4.0562    -0.0000
  2 C      6.2008     6.0000    -0.2008     3.9114     3.9114    -0.0000
  3 C      5.8253     6.0000     0.1747     3.6458     3.6458    -0.0000
  4 H      0.8301     1.0000     0.1699     1.0025     1.0025    -0.0000
  5 C      6.2038     6.0000    -0.2038     3.9739     3.9739    -0.0000
  6 C      5.8210     6.0000     0.1790     3.6086     3.6086    -0.0000
  7 H      0.8579     1.0000     0.1421     0.9880     0.9880    -0.0000
  8 C      6.1786     6.0000    -0.1786     3.8968     3.8968    -0.0000
  9 C      6.1442     6.0000    -0.1442     4.0140     4.0140    -0.0000
 10 H      0.8033     1.0000     0.1967     1.0059     1.0059    -0.0000
 11 C      6.1360     6.0000    -0.1360     4.0055     4.0055    -0.0000
 12 O      8.3558     8.0000    -0.3558     2.1271     2.1271    -0.0000
 13 C      5.9784     6.0000     0.0216     3.8306     3.8306    -0.0000
 14 C      5.9801     6.0000     0.0199     3.8991     3.8991    -0.0000
 15 N      7.2687     7.0000    -0.2687     2.9186     2.9186    -0.0000
 16 H      0.8970     1.0000     0.1030     0.9884     0.9884    -0.0000
 17 C      6.0554     6.0000    -0.0554     3.8168     3.8168    -0.0000
 18 N      7.3846     7.0000    -0.3846     3.0185     3.0185    -0.0000
 19 H      0.8835     1.0000     0.1165     0.9878     0.9878    -0.0000
 20 C      6.0463     6.0000    -0.0463     3.8208     3.8208    -0.0000
 21 H      0.8986     1.0000     0.1014     1.0029     1.0029    -0.0000
 22 C      6.3308     6.0000    -0.3308     3.8911     3.8911    -0.0000
 23 C      6.3311     6.0000    -0.3311     3.8809     3.8809    -0.0000
 24 H      0.8938     1.0000     0.1062     0.9908     0.9908    -0.0000
 25 C      6.3143     6.0000    -0.3143     3.8800     3.8800    -0.0000
 26 C      6.3312     6.0000    -0.3312     3.8757     3.8757    -0.0000
 27 H      0.8948     1.0000     0.1052     0.9762     0.9762    -0.0000
 28 H      0.8881     1.0000     0.1119     0.9807     0.9807    -0.0000
 29 H      0.9038     1.0000     0.0962     0.9814     0.9814    -0.0000
 30 H      0.8910     1.0000     0.1090     0.9821     0.9821    -0.0000
 31 H      0.8888     1.0000     0.1112     0.9821     0.9821    -0.0000
 32 H      0.9139     1.0000     0.0861     0.9823     0.9823    -0.0000
 33 H      0.8894     1.0000     0.1106     0.9812     0.9812    -0.0000
 34 H      0.9079     1.0000     0.0921     0.9830     0.9830     0.0000
 35 H      0.9071     1.0000     0.0929     0.9728     0.9728    -0.0000
 36 H      0.9061     1.0000     0.0939     0.9815     0.9815    -0.0000
 37 H      0.8779     1.0000     0.1221     1.0014     1.0014    -0.0000
 38 H      0.9230     1.0000     0.0770     0.9828     0.9828    -0.0000
 39 C      5.9805     6.0000     0.0195     3.9035     3.9035    -0.0000
 40 C      5.9788     6.0000     0.0212     3.8306     3.8306    -0.0000
 41 N      7.3852     7.0000    -0.3852     3.0183     3.0183    -0.0000
 42 H      0.8845     1.0000     0.1155     0.9879     0.9879    -0.0000
 43 C      6.0467     6.0000    -0.0467     3.8200     3.8200    -0.0000
 44 N      7.2559     7.0000    -0.2559     2.9202     2.9202    -0.0000
 45 H      0.8982     1.0000     0.1018     0.9885     0.9885     0.0000
 46 C      6.0557     6.0000    -0.0557     3.8164     3.8164    -0.0000
 47 H      0.8917     1.0000     0.1083     0.9904     0.9904    -0.0000
 48 C      6.3140     6.0000    -0.3140     3.8804     3.8804    -0.0000
 49 C      6.3313     6.0000    -0.3313     3.8755     3.8755    -0.0000
 50 H      0.8945     1.0000     0.1055     1.0019     1.0019    -0.0000
 51 C      6.3306     6.0000    -0.3306     3.8917     3.8917    -0.0000
 52 C      6.3312     6.0000    -0.3312     3.8810     3.8810    -0.0000
 53 H      0.9080     1.0000     0.0920     0.9728     0.9728    -0.0000
 54 H      0.8904     1.0000     0.1096     0.9813     0.9813    -0.0000
 55 H      0.9084     1.0000     0.0916     0.9830     0.9830    -0.0000
 56 H      0.8766     1.0000     0.1234     1.0014     1.0014    -0.0000
 57 H      0.9242     1.0000     0.0758     0.9827     0.9827    -0.0000
 58 H      0.9073     1.0000     0.0927     0.9816     0.9816    -0.0000
 59 H      0.8886     1.0000     0.1114     0.9807     0.9807    -0.0000
 60 H      0.9051     1.0000     0.0949     0.9814     0.9814     0.0000
 61 H      0.8946     1.0000     0.1054     0.9761     0.9761     0.0000
 62 H      0.8880     1.0000     0.1120     0.9819     0.9819    -0.0000
 63 H      0.9156     1.0000     0.0844     0.9822     0.9822    -0.0000
 64 H      0.8914     1.0000     0.1086     0.9822     0.9822    -0.0000
 65 H      0.9088     1.0000     0.0912     0.9767     0.9767    -0.0000
 66 H      0.8477     1.0000     0.1523     1.0211     1.0211    -0.0000
 67 H      0.8632     1.0000     0.1368     1.0237     1.0237    -0.0000
 68 H      0.8625     1.0000     0.1375     1.0234     1.0234    -0.0000
 69 H      0.8528     1.0000     0.1472     1.0236     1.0236    -0.0000
 70 H      0.9002     1.0000     0.0998     0.9996     0.9996    -0.0000
 71 H      0.8982     1.0000     0.1018     0.9990     0.9990    -0.0000

  Mayer bond orders larger than 0.100000
B(  0-C ,  1-C ) :   0.9266 B(  0-C ,  2-C ) :   1.3401 B(  0-C ,  8-C ) :   1.2988 
B(  1-C , 12-O ) :   2.0935 B(  1-C , 65-H ) :   1.0216 B(  2-C ,  3-C ) :   1.3179 
B(  2-C ,  4-H ) :   0.9610 B(  3-C ,  5-C ) :   1.3828 B(  3-C , 11-C ) :   1.0085 
B(  5-C ,  6-C ) :   1.3509 B(  5-C ,  7-H ) :   0.9760 B(  6-C ,  8-C ) :   1.3315 
B(  6-C ,  9-C ) :   1.0054 B(  8-C , 10-H ) :   0.9494 B(  9-C , 44-N ) :   1.9448 
B(  9-C , 70-H ) :   0.9912 B( 11-C , 15-N ) :   1.9367 B( 11-C , 71-H ) :   0.9892 
B( 13-C , 14-C ) :   0.9729 B( 13-C , 15-N ) :   0.9123 B( 13-C , 16-H ) :   0.9711 
B( 13-C , 17-C ) :   0.9563 B( 14-C , 18-N ) :   0.9848 B( 14-C , 19-H ) :   0.9807 
B( 14-C , 20-C ) :   0.9699 B( 17-C , 21-H ) :   0.9728 B( 17-C , 22-C ) :   0.9485 
B( 17-C , 23-C ) :   0.9458 B( 18-N , 68-H ) :   1.0079 B( 18-N , 69-H ) :   0.9934 
B( 20-C , 24-H ) :   0.9702 B( 20-C , 25-C ) :   0.9604 B( 20-C , 26-C ) :   0.9410 
B( 22-C , 30-H ) :   0.9886 B( 22-C , 31-H ) :   0.9843 B( 22-C , 32-H ) :   0.9804 
B( 23-C , 27-H ) :   0.9818 B( 23-C , 28-H ) :   0.9871 B( 23-C , 29-H ) :   0.9783 
B( 25-C , 36-H ) :   0.9902 B( 25-C , 37-H ) :   0.9759 B( 25-C , 38-H ) :   0.9821 
B( 26-C , 33-H ) :   0.9886 B( 26-C , 34-H ) :   0.9811 B( 26-C , 35-H ) :   0.9847 
B( 39-C , 40-C ) :   0.9724 B( 39-C , 41-N ) :   0.9873 B( 39-C , 42-H ) :   0.9811 
B( 39-C , 43-C ) :   0.9699 B( 40-C , 44-N ) :   0.9103 B( 40-C , 45-H ) :   0.9716 
B( 40-C , 46-C ) :   0.9561 B( 41-N , 66-H ) :   0.9912 B( 41-N , 67-H ) :   1.0078 
B( 43-C , 47-H ) :   0.9698 B( 43-C , 48-C ) :   0.9607 B( 43-C , 49-C ) :   0.9406 
B( 46-C , 50-H ) :   0.9721 B( 46-C , 51-C ) :   0.9487 B( 46-C , 52-C ) :   0.9454 
B( 48-C , 56-H ) :   0.9757 B( 48-C , 57-H ) :   0.9822 B( 48-C , 58-H ) :   0.9903 
B( 49-C , 53-H ) :   0.9850 B( 49-C , 54-H ) :   0.9889 B( 49-C , 55-H ) :   0.9812 
B( 51-C , 62-H ) :   0.9843 B( 51-C , 63-H ) :   0.9805 B( 51-C , 64-H ) :   0.9887 
B( 52-C , 59-H ) :   0.9873 B( 52-C , 60-H ) :   0.9784 B( 52-C , 61-H ) :   0.9820 


-------
TIMINGS
-------

Total SCF time: 0 days 0 hours 16 min 45 sec 

Total time                  ....    1005.214 sec
Sum of individual times     ....     996.454 sec  ( 99.1%)

Fock matrix formation       ....     943.298 sec  ( 93.8%)
Diagonalization             ....       8.181 sec  (  0.8%)
Density matrix formation    ....       0.605 sec  (  0.1%)
Population analysis         ....       2.774 sec  (  0.3%)
Initial guess               ....       1.562 sec  (  0.2%)
Orbital Transformation      ....       0.000 sec  (  0.0%)
Orbital Orthonormalization  ....       0.000 sec  (  0.0%)
DIIS solution               ....      26.897 sec  (  2.7%)
SOSCF solution              ....       3.413 sec  (  0.3%)


           ************************************************************
           *        Program running with 32 parallel MPI-processes    *
           *              working on a common directory               *
           ************************************************************

------------------------------------------------------------------------------
                                ORCA  MP2 
------------------------------------------------------------------------------

Freezing NCore=60 chemical core electrons

-------------
RI-MP2 ENERGY
-------------
Dimension of the basis                    ... 1488
Memory devoted to MP2                     ... 3000 MB   
Data format for buffers                   ... DOUBLE
Compression type for matrix containers    ... UNCOMPRESSED
Overall scaling of the MP2 energy         ...   1.000e+00
Calculating two index integrals           ... done (    0.158 sec)
Cholesky decomposition of V**-1           ... done (    2.186 sec)

-----------------
RI-TRANSFORMATION (AUX index driven)
-----------------

Dimension of the orbital-basis         ... 1488
Dimension of the aux-basis             ... 3690
Transformation of internal/external MOs...   30- 113 to  114-1487
Number Format for Storage              ... Double (8 Byte)
Integral mode                          ... Direct

First Phase: integral generation and transformation of MO indices
  Aux angular momentum 0               ... done (    1.419 sec)
  Aux angular momentum 1               ... done (    2.801 sec)
  Aux angular momentum 2               ... done (    3.623 sec)
  Aux angular momentum 3               ... done (    3.152 sec)
  Aux angular momentum 4               ... done (    0.806 sec)
Closing buffer VIA ( 3.17 GB; CompressionRatio= 1.00)
  Phase 1 completed in    11.968 sec
Second Phase: sorting and transformation of aux index

IA-Transformation
Memory available                       ... 2720 MB 
Max. # MO pairs treated in a batch     ... 3    
# of internal orbitals                 ... 84
# batches for internal orbitals        ... 1
Closing buffer IAV ( 0.11 GB; CompressionRatio= 1.00)
(ia|v) transformation done in    11.911 sec

  Phase 2 completed in    17.017 sec
RI-Integral transformation completed in    29.047 sec
Opening buffers                              ... done

Starting loop over batches of integrals:

Operator 0  - window                       ... ( 30-113)x(114-1487)
Operator 0  - Memory available             ...  3000 MB
Operator 0  - Memory needed per MO         ...  38.7 MB
Operator 0  - Number of orbitals per batch ... 3
Operator 0  - Number of batches            ... 1

OPERATOR  0   PASS   0:  MOs    30 ...   32 +   33 ...   35 +   36 ...   38 +   39 ...   41
                            +   42 ...   44 +   45 ...   47 +   48 ...   50 +   51 ...   53
                            +   54 ...   56 +   57 ...   59 +   60 ...   62 +   63 ...   65
                            +   66 ...   68 +   69 ...   71 +   72 ...   74 +   75 ...   77
                            +   78 ...   80 +   81 ...   83 +   84 ...   86 +   87 ...   89
                            +   90 ...   92 +   93 ...   95 +   96 ...   98 +   99 ...  101
                            +  102 ...  104 +  105 ...  107 +  108 ...  110 +  111 ...  113
  Reading integrals       ... ok
  Internal MO  32
Time spent in pair loops =     8.411 sec
Deleting buffer (Ka|jb)[aa] ...done

-----------------------------------------------
 RI-MP2 CORRELATION ENERGY:     -5.289693140 Eh
-----------------------------------------------


-------
TIMINGS
-------

Total time                :  375.274 sec
Integral trafo            :   29.051 sec (  7.7%)
I/O of integrals          :    0.069 sec (  0.0%)
K(i,j) Operators          :    8.169 sec (  2.2%)
T(i,j) pair energies      :    0.096 sec (  0.0%)
V-calculation             :    0.158 sec (  0.0%)
V**(-1/2)                 :    2.186 sec (  0.6%)
Gamma(ia|P)               :    0.000 sec (  0.0%)
Gamma-Trafo               :    0.000 sec (  0.0%)
D(virtual)                :    0.000 sec (  0.0%)
D(internal)               :    0.000 sec (  0.0%)
W(virtual)                :    0.000 sec (  0.0%)
W(internal)               :    0.000 sec (  0.0%)
L(virtual)                :    0.000 sec (  0.0%)
L(internal)               :    0.000 sec (  0.0%)
G(D)                      :    0.000 sec (  0.0%)
G(Z)                      :    0.000 sec (  0.0%)
Z-Vector Solution         :    0.000 sec (  0.0%)
3-Index Derivative        :    0.000 sec (  0.0%)
2-Index Derivative        :    0.000 sec (  0.0%)
Separable Gradient        :    0.000 sec (  0.0%)


---------------------------------------
MP2 TOTAL ENERGY:    -1269.505623034 Eh
---------------------------------------

-------------------------   --------------------
FINAL SINGLE POINT ENERGY     -1269.505623034084
-------------------------   --------------------


                            ***************************************
                            *     ORCA property calculations      *
                            ***************************************


  WARNING: The energy has been calculated at the MP2 level but the densities
           used in the property calculations are still SCF densities
           MP2 response densities have not been calculated 
           use %mp2 Density relaxed end
           or  %mp2 Density unrelaxed end

                                    ---------------------
                                    Active property flags
                                    ---------------------
   (+) Dipole Moment


------------------------------------------------------------------------------
                       ORCA ELECTRIC PROPERTIES CALCULATION
------------------------------------------------------------------------------

Dipole Moment Calculation                       ... on
Quadrupole Moment Calculation                   ... off
Polarizability Calculation                      ... off
GBWName                                         ... _o_1_alde1_2_ami1_2_opt_MP2.gbw
Electron density file                           ... _o_1_alde1_2_ami1_2_opt_MP2.scfp
The origin for moment calculation is the CENTER OF MASS  = (-1.726315,  4.674538 -5.495101)

-------------
DIPOLE MOMENT
-------------
                                X             Y             Z
Electronic contribution:     -4.16878      -4.37724      23.36904
Nuclear contribution   :      3.88935       4.71520     -25.40725
                        -----------------------------------------
Total Dipole Moment    :     -0.27943       0.33796      -2.03821
                        -----------------------------------------
Magnitude (a.u.)       :      2.08485
Magnitude (Debye)      :      5.29926



--------------------
Rotational spectrum 
--------------------
 
Rotational constants in cm-1:     0.008045     0.001779     0.001757 
Rotational constants in MHz :   241.188684    53.333170    52.662295 

 Dipole components along the rotational axes: 
x,y,z [a.u.] :     0.768888     0.425043    -1.890699 
x,y,z [Debye]:     1.954357     1.080373    -4.805775 

 

Timings for individual modules:

Sum of individual times         ...     1877.676 sec (=  31.295 min)
GTO integral calculation        ...      238.466 sec (=   3.974 min)  12.7 %
SCF iterations                  ...     1194.002 sec (=  19.900 min)  63.6 %
MP2 module                      ...      445.208 sec (=   7.420 min)  23.7 %
                             ****ORCA TERMINATED NORMALLY****
TOTAL RUN TIME: 0 days 0 hours 32 minutes 31 seconds 629 msec
