Job execution start: Thu Mar 10 21:20:43 GMT 2022
Shared library path: /work/e05/e05/atarzia/orca_4_2_1_linux_x86-64_openmpi314:/work/e05/e05/atarzia/openmpi-3.1.4/lib:/opt/cray/pe/papi/6.0.0.6/lib64:/opt/cray/libfabric/1.11.0.4.71/lib64
Slurm Job ID is: 1234915
Slurm Job name is: o_1_alde1_3_ami3_1_opt_MP2
nid005606

                                 *****************
                                 * O   R   C   A *
                                 *****************

           --- An Ab Initio, DFT and Semiempirical electronic structure package ---

                  #######################################################
                  #                        -***-                        #
                  #          Department of theory and spectroscopy      #
                  #               Directorship: Frank Neese             #
                  #        Max Planck Institute fuer Kohlenforschung    #
                  #                Kaiser Wilhelm Platz 1               #
                  #                 D-45470 Muelheim/Ruhr               #
                  #                      Germany                        #
                  #                                                     #
                  #                  All rights reserved                #
                  #                        -***-                        #
                  #######################################################


                         Program Version 4.2.1 -  RELEASE  -


 With contributions from (in alphabetic order):
   Daniel Aravena         : Magnetic Suceptibility
   Michael Atanasov       : Ab Initio Ligand Field Theory (pilot matlab implementation)
   Alexander A. Auer      : GIAO ZORA, VPT2
   Ute Becker             : Parallelization
   Giovanni Bistoni       : ED, misc. LED, open-shell LED, HFLD
   Martin Brehm           : Molecular dynamics
   Dmytro Bykov           : SCF Hessian
   Vijay G. Chilkuri      : MRCI spin determinant printing, contributions to CSF-ICE
   Dipayan Datta          : RHF DLPNO-CCSD density
   Achintya Kumar Dutta   : EOM-CC, STEOM-CC
   Dmitry Ganyushin       : Spin-Orbit,Spin-Spin,Magnetic field MRCI
   Miquel Garcia          : C-PCM Hessian, Gaussian charge scheme
   Yang Guo               : DLPNO-NEVPT2, CIM, IAO-localization
   Andreas Hansen         : Spin unrestricted coupled pair/coupled cluster methods
   Benjamin Helmich-Paris : CASSCF linear response (MC-RPA)
   Lee Huntington         : MR-EOM, pCC
   Robert Izsak           : Overlap fitted RIJCOSX, COSX-SCS-MP3, EOM
   Christian Kollmar      : KDIIS, OOCD, Brueckner-CCSD(T), CCSD density
   Simone Kossmann        : Meta GGA functionals, TD-DFT gradient, OOMP2, MP2 Hessian
   Martin Krupicka        : AUTO-CI
   Lucas Lang             : DCDCAS
   Dagmar Lenk            : GEPOL surface, SMD
   Dimitrios Liakos       : Extrapolation schemes; Compound Job, initial MDCI parallelization
   Dimitrios Manganas     : Further ROCIS development; embedding schemes
   Dimitrios Pantazis     : SARC Basis sets
   Taras Petrenko         : DFT Hessian,TD-DFT gradient, ASA, ECA, R-Raman, ABS, FL, XAS/XES, NRVS
   Peter Pinski           : DLPNO-MP2, DLPNO-MP2 Gradient
   Christoph Reimann      : Effective Core Potentials
   Marius Retegan         : Local ZFS, SOC
   Christoph Riplinger    : Optimizer, TS searches, QM/MM, DLPNO-CCSD(T), (RO)-DLPNO pert. Triples
   Tobias Risthaus        : Range-separated hybrids, TD-DFT gradient, RPA, STAB
   Michael Roemelt        : Original ROCIS implementation
   Masaaki Saitow         : Open-shell DLPNO-CCSD energy and density
   Barbara Sandhoefer     : DKH picture change effects
   Avijit Sen             : IP-ROCIS
   Kantharuban Sivalingam : CASSCF convergence, NEVPT2, FIC-MRCI
   Bernardo de Souza      : ESD, SOC TD-DFT
   Georgi Stoychev        : AutoAux, RI-MP2 NMR
   Willem Van den Heuvel  : Paramagnetic NMR
   Boris Wezisla          : Elementary symmetry handling
   Frank Wennmohs         : Technical directorship


 We gratefully acknowledge several colleagues who have allowed us to
 interface, adapt or use parts of their codes:
   Stefan Grimme, W. Hujo, H. Kruse,             : VdW corrections, initial TS optimization,
                  C. Bannwarth                     DFT functionals, gCP, sTDA/sTD-DF
   Ed Valeev, F. Pavosevic, A. Kumar             : LibInt (2-el integral package), F12 methods
   Garnet Chan, S. Sharma, J. Yang, R. Olivares  : DMRG
   Ulf Ekstrom                                   : XCFun DFT Library
   Mihaly Kallay                                 : mrcc  (arbitrary order and MRCC methods)
   Andreas Klamt, Michael Diedenhofen            : otool_cosmo (COSMO solvation model)
   Jiri Pittner, Ondrej Demel                    : Mk-CCSD
   Frank Weinhold                                : gennbo (NPA and NBO analysis)
   Christopher J. Cramer and Donald G. Truhlar   : smd solvation model
   Lars Goerigk                                  : TD-DFT with DH, B97 family of functionals
   V. Asgeirsson, H. Jonsson                     : NEB implementation
   FAccTs GmbH                                   : IRC, NEB, NEB-TS, Multilevel, MM, QM/MM, CI optimization
   S Lehtola, MJT Oliveira, MAL Marques          : LibXC Library


 Your calculation uses the libint2 library for the computation of 2-el integrals
 For citations please refer to: http://libint.valeyev.net

 Your ORCA version has been built with support for libXC version: 4.2.3
 For citations please refer to: https://tddft.org/programs/libxc/

 This ORCA versions uses:
   CBLAS   interface :  Fast vector & matrix operations
   LAPACKE interface :  Fast linear algebra routines
   SCALAPACK package :  Parallel linear algebra routines




***************************************
The coordinates will be read from file: _o_1_alde1_3_ami3_1_opt_B97-3c.xyz
***************************************


----- Orbital basis set information -----
Your calculation utilizes the basis: cc-pVTZ 
       H, B-Ne : Obtained from the ccRepo (grant-hill.group.shef.ac.uk/ccrepo) Feb. 2017
                 T. H. Dunning, Jr., J. Chem. Phys. 90, 1007 (1989)
            He : Obtained from the ccRepo (grant-hill.group.shef.ac.uk/ccrepo) Feb. 2017
                 D. E. Woon, T. H. Dunning, Jr., J. Chem. Phys. 100, 2975 (1994)
  Li-Be, Na-Mg : Obtained from the ccRepo (grant-hill.group.shef.ac.uk/ccrepo) Feb. 2017
                 B. P. Prascher, D. E. Woon, K. A. Peterson, T. H. Dunning, Jr., A. K. Wilson, Theor. Chem. Acc. 128, 69 (2011)
         Al-Ar : Obtained from the ccRepo (grant-hill.group.shef.ac.uk/ccrepo) Feb. 2017
                 D. E. Woon, T. H. Dunning, Jr., J. Chem. Phys. 98, 1358 (1993)
            Ca : Obtained from the Peterson Research Group Website (tyr0.chem.wsu.edu/~kipeters) Feb. 2017
                 J. Koput, K. A. Peterson, J. Phys. Chem. 106, 9595 (2002)
         Sc-Zn : Obtained from the ccRepo (grant-hill.group.shef.ac.uk/ccrepo) Feb. 2017
                 N. B. Balabanov, K. A. Peterson, J. Chem. Phys. 123, 064107 (2005)
                 N. B. Balabanov, K. A. Peterson, J. Chem. Phys. 125, 074110 (2006)
         Ga-Kr : Obtained from the ccRepo (grant-hill.group.shef.ac.uk/ccrepo) Feb. 2017
                 A. K. Wilson, D. E. Woon, K. A. Peterson, T. H. Dunning, Jr., J. Chem. Phys. 110, 7667 (1999)
             Y : Obtained from the ccRepo (grant-hill.group.shef.ac.uk/ccrepo) Feb. 2017
                 K. A. Peterson, D. Figgen, M. Dolg, H. Stoll, J. Chem. Phys. 126, 124101 (2007)
        Ag, Au : Obtained from the Peterson Research Group Website (tyr0.chem.wsu.edu/~kipeters) Feb. 2017
                 K. A. Peterson, C. Puzzarini, Theor. Chem. Acc. 114, 283 (2005)

----- AuxC basis set information -----
Your calculation utilizes the auxiliary basis: cc-pVTZ/C 
  Obtained from the EMSL Basis Set Exchange (bse.pnl.gov) Feb. 2017
  H-He, B-F, Al-Ar, Ga-Kr : F. Weigend, A. Kohn, C. Hattig, J. Chem. Phys. 116, 3175 (2002)
             Li-Be, Na-Mg : C. Haettig, Phys. Chem. Chem. Phys. 7, 59 (2005)
                       Ne : C. Haettig, Phys. Chem. Chem. Phys. 7, 59 (2005)
                            F. Weigend, A. Kohn, C. Hattig, J. Chem. Phys. 116, 3175 (2002)
                    Sc-Zn : J. G. Hill, J. A. Platts, J. Chem. Phys. 128, 044104 (2008)

================================================================================
                                        WARNINGS
                       Please study these warnings very carefully!
================================================================================


WARNING: No MP2 level density has been requested!
         To caclulate MP2 level properties use
         %mp2 Density relaxed end
         or
         %mp2 Density unrelaxed end

WARNING: Post HF methods need fully converged wavefunctions
  ===> : Setting SCFConvForced true
         You can overwrite this default with %scf ConvForced false 


INFO   : the flag for use of LIBINT has been found!

================================================================================
                                       INPUT FILE
================================================================================
NAME = o_1_alde1_3_ami3_1_opt_MP2.in
|  1> ! RI-MP2 cc-pVTZ cc-pVTZ/C TIGHTSCF printbasis Grid6 NOFINALGRID SlowConv
|  2> 
|  3> %base "_o_1_alde1_3_ami3_1_opt_MP2"
|  4> %maxcore 3000
|  5> %pal
|  6>    nprocs 32
|  7> end
|  8> 
|  9> * xyzfile 0 1 _o_1_alde1_3_ami3_1_opt_B97-3c.xyz
| 10> 
| 11>                          ****END OF INPUT****
================================================================================

                       ****************************
                       * Single Point Calculation *
                       ****************************

---------------------------------
CARTESIAN COORDINATES (ANGSTROEM)
---------------------------------
  C     -1.456625    0.725126   -1.768885
  C     -1.386792    0.388281   -0.302236
  C     -2.661982    1.012955   -2.392219
  C     -2.697955    1.362319   -3.739795
  H     -3.578381    0.929488   -1.824262
  C     -1.514543    1.411223   -4.461853
  C     -0.297244    1.125071   -3.849010
  H     -1.554042    1.642624   -5.517408
  C     -0.276403    0.778044   -2.506147
  C      0.970139    1.234213   -4.656022
  H      0.667133    0.516395   -2.047264
  C     -4.021420    1.711543   -4.369046
  C     -1.584383    1.683912    1.632470
  C     -2.971677    1.276514    1.156035
  N     -0.755023    1.521139    0.444035
  N     -2.711359    0.119601    0.308172
  C     -4.086693    3.239715   -6.126092
  C     -4.985231    3.743304   -5.005158
  N     -3.965996    1.813875   -5.847447
  N     -4.502313    3.023260   -3.832563
  C      2.955987    1.827573   -3.592673
  C      2.680231    2.826439   -4.707914
  N      2.158402    0.668080   -3.973046
  N      1.251538    2.673053   -4.956678
  H      2.683800    0.121003   -4.643954
  H      0.835500    0.700560   -5.599404
  H      0.743007    3.231297   -4.278900
  H     -0.767752   -0.502256   -0.173238
  H     -0.845644    2.352824   -0.130187
  H     -4.773922    1.340122   -6.232487
  H     -3.696092    3.514279   -3.460320
  H     -4.750303    0.940520   -4.109974
  C     -3.933777    1.118811    2.304287
  H     -2.633004   -0.700850    0.896509
  C     -4.590728    3.662797   -7.481030
  C      4.432573    1.635407   -3.365338
  H     -3.341447    2.083932    0.511785
  C     -3.982218    2.445786    3.065896
  H     -3.589075    0.318387    2.967156
  H     -4.928324    0.838144    1.955543
  C     -2.599149    2.950916    3.479582
  H     -4.616685    2.348212    3.947954
  H     -4.458950    3.195146    2.428213
  C     -1.611591    3.029961    2.311746
  H     -2.693199    3.927317    3.957046
  H     -2.187818    2.278439    4.237451
  H     -0.621706    3.322471    2.664275
  H     -1.936489    3.794278    1.598540
  H     -1.261402    0.937860    2.370449
  H     -3.098755    3.692215   -5.974809
  C     -4.682358    5.190742   -7.495125
  H     -5.578811    3.226274   -7.659943
  H     -3.936235    3.308553   -8.278315
  C     -5.493496    5.753599   -6.327071
  H     -5.111628    5.531349   -8.438428
  H     -3.669259    5.600009   -7.455259
  C     -5.014781    5.250373   -4.962141
  H     -6.541874    5.469703   -6.453868
  H     -5.467345    6.843902   -6.354293
  H     -6.002522    3.389889   -5.219056
  H     -5.665375    5.617248   -4.167257
  H     -4.009564    5.631111   -4.754887
  H      2.522113    2.242043   -2.674178
  C      5.042665    3.001593   -3.041942
  H      4.894348    1.222920   -4.268374
  H      4.622773    0.927467   -2.557769
  C      4.708251    4.069673   -4.084359
  H      6.125276    2.913558   -2.940376
  H      4.669919    3.326557   -2.066786
  C      3.206836    4.195722   -4.359035
  H      5.213261    3.820792   -5.021801
  H      5.112633    5.031658   -3.766180
  H      3.021248    4.913748   -5.158849
  H      2.693787    4.569698   -3.467228
  H      3.214695    2.474638   -5.600164

----------------------------
CARTESIAN COORDINATES (A.U.)
----------------------------
  NO LB      ZA    FRAG     MASS         X           Y           Z
   0 C     6.0000    0    12.011   -2.752623    1.370289   -3.342708
   1 C     6.0000    0    12.011   -2.620657    0.733744   -0.571144
   2 C     6.0000    0    12.011   -5.030417    1.914207   -4.520638
   3 C     6.0000    0    12.011   -5.098396    2.574410   -7.067189
   4 H     1.0000    0     1.008   -6.762160    1.756477   -3.447356
   5 C     6.0000    0    12.011   -2.862071    2.666824   -8.431681
   6 C     6.0000    0    12.011   -0.561709    2.126076   -7.273574
   7 H     1.0000    0     1.008   -2.936714    3.104110  -10.426391
   8 C     6.0000    0    12.011   -0.522325    1.470291   -4.735931
   9 C     6.0000    0    12.011    1.833296    2.332324   -8.798607
  10 H     1.0000    0     1.008    1.260699    0.975846   -3.868768
  11 C     6.0000    0    12.011   -7.599383    3.234348   -8.256301
  12 C     6.0000    0    12.011   -2.994049    3.182133    3.084921
  13 C     6.0000    0    12.011   -5.615655    2.412261    2.184589
  14 N     7.0000    0    14.007   -1.426786    2.874536    0.839105
  15 N     7.0000    0    14.007   -5.123725    0.226013    0.582361
  16 C     6.0000    0    12.011   -7.722731    6.122174  -11.576636
  17 C     6.0000    0    12.011   -9.420722    7.073819   -9.458378
  18 N     7.0000    0    14.007   -7.494646    3.427727  -11.050072
  19 N     7.0000    0    14.007   -8.508139    5.713133   -7.242494
  20 C     6.0000    0    12.011    5.586005    3.453612   -6.789168
  21 C     6.0000    0    12.011    5.064903    5.341195   -8.896667
  22 N     7.0000    0    14.007    4.078788    1.262488   -7.507969
  23 N     7.0000    0    14.007    2.365064    5.051338   -9.366764
  24 H     1.0000    0     1.008    5.071648    0.228663   -8.775801
  25 H     1.0000    0     1.008    1.578867    1.323867  -10.581340
  26 H     1.0000    0     1.008    1.404080    6.106265   -8.085949
  27 H     1.0000    0     1.008   -1.450841   -0.949127   -0.327372
  28 H     1.0000    0     1.008   -1.598036    4.446194   -0.246018
  29 H     1.0000    0     1.008   -9.021406    2.532464  -11.777693
  30 H     1.0000    0     1.008   -6.984601    6.641024   -6.539057
  31 H     1.0000    0     1.008   -8.976771    1.777325   -7.766725
  32 C     6.0000    0    12.011   -7.433762    2.114247    4.354471
  33 H     1.0000    0     1.008   -4.975656   -1.324414    1.694156
  34 C     6.0000    0    12.011   -8.675218    6.921682  -14.137098
  35 C     6.0000    0    12.011    8.376348    3.090472   -6.359566
  36 H     1.0000    0     1.008   -6.314419    3.938061    0.967133
  37 C     6.0000    0    12.011   -7.525302    4.621865    5.793704
  38 H     1.0000    0     1.008   -6.782368    0.601663    5.607112
  39 H     1.0000    0     1.008   -9.313183    1.583862    3.695440
  40 C     6.0000    0    12.011   -4.911679    5.576423    6.575458
  41 H     1.0000    0     1.008   -8.724270    4.437477    7.460551
  42 H     1.0000    0     1.008   -8.426194    6.037951    4.588657
  43 C     6.0000    0    12.011   -3.045466    5.725797    4.368566
  44 H     1.0000    0     1.008   -5.089409    7.421553    7.477733
  45 H     1.0000    0     1.008   -4.134378    4.305626    8.007622
  46 H     1.0000    0     1.008   -1.174855    6.278559    5.034751
  47 H     1.0000    0     1.008   -3.659434    7.170146    3.020804
  48 H     1.0000    0     1.008   -2.383703    1.772299    4.479499
  49 H     1.0000    0     1.008   -5.855798    6.977275  -11.290753
  50 C     6.0000    0    12.011   -8.848375    9.809080  -14.163733
  51 H     1.0000    0     1.008  -10.542425    6.096775  -14.475195
  52 H     1.0000    0     1.008   -7.438407    6.252259  -15.643749
  53 C     6.0000    0    12.011  -10.381204   10.872727  -11.956431
  54 H     1.0000    0     1.008   -9.659576   10.452736  -15.946317
  55 H     1.0000    0     1.008   -6.933895   10.582483  -14.088398
  56 C     6.0000    0    12.011   -9.476562    9.921767   -9.377088
  57 H     1.0000    0     1.008  -12.362350   10.336240  -12.196044
  58 H     1.0000    0     1.008  -10.331785   12.933101  -12.007873
  59 H     1.0000    0     1.008  -11.343122    6.405962   -9.862586
  60 H     1.0000    0     1.008  -10.706008   10.615060   -7.874974
  61 H     1.0000    0     1.008   -7.576978   10.641257   -8.985434
  62 H     1.0000    0     1.008    4.766103    4.236847   -5.053465
  63 C     6.0000    0    12.011    9.529256    5.672188   -5.748437
  64 H     1.0000    0     1.008    9.248977    2.310984   -8.066058
  65 H     1.0000    0     1.008    8.735774    1.752659   -4.833482
  66 C     6.0000    0    12.011    8.897305    7.690568   -7.718320
  67 H     1.0000    0     1.008   11.575094    5.505827   -5.556506
  68 H     1.0000    0     1.008    8.824868    6.286281   -3.905660
  69 C     6.0000    0    12.011    6.060042    7.928765   -8.237382
  70 H     1.0000    0     1.008    9.851635    7.220251   -9.489828
  71 H     1.0000    0     1.008    9.661476    9.508455   -7.117048
  72 H     1.0000    0     1.008    5.709331    9.285637   -9.748811
  73 H     1.0000    0     1.008    5.090520    8.635477   -6.552111
  74 H     1.0000    0     1.008    6.074892    4.676387  -10.582776

--------------------------------
INTERNAL COORDINATES (ANGSTROEM)
--------------------------------
 C      0   0   0     0.000000000000     0.00000000     0.00000000
 C      1   0   0     1.506452770302     0.00000000     0.00000000
 C      1   2   0     1.387182647684   121.61134219     0.00000000
 C      3   1   2     1.392592025132   120.61900007   177.99219473
 H      3   1   2     1.081354672690   118.96966281   355.94095954
 C      4   3   1     1.387164114387   119.37405412     0.48331154
 C      6   4   3     1.392579365281   120.62518909   359.50181468
 H      6   4   3     1.081343402703   118.97947112   177.45920363
 C      7   6   4     1.387134874259   119.37821705     0.52297225
 C      7   6   4     1.506465695066   118.99721908   182.03146190
 H      9   7   6     1.081338581019   118.97745739   177.43162108
 C      4   3   1     1.506477369935   119.01541005   181.98414929
 C      2   1   3     2.336833478857   132.69918815   285.94535407
 C     13   2   1     1.522349505154    70.70535700    84.78745881
 N     13   2   1     1.458324325206    38.31001396   297.44156204
 N     14  13   2     1.457766593630   103.39566099    20.48491988
 C     12   4   3     2.329544742675   119.45441567   149.58195786
 C     17  12   4     1.522322180000    71.22638021   237.25648206
 N     17  12   4     1.457817021119    37.99245288    90.87933196
 N     18  17  12     1.458304557051   103.49002073    20.10431305
 C     10   7   6     2.329459028592   119.41402454   149.37999025
 C     21  10   7     1.522345474899    71.23448320   237.30048114
 N     21  10   7     1.457823427365    37.99148228    90.95356072
 N     22  21  10     1.458278310386   103.49842074    20.07143717
 H     23  21  10     1.012646633077   108.58402497   115.74469824
 H     10   7   6     1.092190991319   108.88092172   311.12897881
 H     24  22  21     1.014703165804   108.61347395    83.01409860
 H      2   1   3     1.092203054445   108.87938561   132.57163765
 H     15  13   2     1.014713805963   108.59596685   114.50429410
 H     19  17  12     1.012641605816   108.59299923   115.75582507
 H     20  18  17     1.014720656952   108.61173228    82.94287784
 H     12   4   3     1.092183598078   108.87833275   311.32084832
 C     14  13   2     1.506316809456   111.80803068   148.83578423
 H     16  14  13     1.012629877858   108.59663524    83.18546699
 C     17  12   4     1.506288943750   150.70221414   135.89652534
 C     21  10   7     1.506292030705   150.70109539   135.93733326
 H     14  13   2     1.097138167408   107.09525729   266.98194113
 C     33  14  13     1.530769932279   107.98218238    57.57195696
 H     33  14  13     1.094940590965   109.69078708   297.66705065
 H     33  14  13     1.090651297587   111.44596081   179.34728207
 C     38  33  14     1.529436195776   113.09520522   307.04389564
 H     38  33  14     1.090914452269   110.06890548   183.97982286
 H     38  33  14     1.093368136302   108.52666370    68.12978644
 C     13   2   1     1.507980205038   150.38509766   345.39142680
 H     41  38  33     1.090951769813   109.63413405   176.25200553
 H     41  38  33     1.093518457353   108.93581064   292.10909925
 H     44  13   2     1.090738822141   111.62874268   267.61770817
 H     44  13   2     1.094714527410   109.57857749    25.98917786
 H     13   2   1     1.097963702489    98.90895572   190.04676175
 H     17  12   4     1.097116384920    98.12465200   342.60230574
 C     35  17  12     1.530755199544   107.97933280   147.88327462
 H     35  17  12     1.094929419861   109.69245957    27.98177485
 H     35  17  12     1.090647755761   111.44050986   269.65958762
 C     51  35  17     1.529412978423   113.08282301   307.04692037
 H     51  35  17     1.090919612562   110.06974131   183.99004714
 H     51  35  17     1.093370248020   108.53167437    68.13825608
 C     18  17  12     1.507972417506   111.29533826   148.42051247
 H     54  51  35     1.093512453188   108.92711683   292.13312595
 H     54  51  35     1.090956328119   109.63526306   176.27673007
 H     18  17  12     1.097967785699   107.27425400   266.36558680
 H     57  18  17     1.090739314926   111.63110424   179.40742381
 H     57  18  17     1.094703546876   109.57247425   297.78249441
 H     21  10   7     1.097116419813    98.12046825   342.66488544
 C     36  21  10     1.530771213570   107.98201673   147.90082683
 H     36  21  10     1.094923472725   109.69490614    27.99972727
 H     36  21  10     1.090652446898   111.43907674   269.67648273
 C     64  36  21     1.529464900248   113.08660181   307.06310585
 H     64  36  21     1.090922499964   110.06972593   184.00342187
 H     64  36  21     1.093375622405   108.53023178    68.15221349
 C     22  21  10     1.507966918268   111.28756883   148.39641396
 H     67  64  36     1.093514034966   108.92711463   292.09904354
 H     67  64  36     1.090952043287   109.63079047   176.24626792
 H     70  22  21     1.090736460682   111.63454668   179.41842515
 H     70  22  21     1.094713460334   109.57334708   297.79464721
 H     22  21  10     1.097964324238   107.27248090   266.32696960

---------------------------
INTERNAL COORDINATES (A.U.)
---------------------------
 C      0   0   0     0.000000000000     0.00000000     0.00000000
 C      1   0   0     2.846783169559     0.00000000     0.00000000
 C      1   2   0     2.621395301851   121.61134219     0.00000000
 C      3   1   2     2.631617543782   120.61900007   177.99219473
 H      3   1   2     2.043464185021   118.96966281   355.94095954
 C      4   3   1     2.621360278995   119.37405412     0.48331154
 C      6   4   3     2.631593620131   120.62518909   359.50181468
 H      6   4   3     2.043442887831   118.97947112   177.45920363
 C      7   6   4     2.621305023161   119.37821705     0.52297225
 C      7   6   4     2.846807593822   118.99721908   182.03146190
 H      9   7   6     2.043433776168   118.97745739   177.43162108
 C      4   3   1     2.846829656128   119.01541005   181.98414929
 C      2   1   3     4.415975295617   132.69918815   285.94535407
 C     13   2   1     2.876823644852    70.70535700    84.78745881
 N     13   2   1     2.755833589076    38.31001396   297.44156204
 N     14  13   2     2.754779629140   103.39566099    20.48491988
 C     12   4   3     4.402201580371   119.45441567   149.58195786
 C     17  12   4     2.876772007794    71.22638021   237.25648206
 N     17  12   4     2.754874923284    37.99245288    90.87933196
 N     18  17  12     2.755796232675   103.49002073    20.10431305
 C     10   7   6     4.402039604230   119.41402454   149.37999025
 C     21  10   7     2.876816028774    71.23448320   237.30048114
 N     21  10   7     2.754887029335    37.99148228    90.95356072
 N     22  21  10     2.755746633668   103.49842074    20.07143717
 H     23  21  10     1.913624806953   108.58402497   115.74469824
 H     10   7   6     2.063941859529   108.88092172   311.12897881
 H     24  22  21     1.917511090593   108.61347395    83.01409860
 H      2   1   3     2.063964655533   108.87938561   132.57163765
 H     15  13   2     1.917531197580   108.59596685   114.50429410
 H     19  17  12     1.913615306807   108.59299923   115.75582507
 H     20  18  17     1.917544144071   108.61173228    82.94287784
 H     12   4   3     2.063927888328   108.87833275   311.32084832
 C     14  13   2     2.846526240794   111.80803068   148.83578423
 H     16  14  13     1.913593144177   108.59663524    83.18546699
 C     17  12   4     2.846473582241   150.70221414   135.89652534
 C     21  10   7     2.846479415740   150.70109539   135.93733326
 H     14  13   2     2.073290667473   107.09525729   266.98194113
 C     33  14  13     2.892735946049   107.98218238    57.57195696
 H     33  14  13     2.069137849838   109.69078708   297.66705065
 H     33  14  13     2.061032260046   111.44596081   179.34728207
 C     38  33  14     2.890215549323   113.09520522   307.04389564
 H     38  33  14     2.061529550325   110.06890548   183.97982286
 H     38  33  14     2.066166341167   108.52666370    68.12978644
 C     13   2   1     2.849669602896   150.38509766   345.39142680
 H     41  38  33     2.061600070263   109.63413405   176.25200553
 H     41  38  33     2.066450406786   108.93581064   292.10909925
 H     44  13   2     2.061197657482   111.62874268   267.61770817
 H     44  13   2     2.068710651630   109.57857749    25.98917786
 H     13   2   1     2.074850702690    98.90895572   190.04676175
 H     17  12   4     2.073249504536    98.12465200   342.60230574
 C     35  17  12     2.892708105214   107.97933280   147.88327462
 H     35  17  12     2.069116739510   109.69245957    27.98177485
 H     35  17  12     2.061025566963   111.44050986   269.65958762
 C     51  35  17     2.890171674884   113.08282301   307.04692037
 H     51  35  17     2.061539301866   110.06974131   183.99004714
 H     51  35  17     2.066170331736   108.53167437    68.13825608
 C     18  17  12     2.849654886593   111.29533826   148.42051247
 H     54  51  35     2.066439060558   108.92711683   292.13312595
 H     54  51  35     2.061608684214   109.63526306   176.27673007
 H     18  17  12     2.074858418839   107.27425400   266.36558680
 H     57  18  17     2.061198588710   111.63110424   179.40742381
 H     57  18  17     2.068689901428   109.57247425   297.78249441
 H     21  10   7     2.073249570474    98.12046825   342.66488544
 C     36  21  10     2.892738367337   107.98201673   147.90082683
 H     36  21  10     2.069105501052   109.69490614    27.99972727
 H     36  21  10     2.061034431929   111.43907674   269.67648273
 C     64  36  21     2.890269792913   113.08660181   307.06310585
 H     64  36  21     2.061544758264   110.06972593   184.00342187
 H     64  36  21     2.066180487851   108.53023178    68.15221349
 C     22  21  10     2.849644494540   111.28756883   148.39641396
 H     67  64  36     2.066442049685   108.92711463   292.09904354
 H     67  64  36     2.061600587055   109.63079047   176.24626792
 H     70  22  21     2.061193194972   111.63454668   179.41842515
 H     70  22  21     2.068708635148   109.57334708   297.79464721
 H     22  21  10     2.074851877626   107.27248090   266.32696960

---------------------
BASIS SET INFORMATION
---------------------
There are 3 groups of distinct atoms

 Group   1 Type C   : 18s5p2d1f contracted to 4s3p2d1f pattern {8811/311/11/1}
 Group   2 Type H   : 5s2p1d contracted to 3s2p1d pattern {311/11/1}
 Group   3 Type N   : 18s5p2d1f contracted to 4s3p2d1f pattern {8811/311/11/1}

Atom   0C    basis set group =>   1
Atom   1C    basis set group =>   1
Atom   2C    basis set group =>   1
Atom   3C    basis set group =>   1
Atom   4H    basis set group =>   2
Atom   5C    basis set group =>   1
Atom   6C    basis set group =>   1
Atom   7H    basis set group =>   2
Atom   8C    basis set group =>   1
Atom   9C    basis set group =>   1
Atom  10H    basis set group =>   2
Atom  11C    basis set group =>   1
Atom  12C    basis set group =>   1
Atom  13C    basis set group =>   1
Atom  14N    basis set group =>   3
Atom  15N    basis set group =>   3
Atom  16C    basis set group =>   1
Atom  17C    basis set group =>   1
Atom  18N    basis set group =>   3
Atom  19N    basis set group =>   3
Atom  20C    basis set group =>   1
Atom  21C    basis set group =>   1
Atom  22N    basis set group =>   3
Atom  23N    basis set group =>   3
Atom  24H    basis set group =>   2
Atom  25H    basis set group =>   2
Atom  26H    basis set group =>   2
Atom  27H    basis set group =>   2
Atom  28H    basis set group =>   2
Atom  29H    basis set group =>   2
Atom  30H    basis set group =>   2
Atom  31H    basis set group =>   2
Atom  32C    basis set group =>   1
Atom  33H    basis set group =>   2
Atom  34C    basis set group =>   1
Atom  35C    basis set group =>   1
Atom  36H    basis set group =>   2
Atom  37C    basis set group =>   1
Atom  38H    basis set group =>   2
Atom  39H    basis set group =>   2
Atom  40C    basis set group =>   1
Atom  41H    basis set group =>   2
Atom  42H    basis set group =>   2
Atom  43C    basis set group =>   1
Atom  44H    basis set group =>   2
Atom  45H    basis set group =>   2
Atom  46H    basis set group =>   2
Atom  47H    basis set group =>   2
Atom  48H    basis set group =>   2
Atom  49H    basis set group =>   2
Atom  50C    basis set group =>   1
Atom  51H    basis set group =>   2
Atom  52H    basis set group =>   2
Atom  53C    basis set group =>   1
Atom  54H    basis set group =>   2
Atom  55H    basis set group =>   2
Atom  56C    basis set group =>   1
Atom  57H    basis set group =>   2
Atom  58H    basis set group =>   2
Atom  59H    basis set group =>   2
Atom  60H    basis set group =>   2
Atom  61H    basis set group =>   2
Atom  62H    basis set group =>   2
Atom  63C    basis set group =>   1
Atom  64H    basis set group =>   2
Atom  65H    basis set group =>   2
Atom  66C    basis set group =>   1
Atom  67H    basis set group =>   2
Atom  68H    basis set group =>   2
Atom  69C    basis set group =>   1
Atom  70H    basis set group =>   2
Atom  71H    basis set group =>   2
Atom  72H    basis set group =>   2
Atom  73H    basis set group =>   2
Atom  74H    basis set group =>   2

-------------------------
BASIS SET IN INPUT FORMAT
-------------------------

 # Basis set for element : H 
 NewGTO H 
 S 3 
   1      33.8700000000      0.0254948632
   2       5.0950000000      0.1903627659
   3       1.1590000000      0.8521620222
 S 1 
   1       0.3258000000      1.0000000000
 S 1 
   1       0.1027000000      1.0000000000
 P 1 
   1       1.4070000000      1.0000000000
 P 1 
   1       0.3880000000      1.0000000000
 D 1 
   1       1.0570000000      1.0000000000
  end;

 # Basis set for element : C 
 NewGTO C 
 S 8 
   1    8236.0000000000      0.0005424302
   2    1235.0000000000      0.0041964279
   3     280.8000000000      0.0215409141
   4      79.2700000000      0.0836149496
   5      25.5900000000      0.2398716189
   6       8.9970000000      0.4437518201
   7       3.3190000000      0.3535796965
   8       0.3643000000     -0.0091763661
 S 8 
   1    8236.0000000000     -0.0001963922
   2    1235.0000000000     -0.0015259503
   3     280.8000000000     -0.0078904490
   4      79.2700000000     -0.0315148705
   5      25.5900000000     -0.0969100083
   6       8.9970000000     -0.2205415263
   7       3.3190000000     -0.2960691129
   8       0.3643000000      1.0405034329
 S 1 
   1       0.9059000000      1.0000000000
 S 1 
   1       0.1285000000      1.0000000000
 P 3 
   1      18.7100000000      0.0394263872
   2       4.1330000000      0.2440889849
   3       1.2000000000      0.8154920089
 P 1 
   1       0.3827000000      1.0000000000
 P 1 
   1       0.1209000000      1.0000000000
 D 1 
   1       1.0970000000      1.0000000000
 D 1 
   1       0.3180000000      1.0000000000
 F 1 
   1       0.7610000000      1.0000000000
  end;

 # Basis set for element : N 
 NewGTO N 
 S 8 
   1   11420.0000000000      0.0005349809
   2    1712.0000000000      0.0041376631
   3     389.3000000000      0.0212509149
   4     110.0000000000      0.0825762988
   5      35.5700000000      0.2384132727
   6      12.5400000000      0.4434316661
   7       4.6440000000      0.3554319088
   8       0.5118000000     -0.0087029018
 S 8 
   1   11420.0000000000     -0.0001987770
   2    1712.0000000000     -0.0015470035
   3     389.3000000000     -0.0079925633
   4     110.0000000000     -0.0320255651
   5      35.5700000000     -0.0991102048
   6      12.5400000000     -0.2282927747
   7       4.6440000000     -0.2981827627
   8       0.5118000000      1.0370005182
 S 1 
   1       1.2930000000      1.0000000000
 S 1 
   1       0.1787000000      1.0000000000
 P 3 
   1      26.6300000000      0.0398072123
   2       5.9480000000      0.2490026605
   3       1.7420000000      0.8104797267
 P 1 
   1       0.5550000000      1.0000000000
 P 1 
   1       0.1725000000      1.0000000000
 D 1 
   1       1.6540000000      1.0000000000
 D 1 
   1       0.4690000000      1.0000000000
 F 1 
   1       1.0930000000      1.0000000000
  end;

---------------------------------
AUXILIARY/C BASIS SET INFORMATION
---------------------------------
There are 3 groups of distinct atoms

 Group   1 Type C   : 8s6p5d3f1g contracted to 8s6p5d3f1g pattern {11111111/111111/11111/111/1}
 Group   2 Type H   : 4s3p2d1f contracted to 4s3p2d1f pattern {1111/111/11/1}
 Group   3 Type N   : 8s6p5d3f1g contracted to 8s6p5d3f1g pattern {11111111/111111/11111/111/1}

Atom   0C    basis set group =>   1
Atom   1C    basis set group =>   1
Atom   2C    basis set group =>   1
Atom   3C    basis set group =>   1
Atom   4H    basis set group =>   2
Atom   5C    basis set group =>   1
Atom   6C    basis set group =>   1
Atom   7H    basis set group =>   2
Atom   8C    basis set group =>   1
Atom   9C    basis set group =>   1
Atom  10H    basis set group =>   2
Atom  11C    basis set group =>   1
Atom  12C    basis set group =>   1
Atom  13C    basis set group =>   1
Atom  14N    basis set group =>   3
Atom  15N    basis set group =>   3
Atom  16C    basis set group =>   1
Atom  17C    basis set group =>   1
Atom  18N    basis set group =>   3
Atom  19N    basis set group =>   3
Atom  20C    basis set group =>   1
Atom  21C    basis set group =>   1
Atom  22N    basis set group =>   3
Atom  23N    basis set group =>   3
Atom  24H    basis set group =>   2
Atom  25H    basis set group =>   2
Atom  26H    basis set group =>   2
Atom  27H    basis set group =>   2
Atom  28H    basis set group =>   2
Atom  29H    basis set group =>   2
Atom  30H    basis set group =>   2
Atom  31H    basis set group =>   2
Atom  32C    basis set group =>   1
Atom  33H    basis set group =>   2
Atom  34C    basis set group =>   1
Atom  35C    basis set group =>   1
Atom  36H    basis set group =>   2
Atom  37C    basis set group =>   1
Atom  38H    basis set group =>   2
Atom  39H    basis set group =>   2
Atom  40C    basis set group =>   1
Atom  41H    basis set group =>   2
Atom  42H    basis set group =>   2
Atom  43C    basis set group =>   1
Atom  44H    basis set group =>   2
Atom  45H    basis set group =>   2
Atom  46H    basis set group =>   2
Atom  47H    basis set group =>   2
Atom  48H    basis set group =>   2
Atom  49H    basis set group =>   2
Atom  50C    basis set group =>   1
Atom  51H    basis set group =>   2
Atom  52H    basis set group =>   2
Atom  53C    basis set group =>   1
Atom  54H    basis set group =>   2
Atom  55H    basis set group =>   2
Atom  56C    basis set group =>   1
Atom  57H    basis set group =>   2
Atom  58H    basis set group =>   2
Atom  59H    basis set group =>   2
Atom  60H    basis set group =>   2
Atom  61H    basis set group =>   2
Atom  62H    basis set group =>   2
Atom  63C    basis set group =>   1
Atom  64H    basis set group =>   2
Atom  65H    basis set group =>   2
Atom  66C    basis set group =>   1
Atom  67H    basis set group =>   2
Atom  68H    basis set group =>   2
Atom  69C    basis set group =>   1
Atom  70H    basis set group =>   2
Atom  71H    basis set group =>   2
Atom  72H    basis set group =>   2
Atom  73H    basis set group =>   2
Atom  74H    basis set group =>   2

-------------------------------------
AUXILIARY/C BASIS SET IN INPUT FORMAT
-------------------------------------

 # Auxiliary/C basis set for element : H 
 NewAuxCGTO H 
 S 1 
   1       8.5128275910      1.0000000000
 S 1 
   1       1.8730891166      1.0000000000
 S 1 
   1       0.5261842694      1.0000000000
 S 1 
   1       0.2897398994      1.0000000000
 P 1 
   1       2.3725491635      1.0000000000
 P 1 
   1       1.1804084468      1.0000000000
 P 1 
   1       0.6038220424      1.0000000000
 D 1 
   1       1.8096373189      1.0000000000
 D 1 
   1       1.1439726055      1.0000000000
 F 1 
   1       1.8063060576      1.0000000000
  end;

 # Auxiliary/C basis set for element : C 
 NewAuxCGTO C 
 S 1 
   1     280.5566118800      1.0000000000
 S 1 
   1      60.2302471910      1.0000000000
 S 1 
   1      22.1166508240      1.0000000000
 S 1 
   1       6.8620932896      1.0000000000
 S 1 
   1       1.5622549539      1.0000000000
 S 1 
   1       0.9124504549      1.0000000000
 S 1 
   1       0.5027491704      1.0000000000
 S 1 
   1       0.2158234875      1.0000000000
 P 1 
   1      24.2318651760      1.0000000000
 P 1 
   1       6.4764514185      1.0000000000
 P 1 
   1       2.1290884677      1.0000000000
 P 1 
   1       1.0375639746      1.0000000000
 P 1 
   1       0.5494127505      1.0000000000
 P 1 
   1       0.2815265223      1.0000000000
 D 1 
   1       9.7189810815      1.0000000000
 D 1 
   1       3.0351475003      1.0000000000
 D 1 
   1       1.4677737562      1.0000000000
 D 1 
   1       0.5737082791      1.0000000000
 D 1 
   1       0.2905558967      1.0000000000
 F 1 
   1       2.2756201303      1.0000000000
 F 1 
   1       1.1968898852      1.0000000000
 F 1 
   1       0.5415748722      1.0000000000
 G 1 
   1       1.2166101638      1.0000000000
  end;

 # Auxiliary/C basis set for element : N 
 NewAuxCGTO N 
 S 1 
   1     287.5092694700      1.0000000000
 S 1 
   1      64.2760308980      1.0000000000
 S 1 
   1      21.6819240160      1.0000000000
 S 1 
   1       7.9068743193      1.0000000000
 S 1 
   1       2.4319673913      1.0000000000
 S 1 
   1       1.2226681474      1.0000000000
 S 1 
   1       0.7667482736      1.0000000000
 S 1 
   1       0.3115884699      1.0000000000
 P 1 
   1      34.9650273710      1.0000000000
 P 1 
   1      10.3238966480      1.0000000000
 P 1 
   1       2.8981582643      1.0000000000
 P 1 
   1       1.4077404555      1.0000000000
 P 1 
   1       0.8508338654      1.0000000000
 P 1 
   1       0.3735327414      1.0000000000
 D 1 
   1      13.9086370890      1.0000000000
 D 1 
   1       4.5847232531      1.0000000000
 D 1 
   1       2.2101848651      1.0000000000
 D 1 
   1       0.8376830121      1.0000000000
 D 1 
   1       0.4194837561      1.0000000000
 F 1 
   1       3.4730665788      1.0000000000
 F 1 
   1       1.5589463548      1.0000000000
 F 1 
   1       0.8467763824      1.0000000000
 G 1 
   1       1.7764066281      1.0000000000
  end;



           ************************************************************
           *        Program running with 32 parallel MPI-processes    *
           *              working on a common directory               *
           ************************************************************
------------------------------------------------------------------------------
                           ORCA GTO INTEGRAL CALCULATION
------------------------------------------------------------------------------

                         BASIS SET STATISTICS AND STARTUP INFO

 # of primitive gaussian shells          ... 1194
 # of primitive gaussian functions       ... 2322
 # of contracted shells                  ...  582
 # of contracted basis functions         ... 1578
 Highest angular momentum                ...    3
 Maximum contraction depth               ...    8
 Integral package used                   ... LIBINT
 Integral threshhold            Thresh   ...  2.500e-11
 Primitive cut-off              TCut     ...  2.500e-12


------------------------------ INTEGRAL EVALUATION ----------------------------


 * One electron integrals 
 Pre-screening matrix                    ... done
 Shell pair data                         ... done (   0.029 sec)



           ************************************************************
           *        Program running with 32 parallel MPI-processes    *
           *              working on a common directory               *
           ************************************************************
-------------------------------------------------------------------------------
                                 ORCA SCF
-------------------------------------------------------------------------------

------------
SCF SETTINGS
------------
Hamiltonian:
 Ab initio Hamiltonian  Method          .... Hartree-Fock(GTOs)


General Settings:
 Integral files         IntName         .... _o_1_alde1_3_ami3_1_opt_MP2
 Hartree-Fock type      HFTyp           .... RHF
 Total Charge           Charge          ....    0
 Multiplicity           Mult            ....    1
 Number of Electrons    NEL             ....  246
 Basis Dimension        Dim             .... 1578
 Nuclear Repulsion      ENuc            ....   3496.4247007656 Eh

Convergence Acceleration:
 DIIS                   CNVDIIS         .... on
   Start iteration      DIISMaxIt       ....     0
   Startup error        DIISStart       ....  0.200000
   # of expansion vecs  DIISMaxEq       ....     5
   Bias factor          DIISBfac        ....   1.050
   Max. coefficient     DIISMaxC        ....  10.000
 Newton-Raphson         CNVNR           .... off
 SOSCF                  CNVSOSCF        .... on
   Start iteration      SOSCFMaxIt      ....   150
   Startup grad/error   SOSCFStart      ....  0.001000
 Level Shifting         CNVShift        .... on
   Level shift para.    LevelShift      ....    0.2500
   Turn off err/grad.   ShiftErr        ....    0.0000
 Zerner damping         CNVZerner       .... off
 Static damping         CNVDamp         .... on
   Fraction old density DampFac         ....    0.8500
   Max. Damping (<1)    DampMax         ....    0.9800
   Min. Damping (>=0)   DampMin         ....    0.0000
   Turn off err/grad.   DampErr         ....    0.0300
 Fernandez-Rico         CNVRico         .... off

SCF Procedure:
 Maximum # iterations   MaxIter         ....   125
 SCF integral mode      SCFMode         .... Direct
   Integral package                     .... LIBINT
 Reset frequency        DirectResetFreq ....    20
 Integral Threshold     Thresh          ....  2.500e-11 Eh
 Primitive CutOff       TCut            ....  2.500e-12 Eh

Convergence Tolerance:
 Convergence Check Mode ConvCheckMode   .... Total+1el-Energy
 Convergence forced     ConvForced      .... 1
 Energy Change          TolE            ....  1.000e-08 Eh
 1-El. energy change                    ....  1.000e-05 Eh
 Orbital Gradient       TolG            ....  1.000e-05
 Orbital Rotation angle TolX            ....  1.000e-05
 DIIS Error             TolErr          ....  5.000e-07


Diagonalization of the overlap matrix:
Smallest eigenvalue                        ... 2.104e-05
Time for diagonalization                   ...    2.989 sec
Threshold for overlap eigenvalues          ... 1.000e-08
Number of eigenvalues below threshold      ... 0
Time for construction of square roots      ...    0.278 sec
Total time needed                          ...    3.272 sec

-------------------
DFT GRID GENERATION
-------------------

General Integration Accuracy     IntAcc      ...  5.340
Radial Grid Type                 RadialGrid  ... Gauss-Chebyshev
Angular Grid (max. acc.)         AngularGrid ... Lebedev-590
Angular grid pruning method      GridPruning ... 3 (G Style)
Weight generation scheme         WeightScheme... Becke
Basis function cutoff            BFCut       ...    1.0000e-11
Integration weight cutoff        WCut        ...    1.0000e-14
Grids for H and He will be reduced by one unit

# of grid points (after initial pruning)     ... 1006764 (   0.0 sec)
# of grid points (after weights+screening)   ... 839343 (   1.0 sec)
nearest neighbour list constructed           ...    0.0 sec
Grid point re-assignment to atoms done       ...    0.1 sec
Grid point division into batches done        ...    8.1 sec
Reduced shell lists constructed in    8.7 sec

Total number of grid points                  ...   839343
Total number of batches                      ...    13147
Average number of points per batch           ...       63
Average number of grid points per atom       ...    11191
Average number of shells per batch           ...   225.37 (38.72%)
Average number of basis functions per batch  ...   538.20 (34.11%)
Average number of large shells per batch     ...   131.32 (58.27%)
Average number of large basis fcns per batch ...   328.17 (60.98%)
Maximum spatial batch extension              ...   6.23, 21.71,  8.43 au
Average spatial batch extension              ...   0.03,  0.03,  0.03 au

Time for grid setup =   10.024 sec

------------------------------
INITIAL GUESS: MODEL POTENTIAL
------------------------------
Loading Hartree-Fock densities                     ... done
Calculating cut-offs                               ... done
Setting up the integral package                    ... done
Initializing the effective Hamiltonian             ... done
Starting the Coulomb interaction                   ... done (   0.4 sec)
Reading the grid                                   ... done
Mapping shells                                     ... done
Starting the XC term evaluation                    ... done (   0.6 sec)
Transforming the Hamiltonian                       ... done (   0.2 sec)
Diagonalizing the Hamiltonian                      ... done (   0.4 sec)
Back transforming the eigenvectors                 ... done (   0.1 sec)
Now organizing SCF variables                       ... done
                      ------------------
                      INITIAL GUESS DONE (  11.8 sec)
                      ------------------
--------------
SCF ITERATIONS
--------------
ITER       Energy         Delta-E        Max-DP      RMS-DP      [F,P]     Damp
               ***  Starting incremental Fock matrix formation  ***
  0  -1372.4838920510   0.000000000000 0.03124780  0.00018950  0.2466249 0.8500
  1  -1372.7574046105  -0.273512559542 0.04237546  0.00020904  0.2009425 0.8500
                               ***Turning on DIIS***
  2  -1372.9764728479  -0.219068237379 0.03635129  0.00017847  0.1588222 0.8500
  3  -1378.5301632612  -5.553690413275 0.02082554  0.00012375  0.1249091 0.8500
  4  -1380.7557160270  -2.225552765835 0.01046563  0.00008889  0.1022872 0.8500
  5  -1380.6400768435   0.115639183516 0.00714631  0.00007056  0.0878638 0.8500
  6  -1379.9558528500   0.684223993506 0.00612824  0.00005905  0.0750971 0.8500
  7  -1378.8866205381   1.069232311852 0.00524204  0.00005075  0.0640252 0.8500
  8  -1378.0441304962   0.842490041880 0.00446873  0.00004367  0.0545626 0.8500
  9  -1377.4063638886   0.637766607612 0.00380185  0.00003741  0.0464971 0.8500
 10  -1376.8926446232   0.513719265406 0.00323290  0.00003195  0.0396240 0.8500
 11  -1376.4595173040   0.433127319206 0.00274952  0.00002727  0.0337665 0.8500
 12  -1376.0878447398   0.371672564227 0.01559424  0.00015520  0.0287744 0.0000
                      *** Initiating the SOSCF procedure ***
                           *** Shutting down DIIS ***
                      *** Re-Reading the Fockian *** 
                      *** Removing any level shift *** 
ITER      Energy       Delta-E        Grad      Rot      Max-DP    RMS-DP
 13  -1374.01840224   2.0694425047  0.000259  0.000259  0.002218  0.000010
               *** Restarting incremental Fock matrix formation ***
 14  -1374.02248703  -0.0040847984  0.000123  0.000277  0.001184  0.000006
 15  -1374.02249548  -0.0000084500  0.000079  0.000292  0.001151  0.000005
 16  -1374.02249698  -0.0000015013  0.000029  0.000059  0.000112  0.000001
 17  -1374.02249712  -0.0000001397  0.000021  0.000059  0.000022  0.000000
 18  -1374.02249712   0.0000000065  0.000012  0.000071  0.000036  0.000000
                  ***Gradient check signals convergence***
              ***Rediagonalizing the Fockian in SOSCF/NRSCF***

               *****************************************************
               *                     SUCCESS                       *
               *           SCF CONVERGED AFTER  19 CYCLES          *
               *****************************************************


----------------
TOTAL SCF ENERGY
----------------

Total Energy       :        -1374.02249708 Eh          -37389.05297 eV

Components:
Nuclear Repulsion  :         3496.42470077 Eh           95142.55306 eV
Electronic Energy  :        -4870.44719784 Eh         -132531.60603 eV
One Electron Energy:        -8825.73042104 Eh         -240160.33427 eV
Two Electron Energy:         3955.28322320 Eh          107628.72824 eV

Virial components:
Potential Energy   :        -2746.88996226 Eh          -74746.67592 eV
Kinetic Energy     :         1372.86746518 Eh           37357.62295 eV
Virial Ratio       :            2.00084133


---------------
SCF CONVERGENCE
---------------

  Last Energy change         ...    4.2679e-08  Tolerance :   1.0000e-08
  Last MAX-Density change    ...    3.3669e-06  Tolerance :   1.0000e-07
  Last RMS-Density change    ...    4.1126e-08  Tolerance :   5.0000e-09
  Last Orbital Gradient      ...    1.2714e-06  Tolerance :   1.0000e-05
  Last Orbital Rotation      ...    6.9544e-06  Tolerance :   1.0000e-05

             **** THE GBW FILE WAS UPDATED (_o_1_alde1_3_ami3_1_opt_MP2.gbw) ****
             **** DENSITY FILE WAS UPDATED (_o_1_alde1_3_ami3_1_opt_MP2.scfp) ****
             **** ENERGY FILE WAS UPDATED (_o_1_alde1_3_ami3_1_opt_MP2.en.tmp) ****
             **** THE GBW FILE WAS UPDATED (_o_1_alde1_3_ami3_1_opt_MP2.gbw) ****
             **** DENSITY FILE WAS UPDATED (_o_1_alde1_3_ami3_1_opt_MP2.scfp) ****
----------------
ORBITAL ENERGIES
----------------

  NO   OCC          E(Eh)            E(eV) 
   0   2.0000     -15.535146      -422.7328 
   1   2.0000     -15.535133      -422.7325 
   2   2.0000     -15.535118      -422.7321 
   3   2.0000     -15.534046      -422.7029 
   4   2.0000     -15.534008      -422.7018 
   5   2.0000     -15.534003      -422.7017 
   6   2.0000     -11.276342      -306.8449 
   7   2.0000     -11.276334      -306.8447 
   8   2.0000     -11.276325      -306.8444 
   9   2.0000     -11.237713      -305.7937 
  10   2.0000     -11.237694      -305.7932 
  11   2.0000     -11.237689      -305.7931 
  12   2.0000     -11.237051      -305.7757 
  13   2.0000     -11.237032      -305.7752 
  14   2.0000     -11.237027      -305.7750 
  15   2.0000     -11.220872      -305.3354 
  16   2.0000     -11.220795      -305.3334 
  17   2.0000     -11.220792      -305.3333 
  18   2.0000     -11.219621      -305.3014 
  19   2.0000     -11.219615      -305.3013 
  20   2.0000     -11.219601      -305.3009 
  21   2.0000     -11.218972      -305.2838 
  22   2.0000     -11.218963      -305.2835 
  23   2.0000     -11.218951      -305.2832 
  24   2.0000     -11.217377      -305.2404 
  25   2.0000     -11.217377      -305.2403 
  26   2.0000     -11.217358      -305.2398 
  27   2.0000     -11.217204      -305.2356 
  28   2.0000     -11.217182      -305.2350 
  29   2.0000     -11.217182      -305.2350 
  30   2.0000     -11.208664      -305.0033 
  31   2.0000     -11.208655      -305.0030 
  32   2.0000     -11.208548      -305.0001 
  33   2.0000      -1.267494       -34.4903 
  34   2.0000      -1.265864       -34.4459 
  35   2.0000      -1.265848       -34.4455 
  36   2.0000      -1.148159       -31.2430 
  37   2.0000      -1.137433       -30.9511 
  38   2.0000      -1.137409       -30.9505 
  39   2.0000      -1.136861       -30.9355 
  40   2.0000      -1.110937       -30.2301 
  41   2.0000      -1.110924       -30.2298 
  42   2.0000      -1.102424       -29.9985 
  43   2.0000      -1.032417       -28.0935 
  44   2.0000      -1.032404       -28.0931 
  45   2.0000      -0.998606       -27.1734 
  46   2.0000      -0.998589       -27.1730 
  47   2.0000      -0.998559       -27.1722 
  48   2.0000      -0.984512       -26.7899 
  49   2.0000      -0.966399       -26.2971 
  50   2.0000      -0.966392       -26.2969 
  51   2.0000      -0.867584       -23.6082 
  52   2.0000      -0.867566       -23.6077 
  53   2.0000      -0.858965       -23.3736 
  54   2.0000      -0.825687       -22.4681 
  55   2.0000      -0.825669       -22.4676 
  56   2.0000      -0.820090       -22.3158 
  57   2.0000      -0.816376       -22.2147 
  58   2.0000      -0.816233       -22.2108 
  59   2.0000      -0.816224       -22.2106 
  60   2.0000      -0.778695       -21.1894 
  61   2.0000      -0.778673       -21.1888 
  62   2.0000      -0.776674       -21.1344 
  63   2.0000      -0.755052       -20.5460 
  64   2.0000      -0.755032       -20.5455 
  65   2.0000      -0.684978       -18.6392 
  66   2.0000      -0.676302       -18.4031 
  67   2.0000      -0.664769       -18.0893 
  68   2.0000      -0.664751       -18.0888 
  69   2.0000      -0.654905       -17.8209 
  70   2.0000      -0.644655       -17.5419 
  71   2.0000      -0.644614       -17.5408 
  72   2.0000      -0.630905       -17.1678 
  73   2.0000      -0.626220       -17.0403 
  74   2.0000      -0.626208       -17.0400 
  75   2.0000      -0.623455       -16.9651 
  76   2.0000      -0.617715       -16.8089 
  77   2.0000      -0.617694       -16.8083 
  78   2.0000      -0.608087       -16.5469 
  79   2.0000      -0.601934       -16.3794 
  80   2.0000      -0.595000       -16.1908 
  81   2.0000      -0.594980       -16.1902 
  82   2.0000      -0.580966       -15.8089 
  83   2.0000      -0.580960       -15.8087 
  84   2.0000      -0.577992       -15.7280 
  85   2.0000      -0.552951       -15.0465 
  86   2.0000      -0.552938       -15.0462 
  87   2.0000      -0.551380       -15.0038 
  88   2.0000      -0.545837       -14.8530 
  89   2.0000      -0.545816       -14.8524 
  90   2.0000      -0.541490       -14.7347 
  91   2.0000      -0.530727       -14.4418 
  92   2.0000      -0.527009       -14.3406 
  93   2.0000      -0.526973       -14.3397 
  94   2.0000      -0.507811       -13.8182 
  95   2.0000      -0.501664       -13.6510 
  96   2.0000      -0.501614       -13.6496 
  97   2.0000      -0.495691       -13.4884 
  98   2.0000      -0.495664       -13.4877 
  99   2.0000      -0.493014       -13.4156 
 100   2.0000      -0.486321       -13.2335 
 101   2.0000      -0.486264       -13.2319 
 102   2.0000      -0.486252       -13.2316 
 103   2.0000      -0.467781       -12.7290 
 104   2.0000      -0.467768       -12.7286 
 105   2.0000      -0.466549       -12.6955 
 106   2.0000      -0.462129       -12.5752 
 107   2.0000      -0.462121       -12.5749 
 108   2.0000      -0.460412       -12.5284 
 109   2.0000      -0.452303       -12.3078 
 110   2.0000      -0.452297       -12.3076 
 111   2.0000      -0.451656       -12.2902 
 112   2.0000      -0.449508       -12.2317 
 113   2.0000      -0.449490       -12.2312 
 114   2.0000      -0.446003       -12.1364 
 115   2.0000      -0.378607       -10.3024 
 116   2.0000      -0.378600       -10.3022 
 117   2.0000      -0.374774       -10.1981 
 118   2.0000      -0.372323       -10.1314 
 119   2.0000      -0.366082        -9.9616 
 120   2.0000      -0.366062        -9.9610 
 121   2.0000      -0.311476        -8.4757 
 122   2.0000      -0.311456        -8.4751 
 123   0.0000       0.130726         3.5572 
 124   0.0000       0.132974         3.6184 
 125   0.0000       0.133048         3.6204 
 126   0.0000       0.141744         3.8571 
 127   0.0000       0.142589         3.8801 
 128   0.0000       0.142595         3.8802 
 129   0.0000       0.145718         3.9652 
 130   0.0000       0.145761         3.9664 
 131   0.0000       0.151650         4.1266 
 132   0.0000       0.162955         4.4342 
 133   0.0000       0.162978         4.4348 
 134   0.0000       0.165506         4.5036 
 135   0.0000       0.172993         4.7074 
 136   0.0000       0.173062         4.7093 
 137   0.0000       0.181132         4.9289 
 138   0.0000       0.188415         5.1270 
 139   0.0000       0.188446         5.1279 
 140   0.0000       0.199487         5.4283 
 141   0.0000       0.199554         5.4301 
 142   0.0000       0.199568         5.4305 
 143   0.0000       0.202230         5.5030 
 144   0.0000       0.210920         5.7394 
 145   0.0000       0.210956         5.7404 
 146   0.0000       0.214432         5.8350 
 147   0.0000       0.216228         5.8839 
 148   0.0000       0.216255         5.8846 
 149   0.0000       0.218236         5.9385 
 150   0.0000       0.230783         6.2799 
 151   0.0000       0.230849         6.2817 
 152   0.0000       0.237314         6.4577 
 153   0.0000       0.241196         6.5633 
 154   0.0000       0.241205         6.5635 
 155   0.0000       0.243603         6.6288 
 156   0.0000       0.244919         6.6646 
 157   0.0000       0.244949         6.6654 
 158   0.0000       0.251383         6.8405 
 159   0.0000       0.254652         6.9294 
 160   0.0000       0.254677         6.9301 
 161   0.0000       0.261498         7.1157 
 162   0.0000       0.272738         7.4216 
 163   0.0000       0.272797         7.4232 
 164   0.0000       0.285653         7.7730 
 165   0.0000       0.290961         7.9174 
 166   0.0000       0.291005         7.9186 
 167   0.0000       0.307719         8.3734 
 168   0.0000       0.318644         8.6707 
 169   0.0000       0.318713         8.6726 
 170   0.0000       0.321603         8.7513 
 171   0.0000       0.336980         9.1697 
 172   0.0000       0.337023         9.1709 
 173   0.0000       0.337648         9.1879 
 174   0.0000       0.342289         9.3142 
 175   0.0000       0.345523         9.4022 
 176   0.0000       0.345533         9.4024 
 177   0.0000       0.346954         9.4411 
 178   0.0000       0.352634         9.5957 
 179   0.0000       0.352651         9.5961 
 180   0.0000       0.361642         9.8408 
 181   0.0000       0.361645         9.8409 
 182   0.0000       0.363113         9.8808 
 183   0.0000       0.379672        10.3314 
 184   0.0000       0.379690        10.3319 
 185   0.0000       0.380434        10.3521 
 186   0.0000       0.386893        10.5279 
 187   0.0000       0.386998        10.5308 
 188   0.0000       0.388616        10.5748 
 189   0.0000       0.391168        10.6442 
 190   0.0000       0.392363        10.6767 
 191   0.0000       0.392427        10.6785 
 192   0.0000       0.401349        10.9213 
 193   0.0000       0.406917        11.0728 
 194   0.0000       0.406952        11.0737 
 195   0.0000       0.414558        11.2807 
 196   0.0000       0.415162        11.2971 
 197   0.0000       0.417126        11.3506 
 198   0.0000       0.417178        11.3520 
 199   0.0000       0.425766        11.5857 
 200   0.0000       0.425770        11.5858 
 201   0.0000       0.437166        11.8959 
 202   0.0000       0.437221        11.8974 
 203   0.0000       0.445967        12.1354 
 204   0.0000       0.446354        12.1459 
 205   0.0000       0.446403        12.1472 
 206   0.0000       0.447349        12.1730 
 207   0.0000       0.459873        12.5138 
 208   0.0000       0.462802        12.5935 
 209   0.0000       0.462836        12.5944 
 210   0.0000       0.463912        12.6237 
 211   0.0000       0.477235        12.9862 
 212   0.0000       0.477278        12.9874 
 213   0.0000       0.482251        13.1227 
 214   0.0000       0.494111        13.4455 
 215   0.0000       0.494181        13.4474 
 216   0.0000       0.501019        13.6334 
 217   0.0000       0.503450        13.6996 
 218   0.0000       0.503498        13.7009 
 219   0.0000       0.514971        14.0131 
 220   0.0000       0.518229        14.1017 
 221   0.0000       0.518240        14.1020 
 222   0.0000       0.526327        14.3221 
 223   0.0000       0.533469        14.5164 
 224   0.0000       0.533580        14.5195 
 225   0.0000       0.535131        14.5617 
 226   0.0000       0.540895        14.7185 
 227   0.0000       0.547152        14.8888 
 228   0.0000       0.547219        14.8906 
 229   0.0000       0.553624        15.0649 
 230   0.0000       0.553678        15.0664 
 231   0.0000       0.555820        15.1246 
 232   0.0000       0.562100        15.2955 
 233   0.0000       0.562353        15.3024 
 234   0.0000       0.564125        15.3506 
 235   0.0000       0.572286        15.5727 
 236   0.0000       0.575862        15.6700 
 237   0.0000       0.575880        15.6705 
 238   0.0000       0.580930        15.8079 
 239   0.0000       0.583115        15.8674 
 240   0.0000       0.583150        15.8683 
 241   0.0000       0.587250        15.9799 
 242   0.0000       0.587352        15.9827 
 243   0.0000       0.591426        16.0935 
 244   0.0000       0.591728        16.1017 
 245   0.0000       0.595407        16.2019 
 246   0.0000       0.595425        16.2023 
 247   0.0000       0.600250        16.3336 
 248   0.0000       0.600255        16.3338 
 249   0.0000       0.601810        16.3761 
 250   0.0000       0.607142        16.5212 
 251   0.0000       0.607194        16.5226 
 252   0.0000       0.607958        16.5434 
 253   0.0000       0.611448        16.6383 
 254   0.0000       0.612545        16.6682 
 255   0.0000       0.612580        16.6692 
 256   0.0000       0.616498        16.7758 
 257   0.0000       0.618766        16.8375 
 258   0.0000       0.618818        16.8389 
 259   0.0000       0.625331        17.0161 
 260   0.0000       0.626404        17.0453 
 261   0.0000       0.626462        17.0469 
 262   0.0000       0.631786        17.1918 
 263   0.0000       0.631804        17.1923 
 264   0.0000       0.632377        17.2078 
 265   0.0000       0.635422        17.2907 
 266   0.0000       0.636692        17.3253 
 267   0.0000       0.640064        17.4170 
 268   0.0000       0.640098        17.4180 
 269   0.0000       0.645213        17.5571 
 270   0.0000       0.645217        17.5572 
 271   0.0000       0.647563        17.6211 
 272   0.0000       0.647603        17.6222 
 273   0.0000       0.647744        17.6260 
 274   0.0000       0.654752        17.8167 
 275   0.0000       0.655154        17.8276 
 276   0.0000       0.655195        17.8288 
 277   0.0000       0.666923        18.1479 
 278   0.0000       0.666966        18.1491 
 279   0.0000       0.671670        18.2771 
 280   0.0000       0.672817        18.3083 
 281   0.0000       0.672840        18.3089 
 282   0.0000       0.678455        18.4617 
 283   0.0000       0.685657        18.6577 
 284   0.0000       0.688516        18.7355 
 285   0.0000       0.688558        18.7366 
 286   0.0000       0.690550        18.7908 
 287   0.0000       0.690651        18.7936 
 288   0.0000       0.694248        18.8914 
 289   0.0000       0.696697        18.9581 
 290   0.0000       0.696765        18.9599 
 291   0.0000       0.703186        19.1347 
 292   0.0000       0.705184        19.1890 
 293   0.0000       0.705251        19.1908 
 294   0.0000       0.707872        19.2622 
 295   0.0000       0.711835        19.3700 
 296   0.0000       0.718185        19.5428 
 297   0.0000       0.718620        19.5546 
 298   0.0000       0.718638        19.5551 
 299   0.0000       0.723175        19.6786 
 300   0.0000       0.723344        19.6832 
 301   0.0000       0.730995        19.8914 
 302   0.0000       0.733430        19.9576 
 303   0.0000       0.733512        19.9599 
 304   0.0000       0.744919        20.2703 
 305   0.0000       0.744939        20.2708 
 306   0.0000       0.747336        20.3360 
 307   0.0000       0.752827        20.4855 
 308   0.0000       0.756172        20.5765 
 309   0.0000       0.756608        20.5883 
 310   0.0000       0.756685        20.5904 
 311   0.0000       0.766749        20.8643 
 312   0.0000       0.766845        20.8669 
 313   0.0000       0.775717        21.1083 
 314   0.0000       0.776468        21.1288 
 315   0.0000       0.776648        21.1337 
 316   0.0000       0.785400        21.3718 
 317   0.0000       0.789016        21.4702 
 318   0.0000       0.789163        21.4742 
 319   0.0000       0.797597        21.7037 
 320   0.0000       0.797783        21.7088 
 321   0.0000       0.812993        22.1227 
 322   0.0000       0.813081        22.1251 
 323   0.0000       0.814512        22.1640 
 324   0.0000       0.819108        22.2891 
 325   0.0000       0.819200        22.2916 
 326   0.0000       0.823188        22.4001 
 327   0.0000       0.833404        22.6781 
 328   0.0000       0.837519        22.7901 
 329   0.0000       0.837567        22.7913 
 330   0.0000       0.848123        23.0786 
 331   0.0000       0.848238        23.0817 
 332   0.0000       0.855107        23.2686 
 333   0.0000       0.863533        23.4979 
 334   0.0000       0.877992        23.8914 
 335   0.0000       0.878165        23.8961 
 336   0.0000       0.886516        24.1233 
 337   0.0000       0.886641        24.1267 
 338   0.0000       0.894940        24.3525 
 339   0.0000       0.901420        24.5289 
 340   0.0000       0.902756        24.5652 
 341   0.0000       0.902835        24.5674 
 342   0.0000       0.921812        25.0838 
 343   0.0000       0.921883        25.0857 
 344   0.0000       0.931510        25.3477 
 345   0.0000       0.935319        25.4513 
 346   0.0000       0.940569        25.5942 
 347   0.0000       0.940605        25.5952 
 348   0.0000       0.948832        25.8190 
 349   0.0000       0.953775        25.9535 
 350   0.0000       0.953849        25.9555 
 351   0.0000       0.962167        26.1819 
 352   0.0000       0.962395        26.1881 
 353   0.0000       0.963693        26.2234 
 354   0.0000       0.970203        26.4006 
 355   0.0000       0.977381        26.5959 
 356   0.0000       0.977412        26.5967 
 357   0.0000       0.983236        26.7552 
 358   0.0000       0.991323        26.9753 
 359   0.0000       0.992740        27.0138 
 360   0.0000       0.992791        27.0152 
 361   0.0000       1.005192        27.3527 
 362   0.0000       1.005261        27.3545 
 363   0.0000       1.006103        27.3774 
 364   0.0000       1.019583        27.7443 
 365   0.0000       1.019636        27.7457 
 366   0.0000       1.022419        27.8214 
 367   0.0000       1.023196        27.8426 
 368   0.0000       1.023339        27.8465 
 369   0.0000       1.027947        27.9719 
 370   0.0000       1.029658        28.0184 
 371   0.0000       1.035793        28.1854 
 372   0.0000       1.035897        28.1882 
 373   0.0000       1.041920        28.3521 
 374   0.0000       1.041997        28.3542 
 375   0.0000       1.050206        28.5776 
 376   0.0000       1.058097        28.7923 
 377   0.0000       1.058166        28.7942 
 378   0.0000       1.063570        28.9412 
 379   0.0000       1.073594        29.2140 
 380   0.0000       1.088859        29.6294 
 381   0.0000       1.088953        29.6319 
 382   0.0000       1.092783        29.7361 
 383   0.0000       1.098111        29.8811 
 384   0.0000       1.098206        29.8837 
 385   0.0000       1.105707        30.0878 
 386   0.0000       1.105809        30.0906 
 387   0.0000       1.110154        30.2088 
 388   0.0000       1.113278        30.2938 
 389   0.0000       1.119050        30.4509 
 390   0.0000       1.119171        30.4542 
 391   0.0000       1.122824        30.5536 
 392   0.0000       1.123021        30.5589 
 393   0.0000       1.127920        30.6923 
 394   0.0000       1.131960        30.8022 
 395   0.0000       1.138130        30.9701 
 396   0.0000       1.138189        30.9717 
 397   0.0000       1.140199        31.0264 
 398   0.0000       1.140264        31.0282 
 399   0.0000       1.145847        31.1801 
 400   0.0000       1.156245        31.4630 
 401   0.0000       1.156351        31.4659 
 402   0.0000       1.160227        31.5714 
 403   0.0000       1.172315        31.9003 
 404   0.0000       1.184157        32.2226 
 405   0.0000       1.184230        32.2245 
 406   0.0000       1.188078        32.3293 
 407   0.0000       1.191918        32.4337 
 408   0.0000       1.193127        32.4666 
 409   0.0000       1.193230        32.4694 
 410   0.0000       1.200675        32.6720 
 411   0.0000       1.200801        32.6754 
 412   0.0000       1.206669        32.8351 
 413   0.0000       1.207528        32.8585 
 414   0.0000       1.207715        32.8636 
 415   0.0000       1.222237        33.2588 
 416   0.0000       1.222256        33.2593 
 417   0.0000       1.223752        33.3000 
 418   0.0000       1.229035        33.4437 
 419   0.0000       1.229169        33.4474 
 420   0.0000       1.230052        33.4714 
 421   0.0000       1.240457        33.7546 
 422   0.0000       1.241541        33.7840 
 423   0.0000       1.248501        33.9734 
 424   0.0000       1.248596        33.9760 
 425   0.0000       1.256270        34.1848 
 426   0.0000       1.256395        34.1882 
 427   0.0000       1.259043        34.2603 
 428   0.0000       1.262454        34.3531 
 429   0.0000       1.268304        34.5123 
 430   0.0000       1.268368        34.5141 
 431   0.0000       1.279002        34.8034 
 432   0.0000       1.279143        34.8073 
 433   0.0000       1.285487        34.9799 
 434   0.0000       1.290350        35.1122 
 435   0.0000       1.291224        35.1360 
 436   0.0000       1.291383        35.1403 
 437   0.0000       1.304396        35.4944 
 438   0.0000       1.308105        35.5953 
 439   0.0000       1.308177        35.5973 
 440   0.0000       1.310979        35.6735 
 441   0.0000       1.313791        35.7501 
 442   0.0000       1.315714        35.8024 
 443   0.0000       1.315764        35.8038 
 444   0.0000       1.319836        35.9146 
 445   0.0000       1.319874        35.9156 
 446   0.0000       1.321583        35.9621 
 447   0.0000       1.324922        36.0530 
 448   0.0000       1.324994        36.0549 
 449   0.0000       1.340662        36.4813 
 450   0.0000       1.341413        36.5017 
 451   0.0000       1.341543        36.5052 
 452   0.0000       1.346281        36.6342 
 453   0.0000       1.347425        36.6653 
 454   0.0000       1.347497        36.6673 
 455   0.0000       1.357902        36.9504 
 456   0.0000       1.359335        36.9894 
 457   0.0000       1.359435        36.9921 
 458   0.0000       1.362194        37.0672 
 459   0.0000       1.362229        37.0681 
 460   0.0000       1.363518        37.1032 
 461   0.0000       1.364742        37.1365 
 462   0.0000       1.364860        37.1397 
 463   0.0000       1.365033        37.1444 
 464   0.0000       1.380864        37.5752 
 465   0.0000       1.385181        37.6927 
 466   0.0000       1.385242        37.6943 
 467   0.0000       1.390069        37.8257 
 468   0.0000       1.390189        37.8290 
 469   0.0000       1.394454        37.9450 
 470   0.0000       1.401767        38.1440 
 471   0.0000       1.401814        38.1453 
 472   0.0000       1.402759        38.1710 
 473   0.0000       1.405805        38.2539 
 474   0.0000       1.411940        38.4208 
 475   0.0000       1.412009        38.4227 
 476   0.0000       1.420102        38.6429 
 477   0.0000       1.421021        38.6680 
 478   0.0000       1.421111        38.6704 
 479   0.0000       1.432053        38.9681 
 480   0.0000       1.432103        38.9695 
 481   0.0000       1.445724        39.3401 
 482   0.0000       1.453896        39.5625 
 483   0.0000       1.454146        39.5693 
 484   0.0000       1.459400        39.7123 
 485   0.0000       1.459440        39.7134 
 486   0.0000       1.459552        39.7164 
 487   0.0000       1.463641        39.8277 
 488   0.0000       1.463655        39.8281 
 489   0.0000       1.466049        39.8932 
 490   0.0000       1.476070        40.1659 
 491   0.0000       1.476164        40.1685 
 492   0.0000       1.481131        40.3036 
 493   0.0000       1.490157        40.5492 
 494   0.0000       1.490212        40.5507 
 495   0.0000       1.491145        40.5761 
 496   0.0000       1.493995        40.6537 
 497   0.0000       1.495636        40.6983 
 498   0.0000       1.495918        40.7060 
 499   0.0000       1.495995        40.7081 
 500   0.0000       1.502534        40.8860 
 501   0.0000       1.502557        40.8867 
 502   0.0000       1.507599        41.0239 
 503   0.0000       1.517035        41.2806 
 504   0.0000       1.517171        41.2843 
 505   0.0000       1.522119        41.4190 
 506   0.0000       1.522294        41.4237 
 507   0.0000       1.529037        41.6072 
 508   0.0000       1.533224        41.7212 
 509   0.0000       1.533323        41.7238 
 510   0.0000       1.536602        41.8131 
 511   0.0000       1.536701        41.8158 
 512   0.0000       1.537974        41.8504 
 513   0.0000       1.550059        42.1792 
 514   0.0000       1.550140        42.1815 
 515   0.0000       1.551574        42.2205 
 516   0.0000       1.556433        42.3527 
 517   0.0000       1.562954        42.5301 
 518   0.0000       1.563026        42.5321 
 519   0.0000       1.566990        42.6400 
 520   0.0000       1.572758        42.7969 
 521   0.0000       1.572947        42.8021 
 522   0.0000       1.576902        42.9097 
 523   0.0000       1.585152        43.1342 
 524   0.0000       1.585307        43.1384 
 525   0.0000       1.586220        43.1632 
 526   0.0000       1.596371        43.4395 
 527   0.0000       1.596405        43.4404 
 528   0.0000       1.603807        43.6418 
 529   0.0000       1.608730        43.7758 
 530   0.0000       1.609928        43.8084 
 531   0.0000       1.610068        43.8122 
 532   0.0000       1.617134        44.0044 
 533   0.0000       1.617178        44.0056 
 534   0.0000       1.620474        44.0953 
 535   0.0000       1.620553        44.0975 
 536   0.0000       1.623175        44.1688 
 537   0.0000       1.628930        44.3254 
 538   0.0000       1.637789        44.5665 
 539   0.0000       1.637836        44.5678 
 540   0.0000       1.647761        44.8378 
 541   0.0000       1.648635        44.8616 
 542   0.0000       1.648797        44.8661 
 543   0.0000       1.652592        44.9693 
 544   0.0000       1.655988        45.0617 
 545   0.0000       1.656074        45.0641 
 546   0.0000       1.656392        45.0727 
 547   0.0000       1.666450        45.3464 
 548   0.0000       1.666515        45.3482 
 549   0.0000       1.667592        45.3775 
 550   0.0000       1.676841        45.6292 
 551   0.0000       1.676897        45.6307 
 552   0.0000       1.679345        45.6973 
 553   0.0000       1.687363        45.9155 
 554   0.0000       1.687510        45.9195 
 555   0.0000       1.688923        45.9579 
 556   0.0000       1.698946        46.2307 
 557   0.0000       1.699467        46.2449 
 558   0.0000       1.699542        46.2469 
 559   0.0000       1.708161        46.4814 
 560   0.0000       1.708305        46.4854 
 561   0.0000       1.714805        46.6622 
 562   0.0000       1.714932        46.6657 
 563   0.0000       1.728718        47.0408 
 564   0.0000       1.729572        47.0641 
 565   0.0000       1.731173        47.1076 
 566   0.0000       1.731208        47.1086 
 567   0.0000       1.737525        47.2805 
 568   0.0000       1.737572        47.2817 
 569   0.0000       1.742294        47.4102 
 570   0.0000       1.746992        47.5381 
 571   0.0000       1.752641        47.6918 
 572   0.0000       1.752691        47.6931 
 573   0.0000       1.755886        47.7801 
 574   0.0000       1.761359        47.9290 
 575   0.0000       1.762883        47.9705 
 576   0.0000       1.763034        47.9746 
 577   0.0000       1.772787        48.2400 
 578   0.0000       1.772823        48.2410 
 579   0.0000       1.786487        48.6128 
 580   0.0000       1.786691        48.6183 
 581   0.0000       1.797678        48.9173 
 582   0.0000       1.797965        48.9251 
 583   0.0000       1.798050        48.9274 
 584   0.0000       1.803711        49.0815 
 585   0.0000       1.806678        49.1622 
 586   0.0000       1.806847        49.1668 
 587   0.0000       1.813559        49.3495 
 588   0.0000       1.827847        49.7383 
 589   0.0000       1.827899        49.7396 
 590   0.0000       1.839069        50.0436 
 591   0.0000       1.842783        50.1447 
 592   0.0000       1.842867        50.1470 
 593   0.0000       1.843812        50.1727 
 594   0.0000       1.865736        50.7693 
 595   0.0000       1.865856        50.7725 
 596   0.0000       1.867861        50.8271 
 597   0.0000       1.887665        51.3660 
 598   0.0000       1.887715        51.3673 
 599   0.0000       1.889489        51.4156 
 600   0.0000       1.901282        51.7365 
 601   0.0000       1.901524        51.7431 
 602   0.0000       1.914638        52.0999 
 603   0.0000       1.914716        52.1021 
 604   0.0000       1.914892        52.1069 
 605   0.0000       1.929143        52.4947 
 606   0.0000       1.929286        52.4985 
 607   0.0000       1.944687        52.9176 
 608   0.0000       1.950169        53.0668 
 609   0.0000       1.950254        53.0691 
 610   0.0000       1.950381        53.0726 
 611   0.0000       1.952951        53.1425 
 612   0.0000       1.953018        53.1443 
 613   0.0000       1.956030        53.2263 
 614   0.0000       1.959479        53.3201 
 615   0.0000       1.965990        53.4973 
 616   0.0000       1.966050        53.4989 
 617   0.0000       1.983828        53.9827 
 618   0.0000       1.983956        53.9862 
 619   0.0000       1.988437        54.1081 
 620   0.0000       1.996979        54.3406 
 621   0.0000       1.997093        54.3437 
 622   0.0000       2.003828        54.5269 
 623   0.0000       2.013860        54.7999 
 624   0.0000       2.019831        54.9624 
 625   0.0000       2.019967        54.9661 
 626   0.0000       2.041164        55.5429 
[...]
      dxz     :     0.005124
      dyz     :     0.007002
      dx2y2   :     0.004345
      dxy     :     0.003952
 66 C s       :     2.652844  s :     2.652844
      pz      :     0.949187  p :     2.813587
      px      :     0.918319
      py      :     0.946081
      dz2     :     0.084531  d :     0.427236
      dxz     :     0.096803
      dyz     :     0.068320
      dx2y2   :     0.094471
      dxy     :     0.083111
      f0      :     0.005497  f :     0.040733
      f+1     :     0.005987
      f-1     :     0.004754
      f+2     :     0.006014
      f-2     :     0.005757
      f+3     :     0.006099
      f-3     :     0.006625
 67 H s       :     0.842748  s :     0.842748
      pz      :     0.040780  p :     0.154859
      px      :     0.073484
      py      :     0.040595
      dz2     :     0.002373  d :     0.028686
      dxz     :     0.009506
      dyz     :     0.000414
      dx2y2   :     0.007199
      dxy     :     0.009194
 68 H s       :     0.842364  s :     0.842364
      pz      :     0.068025  p :     0.154175
      px      :     0.043597
      py      :     0.042552
      dz2     :     0.009596  d :     0.028808
      dxz     :     0.007045
      dyz     :     0.008098
      dx2y2   :     0.002510
      dxy     :     0.001560
 69 C s       :     2.651268  s :     2.651268
      pz      :     0.964082  p :     2.814609
      px      :     0.917440
      py      :     0.933087
      dz2     :     0.053567  d :     0.428162
      dxz     :     0.081461
      dyz     :     0.108859
      dx2y2   :     0.099285
      dxy     :     0.084990
      f0      :     0.004020  f :     0.041878
      f+1     :     0.005382
      f-1     :     0.005461
      f+2     :     0.006482
      f-2     :     0.004599
      f+3     :     0.006846
      f-3     :     0.009088
 70 H s       :     0.843144  s :     0.843144
      pz      :     0.066005  p :     0.154220
      px      :     0.046702
      py      :     0.041513
      dz2     :     0.008849  d :     0.028807
      dxz     :     0.007418
      dyz     :     0.007545
      dx2y2   :     0.003086
      dxy     :     0.001909
 71 H s       :     0.842815  s :     0.842815
      pz      :     0.042838  p :     0.154877
      px      :     0.045350
      py      :     0.066690
      dz2     :     0.003670  d :     0.028684
      dxz     :     0.001699
      dyz     :     0.007895
      dx2y2   :     0.008050
      dxy     :     0.007370
 72 H s       :     0.841872  s :     0.841872
      pz      :     0.057859  p :     0.153838
      px      :     0.041163
      py      :     0.054816
      dz2     :     0.007987  d :     0.028518
      dxz     :     0.005123
      dyz     :     0.006965
      dx2y2   :     0.004495
      dxy     :     0.003948
 73 H s       :     0.845598  s :     0.845598
      pz      :     0.063447  p :     0.153211
      px      :     0.047232
      py      :     0.042531
      dz2     :     0.008445  d :     0.028627
      dxz     :     0.006567
      dyz     :     0.007305
      dx2y2   :     0.003692
      dxy     :     0.002618
 74 H s       :     0.847214  s :     0.847214
      pz      :     0.064802  p :     0.148172
      px      :     0.040733
      py      :     0.042638
      dz2     :     0.008868  d :     0.029051
      dxz     :     0.006784
      dyz     :     0.007122
      dx2y2   :     0.003747
      dxy     :     0.002530


                      *****************************
                      * MAYER POPULATION ANALYSIS *
                      *****************************

  NA   - Mulliken gross atomic population
  ZA   - Total nuclear charge
  QA   - Mulliken gross atomic charge
  VA   - Mayer's total valence
  BVA  - Mayer's bonded valence
  FA   - Mayer's free valence

  ATOM       NA         ZA         QA         VA         BVA        FA
  0 C      5.9113     6.0000     0.0887     3.6931     3.6931    -0.0000
  1 C      5.9522     6.0000     0.0478     4.1138     4.1138    -0.0000
  2 C      6.2793     6.0000    -0.2793     3.8842     3.8842    -0.0000
  3 C      5.9110     6.0000     0.0890     3.6924     3.6924    -0.0000
  4 H      0.8238     1.0000     0.1762     1.0051     1.0051    -0.0000
  5 C      6.2795     6.0000    -0.2795     3.8845     3.8845    -0.0000
  6 C      5.9112     6.0000     0.0888     3.6929     3.6929    -0.0000
  7 H      0.8236     1.0000     0.1764     1.0049     1.0049    -0.0000
  8 C      6.2797     6.0000    -0.2797     3.8841     3.8841    -0.0000
  9 C      5.9521     6.0000     0.0479     4.1138     4.1138    -0.0000
 10 H      0.8236     1.0000     0.1764     1.0050     1.0050    -0.0000
 11 C      5.9523     6.0000     0.0477     4.1137     4.1137    -0.0000
 12 C      5.9580     6.0000     0.0420     3.8733     3.8733    -0.0000
 13 C      5.9513     6.0000     0.0487     3.8328     3.8328    -0.0000
 14 N      7.2886     7.0000    -0.2886     2.9991     2.9991    -0.0000
 15 N      7.2815     7.0000    -0.2815     2.9887     2.9887    -0.0000
 16 C      5.9515     6.0000     0.0485     3.8326     3.8326    -0.0000
 17 C      5.9580     6.0000     0.0420     3.8733     3.8733    -0.0000
 18 N      7.2815     7.0000    -0.2815     2.9885     2.9885    -0.0000
 19 N      7.2886     7.0000    -0.2886     2.9989     2.9989    -0.0000
 20 C      5.9514     6.0000     0.0486     3.8325     3.8325    -0.0000
 21 C      5.9581     6.0000     0.0419     3.8736     3.8736    -0.0000
 22 N      7.2815     7.0000    -0.2815     2.9887     2.9887    -0.0000
 23 N      7.2887     7.0000    -0.2887     2.9990     2.9990    -0.0000
 24 H      0.9108     1.0000     0.0892     1.0422     1.0422    -0.0000
 25 H      0.8930     1.0000     0.1070     0.9898     0.9898    -0.0000
 26 H      0.9003     1.0000     0.0997     1.0469     1.0469    -0.0000
 27 H      0.8929     1.0000     0.1071     0.9897     0.9897    -0.0000
 28 H      0.9004     1.0000     0.0996     1.0468     1.0468    -0.0000
 29 H      0.9107     1.0000     0.0893     1.0422     1.0422    -0.0000
 30 H      0.9004     1.0000     0.0996     1.0470     1.0470    -0.0000
 31 H      0.8930     1.0000     0.1070     0.9899     0.9899    -0.0000
 32 C      6.2242     6.0000    -0.2242     3.8829     3.8829    -0.0000
 33 H      0.9107     1.0000     0.0893     1.0422     1.0422    -0.0000
 34 C      6.2242     6.0000    -0.2242     3.8829     3.8829    -0.0000
 35 C      6.2241     6.0000    -0.2241     3.8829     3.8829    -0.0000
 36 H      0.9124     1.0000     0.0876     0.9918     0.9918    -0.0000
 37 C      6.2034     6.0000    -0.2034     3.8604     3.8604    -0.0000
 38 H      0.9136     1.0000     0.0864     0.9918     0.9918    -0.0000
 39 H      0.8794     1.0000     0.1206     0.9812     0.9812    -0.0000
 40 C      6.2014     6.0000    -0.2014     3.8605     3.8605    -0.0000
 41 H      0.8878     1.0000     0.1122     0.9793     0.9793    -0.0000
 42 H      0.9063     1.0000     0.0937     0.9836     0.9836    -0.0000
 43 C      6.2197     6.0000    -0.2197     3.8800     3.8800    -0.0000
 44 H      0.8877     1.0000     0.1123     0.9792     0.9792    -0.0000
 45 H      0.9092     1.0000     0.0908     0.9844     0.9844    -0.0000
 46 H      0.8806     1.0000     0.1194     0.9815     0.9815    -0.0000
 47 H      0.9126     1.0000     0.0874     0.9910     0.9910    -0.0000
 48 H      0.9115     1.0000     0.0885     0.9994     0.9994    -0.0000
 49 H      0.9123     1.0000     0.0877     0.9916     0.9916    -0.0000
 50 C      6.2035     6.0000    -0.2035     3.8604     3.8604    -0.0000
 51 H      0.9136     1.0000     0.0864     0.9918     0.9918    -0.0000
 52 H      0.8794     1.0000     0.1206     0.9812     0.9812    -0.0000
 53 C      6.2014     6.0000    -0.2014     3.8605     3.8605    -0.0000
 54 H      0.8878     1.0000     0.1122     0.9793     0.9793    -0.0000
 55 H      0.9063     1.0000     0.0937     0.9836     0.9836    -0.0000
 56 C      6.2198     6.0000    -0.2198     3.8800     3.8800    -0.0000
 57 H      0.9093     1.0000     0.0907     0.9844     0.9844    -0.0000
 58 H      0.8877     1.0000     0.1123     0.9792     0.9792     0.0000
 59 H      0.9114     1.0000     0.0886     0.9993     0.9993    -0.0000
 60 H      0.8806     1.0000     0.1194     0.9815     0.9815    -0.0000
 61 H      0.9126     1.0000     0.0874     0.9910     0.9910    -0.0000
 62 H      0.9122     1.0000     0.0878     0.9917     0.9917    -0.0000
 63 C      6.2035     6.0000    -0.2035     3.8604     3.8604    -0.0000
 64 H      0.9136     1.0000     0.0864     0.9918     0.9918    -0.0000
 65 H      0.8794     1.0000     0.1206     0.9812     0.9812    -0.0000
 66 C      6.2014     6.0000    -0.2014     3.8605     3.8605    -0.0000
 67 H      0.8878     1.0000     0.1122     0.9793     0.9793    -0.0000
 68 H      0.9063     1.0000     0.0937     0.9836     0.9836    -0.0000
 69 C      6.2198     6.0000    -0.2198     3.8800     3.8800    -0.0000
 70 H      0.9092     1.0000     0.0908     0.9844     0.9844    -0.0000
 71 H      0.8877     1.0000     0.1123     0.9792     0.9792    -0.0000
 72 H      0.8806     1.0000     0.1194     0.9815     0.9815    -0.0000
 73 H      0.9127     1.0000     0.0873     0.9910     0.9910    -0.0000
 74 H      0.9114     1.0000     0.0886     0.9993     0.9993    -0.0000

  Mayer bond orders larger than 0.100000
B(  0-C ,  1-C ) :   1.0341 B(  0-C ,  2-C ) :   1.3462 B(  0-C ,  8-C ) :   1.3433 
B(  1-C , 14-N ) :   1.0208 B(  1-C , 15-N ) :   1.0268 B(  1-C , 27-H ) :   0.9927 
B(  2-C ,  3-C ) :   1.3433 B(  2-C ,  4-H ) :   0.9531 B(  3-C ,  5-C ) :   1.3460 
B(  3-C , 11-C ) :   1.0338 B(  5-C ,  6-C ) :   1.3433 B(  5-C ,  7-H ) :   0.9532 
B(  6-C ,  8-C ) :   1.3460 B(  6-C ,  9-C ) :   1.0339 B(  8-C , 10-H ) :   0.9531 
B(  9-C , 22-N ) :   1.0270 B(  9-C , 23-N ) :   1.0206 B(  9-C , 25-H ) :   0.9928 
B( 11-C , 18-N ) :   1.0270 B( 11-C , 19-N ) :   1.0206 B( 11-C , 31-H ) :   0.9928 
B( 12-C , 13-C ) :   0.9376 B( 12-C , 14-N ) :   1.0194 B( 12-C , 43-C ) :   0.9591 
B( 12-C , 48-H ) :   0.9760 B( 13-C , 15-N ) :   0.9867 B( 13-C , 32-C ) :   0.9573 
B( 13-C , 36-H ) :   0.9656 B( 14-N , 28-H ) :   0.9961 B( 15-N , 33-H ) :   0.9949 
B( 16-C , 17-C ) :   0.9377 B( 16-C , 18-N ) :   0.9865 B( 16-C , 34-C ) :   0.9572 
B( 16-C , 49-H ) :   0.9656 B( 17-C , 19-N ) :   1.0194 B( 17-C , 56-C ) :   0.9591 
B( 17-C , 59-H ) :   0.9760 B( 18-N , 29-H ) :   0.9949 B( 19-N , 30-H ) :   0.9963 
B( 20-C , 21-C ) :   0.9377 B( 20-C , 22-N ) :   0.9864 B( 20-C , 35-C ) :   0.9573 
B( 20-C , 62-H ) :   0.9656 B( 21-C , 23-N ) :   1.0195 B( 21-C , 69-C ) :   0.9591 
B( 21-C , 74-H ) :   0.9761 B( 22-N , 24-H ) :   0.9949 B( 23-N , 26-H ) :   0.9962 
B( 32-C , 37-C ) :   0.9501 B( 32-C , 38-H ) :   0.9832 B( 32-C , 39-H ) :   0.9898 
B( 34-C , 50-C ) :   0.9500 B( 34-C , 51-H ) :   0.9833 B( 34-C , 52-H ) :   0.9898 
B( 35-C , 63-C ) :   0.9500 B( 35-C , 64-H ) :   0.9832 B( 35-C , 65-H ) :   0.9898 
B( 37-C , 40-C ) :   0.9435 B( 37-C , 41-H ) :   0.9947 B( 37-C , 42-H ) :   0.9850 
B( 40-C , 43-C ) :   0.9490 B( 40-C , 44-H ) :   0.9948 B( 40-C , 45-H ) :   0.9853 
B( 43-C , 46-H ) :   0.9911 B( 43-C , 47-H ) :   0.9822 B( 50-C , 53-C ) :   0.9435 
B( 50-C , 54-H ) :   0.9947 B( 50-C , 55-H ) :   0.9850 B( 53-C , 56-C ) :   0.9490 
B( 53-C , 57-H ) :   0.9852 B( 53-C , 58-H ) :   0.9948 B( 56-C , 60-H ) :   0.9911 
B( 56-C , 61-H ) :   0.9822 B( 63-C , 66-C ) :   0.9435 B( 63-C , 67-H ) :   0.9947 
B( 63-C , 68-H ) :   0.9850 B( 66-C , 69-C ) :   0.9491 B( 66-C , 70-H ) :   0.9852 
B( 66-C , 71-H ) :   0.9948 B( 69-C , 72-H ) :   0.9911 B( 69-C , 73-H ) :   0.9822 


-------
TIMINGS
-------

Total SCF time: 0 days 0 hours 18 min 49 sec 

Total time                  ....    1129.467 sec
Sum of individual times     ....    1118.520 sec  ( 99.0%)

Fock matrix formation       ....    1066.890 sec  ( 94.5%)
Diagonalization             ....       7.571 sec  (  0.7%)
Density matrix formation    ....       0.549 sec  (  0.0%)
Population analysis         ....       3.292 sec  (  0.3%)
Initial guess               ....       1.766 sec  (  0.2%)
Orbital Transformation      ....       0.000 sec  (  0.0%)
Orbital Orthonormalization  ....       0.000 sec  (  0.0%)
DIIS solution               ....      25.097 sec  (  2.2%)
SOSCF solution              ....       3.331 sec  (  0.3%)


           ************************************************************
           *        Program running with 32 parallel MPI-processes    *
           *              working on a common directory               *
           ************************************************************

------------------------------------------------------------------------------
                                ORCA  MP2 
------------------------------------------------------------------------------

Freezing NCore=66 chemical core electrons

-------------
RI-MP2 ENERGY
-------------
Dimension of the basis                    ... 1578
Memory devoted to MP2                     ... 3000 MB   
Data format for buffers                   ... DOUBLE
Compression type for matrix containers    ... UNCOMPRESSED
Overall scaling of the MP2 energy         ...   1.000e+00
Calculating two index integrals           ... done (    0.190 sec)
Cholesky decomposition of V**-1           ... done (    2.022 sec)

-----------------
RI-TRANSFORMATION (AUX index driven)
-----------------

Dimension of the orbital-basis         ... 1578
Dimension of the aux-basis             ... 3933
Transformation of internal/external MOs...   33- 122 to  123-1577
Number Format for Storage              ... Double (8 Byte)
Integral mode                          ... Direct

First Phase: integral generation and transformation of MO indices
  Aux angular momentum 0               ... done (    1.656 sec)
  Aux angular momentum 1               ... done (    3.560 sec)
  Aux angular momentum 2               ... done (    4.230 sec)
  Aux angular momentum 3               ... done (    3.704 sec)
  Aux angular momentum 4               ... done (    1.899 sec)
Closing buffer VIA ( 3.84 GB; CompressionRatio= 1.00)
  Phase 1 completed in    15.211 sec
Second Phase: sorting and transformation of aux index

IA-Transformation
Memory available                       ... 2684 MB 
Max. # MO pairs treated in a batch     ... 3    
# of internal orbitals                 ... 90
# batches for internal orbitals        ... 1
Closing buffer IAV ( 0.13 GB; CompressionRatio= 1.00)
(ia|v) transformation done in    14.513 sec

  Phase 2 completed in    25.201 sec
RI-Integral transformation completed in    40.424 sec
Opening buffers                              ... done

Starting loop over batches of integrals:

Operator 0  - window                       ... ( 33-122)x(123-1577)
Operator 0  - Memory available             ...  3000 MB
Operator 0  - Memory needed per MO         ...  43.7 MB
Operator 0  - Number of orbitals per batch ... 3
Operator 0  - Number of batches            ... 1

OPERATOR  0   PASS   0:  MOs    33 ...   35 +   36 ...   38 +   39 ...   41 +   42 ...   44
                            +   45 ...   47 +   48 ...   50 +   51 ...   53 +   54 ...   56
                            +   57 ...   59 +   60 ...   62 +   63 ...   65 +   66 ...   68
                            +   69 ...   71 +   72 ...   74 +   75 ...   77 +   78 ...   80
                            +   81 ...   83 +   84 ...   86 +   87 ...   89 +   90 ...   92
                            +   93 ...   95 +   96 ...   98 +   99 ...  101 +  102 ...  104
                            +  105 ...  107 +  108 ...  110 +  111 ...  113 +  114 ...  116
                            +  117 ...  119 +  120 ...  122
  Reading integrals       ... ok
  Internal MO  35
Time spent in pair loops =    10.298 sec
Deleting buffer (Ka|jb)[aa] ...done

-----------------------------------------------
 RI-MP2 CORRELATION ENERGY:     -5.755685652 Eh
-----------------------------------------------


-------
TIMINGS
-------

Total time                :  496.777 sec
Integral trafo            :   40.428 sec (  8.1%)
I/O of integrals          :    0.078 sec (  0.0%)
K(i,j) Operators          :   10.042 sec (  2.0%)
T(i,j) pair energies      :    0.119 sec (  0.0%)
V-calculation             :    0.190 sec (  0.0%)
V**(-1/2)                 :    2.022 sec (  0.4%)
Gamma(ia|P)               :    0.000 sec (  0.0%)
Gamma-Trafo               :    0.000 sec (  0.0%)
D(virtual)                :    0.000 sec (  0.0%)
D(internal)               :    0.000 sec (  0.0%)
W(virtual)                :    0.000 sec (  0.0%)
W(internal)               :    0.000 sec (  0.0%)
L(virtual)                :    0.000 sec (  0.0%)
L(internal)               :    0.000 sec (  0.0%)
G(D)                      :    0.000 sec (  0.0%)
G(Z)                      :    0.000 sec (  0.0%)
Z-Vector Solution         :    0.000 sec (  0.0%)
3-Index Derivative        :    0.000 sec (  0.0%)
2-Index Derivative        :    0.000 sec (  0.0%)
Separable Gradient        :    0.000 sec (  0.0%)


---------------------------------------
MP2 TOTAL ENERGY:    -1379.778182728 Eh
---------------------------------------

-------------------------   --------------------
FINAL SINGLE POINT ENERGY     -1379.778182727529
-------------------------   --------------------


                            ***************************************
                            *     ORCA property calculations      *
                            ***************************************


  WARNING: The energy has been calculated at the MP2 level but the densities
           used in the property calculations are still SCF densities
           MP2 response densities have not been calculated 
           use %mp2 Density relaxed end
           or  %mp2 Density unrelaxed end

                                    ---------------------
                                    Active property flags
                                    ---------------------
   (+) Dipole Moment


------------------------------------------------------------------------------
                       ORCA ELECTRIC PROPERTIES CALCULATION
------------------------------------------------------------------------------

Dipole Moment Calculation                       ... on
Quadrupole Moment Calculation                   ... off
Polarizability Calculation                      ... off
GBWName                                         ... _o_1_alde1_3_ami3_1_opt_MP2.gbw
Electron density file                           ... _o_1_alde1_3_ami3_1_opt_MP2.scfp
The origin for moment calculation is the CENTER OF MASS  = (-2.535818,  4.427521 -5.284695)

-------------
DIPOLE MOMENT
-------------
                                X             Y             Z
Electronic contribution:     -1.85316     -16.59314      -4.21389
Nuclear contribution   :      1.93338      17.31407       4.39823
                        -----------------------------------------
Total Dipole Moment    :      0.08022       0.72093       0.18434
                        -----------------------------------------
Magnitude (a.u.)       :      0.74844
Magnitude (Debye)      :      1.90238



--------------------
Rotational spectrum 
--------------------
 
Rotational constants in cm-1:     0.003240     0.003229     0.001886 
Rotational constants in MHz :    97.124757    96.802276    56.525922 

 Dipole components along the rotational axes: 
x,y,z [a.u.] :    -0.002095     0.000803     0.748434 
x,y,z [Debye]:    -0.005325     0.002041     1.902369 

 

Timings for individual modules:

Sum of individual times         ...     1971.280 sec (=  32.855 min)
GTO integral calculation        ...      131.981 sec (=   2.200 min)   6.7 %
SCF iterations                  ...     1226.701 sec (=  20.445 min)  62.2 %
MP2 module                      ...      612.598 sec (=  10.210 min)  31.1 %
                             ****ORCA TERMINATED NORMALLY****
TOTAL RUN TIME: 0 days 0 hours 34 minutes 14 seconds 790 msec
