Job execution start: Thu Mar 10 21:17:19 GMT 2022
Shared library path: /work/e05/e05/atarzia/orca_4_2_1_linux_x86-64_openmpi314:/work/e05/e05/atarzia/openmpi-3.1.4/lib:/opt/cray/pe/papi/6.0.0.6/lib64:/opt/cray/libfabric/1.11.0.4.71/lib64
Slurm Job ID is: 1234913
Slurm Job name is: o_1_alde1_3_ami2_1_opt_MP2
nid005914

                                 *****************
                                 * O   R   C   A *
                                 *****************

           --- An Ab Initio, DFT and Semiempirical electronic structure package ---

                  #######################################################
                  #                        -***-                        #
                  #          Department of theory and spectroscopy      #
                  #               Directorship: Frank Neese             #
                  #        Max Planck Institute fuer Kohlenforschung    #
                  #                Kaiser Wilhelm Platz 1               #
                  #                 D-45470 Muelheim/Ruhr               #
                  #                      Germany                        #
                  #                                                     #
                  #                  All rights reserved                #
                  #                        -***-                        #
                  #######################################################


                         Program Version 4.2.1 -  RELEASE  -


 With contributions from (in alphabetic order):
   Daniel Aravena         : Magnetic Suceptibility
   Michael Atanasov       : Ab Initio Ligand Field Theory (pilot matlab implementation)
   Alexander A. Auer      : GIAO ZORA, VPT2
   Ute Becker             : Parallelization
   Giovanni Bistoni       : ED, misc. LED, open-shell LED, HFLD
   Martin Brehm           : Molecular dynamics
   Dmytro Bykov           : SCF Hessian
   Vijay G. Chilkuri      : MRCI spin determinant printing, contributions to CSF-ICE
   Dipayan Datta          : RHF DLPNO-CCSD density
   Achintya Kumar Dutta   : EOM-CC, STEOM-CC
   Dmitry Ganyushin       : Spin-Orbit,Spin-Spin,Magnetic field MRCI
   Miquel Garcia          : C-PCM Hessian, Gaussian charge scheme
   Yang Guo               : DLPNO-NEVPT2, CIM, IAO-localization
   Andreas Hansen         : Spin unrestricted coupled pair/coupled cluster methods
   Benjamin Helmich-Paris : CASSCF linear response (MC-RPA)
   Lee Huntington         : MR-EOM, pCC
   Robert Izsak           : Overlap fitted RIJCOSX, COSX-SCS-MP3, EOM
   Christian Kollmar      : KDIIS, OOCD, Brueckner-CCSD(T), CCSD density
   Simone Kossmann        : Meta GGA functionals, TD-DFT gradient, OOMP2, MP2 Hessian
   Martin Krupicka        : AUTO-CI
   Lucas Lang             : DCDCAS
   Dagmar Lenk            : GEPOL surface, SMD
   Dimitrios Liakos       : Extrapolation schemes; Compound Job, initial MDCI parallelization
   Dimitrios Manganas     : Further ROCIS development; embedding schemes
   Dimitrios Pantazis     : SARC Basis sets
   Taras Petrenko         : DFT Hessian,TD-DFT gradient, ASA, ECA, R-Raman, ABS, FL, XAS/XES, NRVS
   Peter Pinski           : DLPNO-MP2, DLPNO-MP2 Gradient
   Christoph Reimann      : Effective Core Potentials
   Marius Retegan         : Local ZFS, SOC
   Christoph Riplinger    : Optimizer, TS searches, QM/MM, DLPNO-CCSD(T), (RO)-DLPNO pert. Triples
   Tobias Risthaus        : Range-separated hybrids, TD-DFT gradient, RPA, STAB
   Michael Roemelt        : Original ROCIS implementation
   Masaaki Saitow         : Open-shell DLPNO-CCSD energy and density
   Barbara Sandhoefer     : DKH picture change effects
   Avijit Sen             : IP-ROCIS
   Kantharuban Sivalingam : CASSCF convergence, NEVPT2, FIC-MRCI
   Bernardo de Souza      : ESD, SOC TD-DFT
   Georgi Stoychev        : AutoAux, RI-MP2 NMR
   Willem Van den Heuvel  : Paramagnetic NMR
   Boris Wezisla          : Elementary symmetry handling
   Frank Wennmohs         : Technical directorship


 We gratefully acknowledge several colleagues who have allowed us to
 interface, adapt or use parts of their codes:
   Stefan Grimme, W. Hujo, H. Kruse,             : VdW corrections, initial TS optimization,
                  C. Bannwarth                     DFT functionals, gCP, sTDA/sTD-DF
   Ed Valeev, F. Pavosevic, A. Kumar             : LibInt (2-el integral package), F12 methods
   Garnet Chan, S. Sharma, J. Yang, R. Olivares  : DMRG
   Ulf Ekstrom                                   : XCFun DFT Library
   Mihaly Kallay                                 : mrcc  (arbitrary order and MRCC methods)
   Andreas Klamt, Michael Diedenhofen            : otool_cosmo (COSMO solvation model)
   Jiri Pittner, Ondrej Demel                    : Mk-CCSD
   Frank Weinhold                                : gennbo (NPA and NBO analysis)
   Christopher J. Cramer and Donald G. Truhlar   : smd solvation model
   Lars Goerigk                                  : TD-DFT with DH, B97 family of functionals
   V. Asgeirsson, H. Jonsson                     : NEB implementation
   FAccTs GmbH                                   : IRC, NEB, NEB-TS, Multilevel, MM, QM/MM, CI optimization
   S Lehtola, MJT Oliveira, MAL Marques          : LibXC Library


 Your calculation uses the libint2 library for the computation of 2-el integrals
 For citations please refer to: http://libint.valeyev.net

 Your ORCA version has been built with support for libXC version: 4.2.3
 For citations please refer to: https://tddft.org/programs/libxc/

 This ORCA versions uses:
   CBLAS   interface :  Fast vector & matrix operations
   LAPACKE interface :  Fast linear algebra routines
   SCALAPACK package :  Parallel linear algebra routines




***************************************
The coordinates will be read from file: _o_1_alde1_3_ami2_1_opt_B97-3c.xyz
***************************************


----- Orbital basis set information -----
Your calculation utilizes the basis: cc-pVTZ 
       H, B-Ne : Obtained from the ccRepo (grant-hill.group.shef.ac.uk/ccrepo) Feb. 2017
                 T. H. Dunning, Jr., J. Chem. Phys. 90, 1007 (1989)
            He : Obtained from the ccRepo (grant-hill.group.shef.ac.uk/ccrepo) Feb. 2017
                 D. E. Woon, T. H. Dunning, Jr., J. Chem. Phys. 100, 2975 (1994)
  Li-Be, Na-Mg : Obtained from the ccRepo (grant-hill.group.shef.ac.uk/ccrepo) Feb. 2017
                 B. P. Prascher, D. E. Woon, K. A. Peterson, T. H. Dunning, Jr., A. K. Wilson, Theor. Chem. Acc. 128, 69 (2011)
         Al-Ar : Obtained from the ccRepo (grant-hill.group.shef.ac.uk/ccrepo) Feb. 2017
                 D. E. Woon, T. H. Dunning, Jr., J. Chem. Phys. 98, 1358 (1993)
            Ca : Obtained from the Peterson Research Group Website (tyr0.chem.wsu.edu/~kipeters) Feb. 2017
                 J. Koput, K. A. Peterson, J. Phys. Chem. 106, 9595 (2002)
         Sc-Zn : Obtained from the ccRepo (grant-hill.group.shef.ac.uk/ccrepo) Feb. 2017
                 N. B. Balabanov, K. A. Peterson, J. Chem. Phys. 123, 064107 (2005)
                 N. B. Balabanov, K. A. Peterson, J. Chem. Phys. 125, 074110 (2006)
         Ga-Kr : Obtained from the ccRepo (grant-hill.group.shef.ac.uk/ccrepo) Feb. 2017
                 A. K. Wilson, D. E. Woon, K. A. Peterson, T. H. Dunning, Jr., J. Chem. Phys. 110, 7667 (1999)
             Y : Obtained from the ccRepo (grant-hill.group.shef.ac.uk/ccrepo) Feb. 2017
                 K. A. Peterson, D. Figgen, M. Dolg, H. Stoll, J. Chem. Phys. 126, 124101 (2007)
        Ag, Au : Obtained from the Peterson Research Group Website (tyr0.chem.wsu.edu/~kipeters) Feb. 2017
                 K. A. Peterson, C. Puzzarini, Theor. Chem. Acc. 114, 283 (2005)

----- AuxC basis set information -----
Your calculation utilizes the auxiliary basis: cc-pVTZ/C 
  Obtained from the EMSL Basis Set Exchange (bse.pnl.gov) Feb. 2017
  H-He, B-F, Al-Ar, Ga-Kr : F. Weigend, A. Kohn, C. Hattig, J. Chem. Phys. 116, 3175 (2002)
             Li-Be, Na-Mg : C. Haettig, Phys. Chem. Chem. Phys. 7, 59 (2005)
                       Ne : C. Haettig, Phys. Chem. Chem. Phys. 7, 59 (2005)
                            F. Weigend, A. Kohn, C. Hattig, J. Chem. Phys. 116, 3175 (2002)
                    Sc-Zn : J. G. Hill, J. A. Platts, J. Chem. Phys. 128, 044104 (2008)

================================================================================
                                        WARNINGS
                       Please study these warnings very carefully!
================================================================================


WARNING: No MP2 level density has been requested!
         To caclulate MP2 level properties use
         %mp2 Density relaxed end
         or
         %mp2 Density unrelaxed end

WARNING: Post HF methods need fully converged wavefunctions
  ===> : Setting SCFConvForced true
         You can overwrite this default with %scf ConvForced false 


INFO   : the flag for use of LIBINT has been found!

================================================================================
                                       INPUT FILE
================================================================================
NAME = o_1_alde1_3_ami2_1_opt_MP2.in
|  1> ! RI-MP2 cc-pVTZ cc-pVTZ/C TIGHTSCF printbasis Grid6 NOFINALGRID SlowConv
|  2> 
|  3> %base "_o_1_alde1_3_ami2_1_opt_MP2"
|  4> %maxcore 3000
|  5> %pal
|  6>    nprocs 32
|  7> end
|  8> 
|  9> * xyzfile 0 1 _o_1_alde1_3_ami2_1_opt_B97-3c.xyz
| 10> 
| 11>                          ****END OF INPUT****
================================================================================

                       ****************************
                       * Single Point Calculation *
                       ****************************

---------------------------------
CARTESIAN COORDINATES (ANGSTROEM)
---------------------------------
  C     -1.784823    1.115982   -0.963435
  C     -2.173691    0.350540    0.269122
  C     -2.750869    1.581853   -1.844457
  C     -2.385669    2.243620   -3.010577
  H     -3.802473    1.454211   -1.623602
  C     -1.037474    2.439390   -3.284604
  C     -0.059774    1.978544   -2.412074
  H     -0.746077    2.961249   -4.189234
  C     -0.443428    1.317915   -1.254642
  C      1.397183    2.245642   -2.669432
  H      0.312185    0.962301   -0.569406
  C     -3.429367    2.683768   -3.999545
  C     -1.853119   -1.592986    1.445100
  C     -1.106931   -0.505741    2.250963
  N     -1.978613   -1.083075    0.087074
  N     -1.362701    0.712512    1.450299
  C     -5.810666    2.794303   -4.283876
  C     -5.095487    2.031722   -5.426275
  N     -4.690203    3.108442   -3.368089
  N     -3.806296    1.600891   -4.900717
  C      3.519305    1.597270   -1.730856
  C      3.321724    3.129127   -1.780644
  N      2.260000    1.096448   -2.325695
  N      1.885307    3.355816   -1.858770
  H      2.438480    0.526458   -3.140545
  H      1.522934    2.525812   -3.723613
  H      1.472080    3.278279   -0.936426
  H     -3.241382    0.515749    0.463180
  H     -1.110351   -1.222796   -0.417287
  H     -4.667665    4.091199   -3.132284
  H     -3.923976    0.760653   -4.344528
  H     -3.004741    3.485068   -4.621124
  H     -4.919907    2.704770   -6.268198
  H     -5.668494    1.183953   -5.794867
  H      3.789929    3.533519   -2.681089
  H      3.750929    3.644897   -0.924112
  C      0.393669   -0.780116    2.277579
  H      0.776333   -0.921821    1.267451
  H      0.627171   -1.671486    2.862114
  H      0.927451    0.064960    2.709729
  H     -1.828347    1.421427    1.999248
  C     -1.646930   -0.371946    3.665496
  C     -6.500654    4.051538   -4.791797
  H     -7.290021    3.806515   -5.502336
  H     -5.791092    4.709190   -5.294642
  H     -6.960112    4.607802   -3.974082
  C     -6.805661    1.893782   -3.560133
  H     -6.321835    0.970321   -3.243813
  H     -7.652357    1.638500   -4.198767
  H     -7.186238    2.385262   -2.665848
  C      4.734241    1.154492   -2.529910
  H      4.668326    1.501322   -3.561673
  H      4.826107    0.068007   -2.539793
  H      5.652015    1.555907   -2.100526
  C      3.621242    1.105374   -0.289964
  H      3.603661    0.017082   -0.257873
  H      2.776085    1.459830    0.299008
  H      4.540327    1.449508    0.186885
  H     -1.481293   -1.285515    4.236328
  H     -2.719214   -0.173979    3.655045
  H     -1.154803    0.441111    4.200189
  H     -1.348309   -2.556705    1.455288
  H     -2.854298   -1.737500    1.857482

----------------------------
CARTESIAN COORDINATES (A.U.)
----------------------------
  NO LB      ZA    FRAG     MASS         X           Y           Z
   0 C     6.0000    0    12.011   -3.372826    2.108900   -1.820627
   1 C     6.0000    0    12.011   -4.107682    0.662424    0.508568
   2 C     6.0000    0    12.011   -5.198390    2.989270   -3.485519
   3 C     6.0000    0    12.011   -4.508260    4.239827   -5.689166
   4 H     1.0000    0     1.008   -7.185633    2.748061   -3.068164
   5 C     6.0000    0    12.011   -1.960542    4.609778   -6.207003
   6 C     6.0000    0    12.011   -0.112956    3.738907   -4.558159
   7 H     1.0000    0     1.008   -1.409881    5.595950   -7.916505
   8 C     6.0000    0    12.011   -0.837957    2.490499   -2.370930
   9 C     6.0000    0    12.011    2.640294    4.243649   -5.044495
  10 H     1.0000    0     1.008    0.589945    1.818484   -1.076022
  11 C     6.0000    0    12.011   -6.480565    5.071586   -7.558045
  12 C     6.0000    0    12.011   -3.501888   -3.010307    2.730843
  13 C     6.0000    0    12.011   -2.091796   -0.955712    4.253704
  14 N     7.0000    0    14.007   -3.739036   -2.046715    0.164547
  15 N     7.0000    0    14.007   -2.575132    1.346453    2.740668
  16 C     6.0000    0    12.011  -10.980568    5.280468   -8.095353
  17 C     6.0000    0    12.011   -9.629075    3.839399  -10.254174
  18 N     7.0000    0    14.007   -8.863200    5.874104   -6.364766
  19 N     7.0000    0    14.007   -7.192857    3.025245   -9.261014
  20 C     6.0000    0    12.011    6.650522    3.018403   -3.270844
  21 C     6.0000    0    12.011    6.277149    5.913194   -3.364929
  22 N     7.0000    0    14.007    4.270780    2.071986   -4.394927
  23 N     7.0000    0    14.007    3.562713    6.341573   -3.512567
  24 H     1.0000    0     1.008    4.608059    0.994861   -5.934771
  25 H     1.0000    0     1.008    2.877929    4.773093   -7.036609
  26 H     1.0000    0     1.008    2.781828    6.195049   -1.769589
  27 H     1.0000    0     1.008   -6.125324    0.974624    0.875284
  28 H     1.0000    0     1.008   -2.098260   -2.310750   -0.788557
  29 H     1.0000    0     1.008   -8.820609    7.731246   -5.919158
  30 H     1.0000    0     1.008   -7.415241    1.437426   -8.209968
  31 H     1.0000    0     1.008   -5.678138    6.585825   -8.732659
  32 H     1.0000    0     1.008   -9.297278    5.111275  -11.845177
  33 H     1.0000    0     1.008  -10.711902    2.237348  -10.950711
  34 H     1.0000    0     1.008    7.161929    6.677383   -5.066525
  35 H     1.0000    0     1.008    7.088229    6.887857   -1.746318
  36 C     6.0000    0    12.011    0.743926   -1.474205    4.304000
  37 H     1.0000    0     1.008    1.467057   -1.741989    2.395136
  38 H     1.0000    0     1.008    1.185182   -3.158651    5.408612
  39 H     1.0000    0     1.008    1.752629    0.122757    5.120646
  40 H     1.0000    0     1.008   -3.455074    2.686107    3.778031
  41 C     6.0000    0    12.011   -3.112247   -0.702877    6.926783
  42 C     6.0000    0    12.011  -12.284456    7.656297   -9.055184
  43 H     1.0000    0     1.008  -13.776144    7.193272  -10.397907
  44 H     1.0000    0     1.008  -10.943578    8.899080  -10.005423
  45 H     1.0000    0     1.008  -13.152705    8.707484   -7.509927
  46 C     6.0000    0    12.011  -12.860835    3.578730   -6.727676
  47 H     1.0000    0     1.008  -11.946537    1.833642   -6.129917
  48 H     1.0000    0     1.008  -14.460859    3.096316   -7.934519
  49 H     1.0000    0     1.008  -13.580022    4.507492   -5.037722
  50 C     6.0000    0    12.011    8.946420    2.181674   -4.780838
  51 H     1.0000    0     1.008    8.821858    2.837087   -6.730586
  52 H     1.0000    0     1.008    9.120021    0.128515   -4.799512
  53 H     1.0000    0     1.008   10.680760    2.940238   -3.969418
  54 C     6.0000    0    12.011    6.843156    2.088855   -0.547952
  55 H     1.0000    0     1.008    6.809932    0.032280   -0.487309
  56 H     1.0000    0     1.008    5.246041    2.758679    0.565042
  57 H     1.0000    0     1.008    8.579974    2.739173    0.353161
  58 H     1.0000    0     1.008   -2.799238   -2.429271    8.005499
  59 H     1.0000    0     1.008   -5.138569   -0.328772    6.907035
  60 H     1.0000    0     1.008   -2.182262    0.833579    7.937207
  61 H     1.0000    0     1.008   -2.547934   -4.831473    2.750095
  62 H     1.0000    0     1.008   -5.393841   -3.283398    3.510132

--------------------------------
INTERNAL COORDINATES (ANGSTROEM)
--------------------------------
 C      0   0   0     0.000000000000     0.00000000     0.00000000
 C      1   0   0     1.502104126354     0.00000000     0.00000000
 C      1   2   0     1.387977949203   120.77733258     0.00000000
 C      3   1   2     1.389655522587   120.63558036   182.55380367
 H      3   1   2     1.082100071492   120.48086709     3.87658892
 C      4   3   1     1.389620284579   119.17829165   359.76935126
 C      6   4   3     1.389095591397   120.81415529     0.23424595
 H      6   4   3     1.084252845132   119.54295821   180.43641733
 C      7   6   4     1.386819796031   119.18018682   359.89648039
 C      7   6   4     1.503428644014   121.03891173   182.99879375
 H      9   7   6     1.080259724786   119.51920545   180.35422171
 C      4   3   1     1.503693713862   120.58948894   176.75661908
 C      2   1   3     2.294118687991   144.70115299   125.65143641
 C     13   2   1     1.545416988218    74.85618284   106.41163157
 N     13   2   1     1.456018619185    38.10894485   321.55258635
 N      2   1   3     1.477805000399   112.89008787   219.80544401
 C     12   4   3     2.400760029352   141.24533107     5.70239402
 C     17  12   4     1.548576107712    66.83438968   235.34339948
 N     12   4   3     1.472682399894   113.36879559    34.74439511
 N     18  17  12     1.457339876499   106.74331980    21.26693391
 C     10   7   6     2.409296705427   137.65336113   187.02082454
 C     21  10   7     1.545349137221    66.92538870   235.90575139
 N     10   7   6     1.477584303257   112.82326549   218.83750771
 N     22  21  10     1.456291987040   106.38802746    21.53695874
 H     23  10   7     1.010309342525   110.75162655    94.76474264
 H     10   7   6     1.098001565253   108.70334035   342.13724407
 H     24  22  21     1.013650066809   109.96073490    80.46745391
 H      2   1   3     1.097686077724   108.67364991   343.18333043
 H     15  13   2     1.013794957429   109.99466828   115.58563414
 H     19  12   4     1.010902277653   111.17818549    88.15055459
 H     20  18  17     1.014492655793   109.87364854    80.53505423
 H     12   4   3     1.099431904560   108.48757648   158.89176425
 H     18  17  12     1.092087481422   109.84542054   263.77579228
 H     18  17  12     1.087616242408   112.98803301   143.51205876
 H     22  21  10     1.092497801129   109.79655348   264.06365258
 H     22  21  10     1.088063293931   113.20924112   143.64965014
 C     14  13   2     1.525709199777   110.94497787   244.21695381
 H     37  14  13     1.089435683141   110.65169657    52.54322709
 H     37  14  13     1.091213166565   111.51266634   291.83228868
 H     37  14  13     1.088959017525   110.45515933   171.16490549
 H     16   2   1     1.010312038564   110.68462321    94.67253901
 C     14  13   2     1.520000725078   112.06532985   120.27222344
 C     17  12   4     1.521415472175   121.83174636   133.32738486
 H     43  17  12     1.089954841660   111.11950516   138.67417792
 H     43  17  12     1.090338023184   110.93187664    18.72423025
 H     43  17  12     1.090499134862   111.23955634   258.23086460
 C     17  12   4     1.524715447350   124.32432892   335.88322376
 H     47  17  12     1.089461230993   110.40394162   336.62174476
 H     47  17  12     1.090832892756   111.52108988   215.99301088
 H     47  17  12     1.089099521992   110.56536559    95.34752878
 C     21  10   7     1.520069378419   125.28214431   134.56980312
 H     51  21  10     1.090490490974   110.87952238    20.74199995
 H     51  21  10     1.090406683016   111.24407884   260.19781229
 H     51  21  10     1.089868163733   111.01843897   140.61067217
 C     21  10   7     1.525950149960   120.89316624   337.39648720
 H     55  21  10     1.088907736969   110.42133300    96.21563230
 H     55  21  10     1.089410538073   110.71932834   337.57291193
 H     55  21  10     1.091113602420   111.54732185   216.84440146
 H     42  14  13     1.089904575408   111.07755248    64.05640006
 H     42  14  13     1.090455004756   110.87952263   304.13997569
 H     42  14  13     1.090480669014   111.19894763   183.64980772
 H     13   2   1     1.087976508825   145.09064749   357.39156673
 H     13   2   1     1.092383581088   100.22517749   214.33694073

---------------------------
INTERNAL COORDINATES (A.U.)
---------------------------
 C      0   0   0     0.000000000000     0.00000000     0.00000000
 C      1   0   0     2.838565423442     0.00000000     0.00000000
 C      1   2   0     2.622898203916   120.77733258     0.00000000
 C      3   1   2     2.626068358181   120.63558036   182.55380367
 H      3   1   2     2.044872784617   120.48086709     3.87658892
 C      4   3   1     2.626001767996   119.17829165   359.76935126
 C      6   4   3     2.625010241578   120.81415529     0.23424595
 H      6   4   3     2.048940937225   119.54295821   180.43641733
 C      7   6   4     2.620709611600   119.18018682   359.89648039
 C      7   6   4     2.841068399078   121.03891173   182.99879375
 H      9   7   6     2.041395033350   119.51920545   180.35422171
 C      4   3   1     2.841569308498   120.58948894   176.75661908
 C      2   1   3     4.335256039014   144.70115299   125.65143641
 C     13   2   1     2.920414870442    74.85618284   106.41163157
 N     13   2   1     2.751476436150    38.10894485   321.55258635
 N      2   1   3     2.792646730093   112.89008787   219.80544401
 C     12   4   3     4.536778968741   141.24533107     5.70239402
 C     17  12   4     2.926384741109    66.83438968   235.34339948
 N     12   4   3     2.782966418046   113.36879559    34.74439511
 N     18  17  12     2.753973250625   106.74331980    21.26693391
 C     10   7   6     4.552910948615   137.65336113   187.02082454
 C     21  10   7     2.920286650640    66.92538870   235.90575139
 N     10   7   6     2.792229672936   112.82326549   218.83750771
 N     22  21  10     2.751993026530   106.38802746    21.53695874
 H     23  10   7     1.909207967915   110.75162655    94.76474264
 H     10   7   6     2.074922252945   108.70334035   342.13724407
 H     24  22  21     1.915521021899   109.96073490    80.46745391
 H      2   1   3     2.074326067917   108.67364991   343.18333043
 H     15  13   2     1.915794825492   109.99466828   115.58563414
 H     19  12   4     1.910328452921   111.17818549    88.15055459
 H     20  18  17     1.917113284324   109.87364854    80.53505423
 H     12   4   3     2.077625202514   108.48757648   158.89176425
 H     18  17  12     2.063746254171   109.84542054   263.77579228
 H     18  17  12     2.055296836956   112.98803301   143.51205876
 H     22  21  10     2.064521646044   109.79655348   264.06365258
 H     22  21  10     2.056141641902   113.20924112   143.64965014
 C     14  13   2     2.883172547583   110.94497787   244.21695381
 H     37  14  13     2.058735081658   110.65169657    52.54322709
 H     37  14  13     2.062094038537   111.51266634   291.83228868
 H     37  14  13     2.057834314187   110.45515933   171.16490549
 H     16   2   1     1.909213062690   110.68462321    94.67253901
 C     14  13   2     2.872385093759   112.06532985   120.27222344
 C     17  12   4     2.875058578321   121.83174636   133.32738486
 H     43  17  12     2.059716149080   111.11950516   138.67417792
 H     43  17  12     2.060440257218   110.93187664    18.72423025
 H     43  17  12     2.060744714167   111.23955634   258.23086460
 C     17  12   4     2.881294627651   124.32432892   335.88322376
 H     47  17  12     2.058783360102   110.40394162   336.62174476
 H     47  17  12     2.061375425181   111.52108988   215.99301088
 H     47  17  12     2.058099829149   110.56536559    95.34752878
 C     21  10   7     2.872514829772   125.28214431   134.56980312
 H     51  21  10     2.060728379585   110.87952238    20.74199995
 H     51  21  10     2.060570005497   111.24407884   260.19781229
 H     51  21  10     2.059552351535   111.01843897   140.61067217
 C     21  10   7     2.883627877441   120.89316624   337.39648720
 H     55  21  10     2.057737407979   110.42133300    96.21563230
 H     55  21  10     2.058687564365   110.71932834   337.57291193
 H     55  21  10     2.061905889569   111.54732185   216.84440146
 H     42  14  13     2.059621159630   111.07755248    64.05640006
 H     42  14  13     2.060661320353   110.87952263   304.13997569
 H     42  14  13     2.060709818772   111.19894763   183.64980772
 H     13   2   1     2.055977641819   145.09064749   357.39156673
 H     13   2   1     2.064305801448   100.22517749   214.33694073

---------------------
BASIS SET INFORMATION
---------------------
There are 3 groups of distinct atoms

 Group   1 Type C   : 18s5p2d1f contracted to 4s3p2d1f pattern {8811/311/11/1}
 Group   2 Type H   : 5s2p1d contracted to 3s2p1d pattern {311/11/1}
 Group   3 Type N   : 18s5p2d1f contracted to 4s3p2d1f pattern {8811/311/11/1}

Atom   0C    basis set group =>   1
Atom   1C    basis set group =>   1
Atom   2C    basis set group =>   1
Atom   3C    basis set group =>   1
Atom   4H    basis set group =>   2
Atom   5C    basis set group =>   1
Atom   6C    basis set group =>   1
Atom   7H    basis set group =>   2
Atom   8C    basis set group =>   1
Atom   9C    basis set group =>   1
Atom  10H    basis set group =>   2
Atom  11C    basis set group =>   1
Atom  12C    basis set group =>   1
Atom  13C    basis set group =>   1
Atom  14N    basis set group =>   3
Atom  15N    basis set group =>   3
Atom  16C    basis set group =>   1
Atom  17C    basis set group =>   1
Atom  18N    basis set group =>   3
Atom  19N    basis set group =>   3
Atom  20C    basis set group =>   1
Atom  21C    basis set group =>   1
Atom  22N    basis set group =>   3
Atom  23N    basis set group =>   3
Atom  24H    basis set group =>   2
Atom  25H    basis set group =>   2
Atom  26H    basis set group =>   2
Atom  27H    basis set group =>   2
Atom  28H    basis set group =>   2
Atom  29H    basis set group =>   2
Atom  30H    basis set group =>   2
Atom  31H    basis set group =>   2
Atom  32H    basis set group =>   2
Atom  33H    basis set group =>   2
Atom  34H    basis set group =>   2
Atom  35H    basis set group =>   2
Atom  36C    basis set group =>   1
Atom  37H    basis set group =>   2
Atom  38H    basis set group =>   2
Atom  39H    basis set group =>   2
Atom  40H    basis set group =>   2
Atom  41C    basis set group =>   1
Atom  42C    basis set group =>   1
Atom  43H    basis set group =>   2
Atom  44H    basis set group =>   2
Atom  45H    basis set group =>   2
Atom  46C    basis set group =>   1
Atom  47H    basis set group =>   2
Atom  48H    basis set group =>   2
Atom  49H    basis set group =>   2
Atom  50C    basis set group =>   1
Atom  51H    basis set group =>   2
Atom  52H    basis set group =>   2
Atom  53H    basis set group =>   2
Atom  54C    basis set group =>   1
Atom  55H    basis set group =>   2
Atom  56H    basis set group =>   2
Atom  57H    basis set group =>   2
Atom  58H    basis set group =>   2
Atom  59H    basis set group =>   2
Atom  60H    basis set group =>   2
Atom  61H    basis set group =>   2
Atom  62H    basis set group =>   2

-------------------------
BASIS SET IN INPUT FORMAT
-------------------------

 # Basis set for element : H 
 NewGTO H 
 S 3 
   1      33.8700000000      0.0254948632
   2       5.0950000000      0.1903627659
   3       1.1590000000      0.8521620222
 S 1 
   1       0.3258000000      1.0000000000
 S 1 
   1       0.1027000000      1.0000000000
 P 1 
   1       1.4070000000      1.0000000000
 P 1 
   1       0.3880000000      1.0000000000
 D 1 
   1       1.0570000000      1.0000000000
  end;

 # Basis set for element : C 
 NewGTO C 
 S 8 
   1    8236.0000000000      0.0005424302
   2    1235.0000000000      0.0041964279
   3     280.8000000000      0.0215409141
   4      79.2700000000      0.0836149496
   5      25.5900000000      0.2398716189
   6       8.9970000000      0.4437518201
   7       3.3190000000      0.3535796965
   8       0.3643000000     -0.0091763661
 S 8 
   1    8236.0000000000     -0.0001963922
   2    1235.0000000000     -0.0015259503
   3     280.8000000000     -0.0078904490
   4      79.2700000000     -0.0315148705
   5      25.5900000000     -0.0969100083
   6       8.9970000000     -0.2205415263
   7       3.3190000000     -0.2960691129
   8       0.3643000000      1.0405034329
 S 1 
   1       0.9059000000      1.0000000000
 S 1 
   1       0.1285000000      1.0000000000
 P 3 
   1      18.7100000000      0.0394263872
   2       4.1330000000      0.2440889849
   3       1.2000000000      0.8154920089
 P 1 
   1       0.3827000000      1.0000000000
 P 1 
   1       0.1209000000      1.0000000000
 D 1 
   1       1.0970000000      1.0000000000
 D 1 
   1       0.3180000000      1.0000000000
 F 1 
   1       0.7610000000      1.0000000000
  end;

 # Basis set for element : N 
 NewGTO N 
 S 8 
   1   11420.0000000000      0.0005349809
   2    1712.0000000000      0.0041376631
   3     389.3000000000      0.0212509149
   4     110.0000000000      0.0825762988
   5      35.5700000000      0.2384132727
   6      12.5400000000      0.4434316661
   7       4.6440000000      0.3554319088
   8       0.5118000000     -0.0087029018
 S 8 
   1   11420.0000000000     -0.0001987770
   2    1712.0000000000     -0.0015470035
   3     389.3000000000     -0.0079925633
   4     110.0000000000     -0.0320255651
   5      35.5700000000     -0.0991102048
   6      12.5400000000     -0.2282927747
   7       4.6440000000     -0.2981827627
   8       0.5118000000      1.0370005182
 S 1 
   1       1.2930000000      1.0000000000
 S 1 
   1       0.1787000000      1.0000000000
 P 3 
   1      26.6300000000      0.0398072123
   2       5.9480000000      0.2490026605
   3       1.7420000000      0.8104797267
 P 1 
   1       0.5550000000      1.0000000000
 P 1 
   1       0.1725000000      1.0000000000
 D 1 
   1       1.6540000000      1.0000000000
 D 1 
   1       0.4690000000      1.0000000000
 F 1 
   1       1.0930000000      1.0000000000
  end;

---------------------------------
AUXILIARY/C BASIS SET INFORMATION
---------------------------------
There are 3 groups of distinct atoms

 Group   1 Type C   : 8s6p5d3f1g contracted to 8s6p5d3f1g pattern {11111111/111111/11111/111/1}
 Group   2 Type H   : 4s3p2d1f contracted to 4s3p2d1f pattern {1111/111/11/1}
 Group   3 Type N   : 8s6p5d3f1g contracted to 8s6p5d3f1g pattern {11111111/111111/11111/111/1}

Atom   0C    basis set group =>   1
Atom   1C    basis set group =>   1
Atom   2C    basis set group =>   1
Atom   3C    basis set group =>   1
Atom   4H    basis set group =>   2
Atom   5C    basis set group =>   1
Atom   6C    basis set group =>   1
Atom   7H    basis set group =>   2
Atom   8C    basis set group =>   1
Atom   9C    basis set group =>   1
Atom  10H    basis set group =>   2
Atom  11C    basis set group =>   1
Atom  12C    basis set group =>   1
Atom  13C    basis set group =>   1
Atom  14N    basis set group =>   3
Atom  15N    basis set group =>   3
Atom  16C    basis set group =>   1
Atom  17C    basis set group =>   1
Atom  18N    basis set group =>   3
Atom  19N    basis set group =>   3
Atom  20C    basis set group =>   1
Atom  21C    basis set group =>   1
Atom  22N    basis set group =>   3
Atom  23N    basis set group =>   3
Atom  24H    basis set group =>   2
Atom  25H    basis set group =>   2
Atom  26H    basis set group =>   2
Atom  27H    basis set group =>   2
Atom  28H    basis set group =>   2
Atom  29H    basis set group =>   2
Atom  30H    basis set group =>   2
Atom  31H    basis set group =>   2
Atom  32H    basis set group =>   2
Atom  33H    basis set group =>   2
Atom  34H    basis set group =>   2
Atom  35H    basis set group =>   2
Atom  36C    basis set group =>   1
Atom  37H    basis set group =>   2
Atom  38H    basis set group =>   2
Atom  39H    basis set group =>   2
Atom  40H    basis set group =>   2
Atom  41C    basis set group =>   1
Atom  42C    basis set group =>   1
Atom  43H    basis set group =>   2
Atom  44H    basis set group =>   2
Atom  45H    basis set group =>   2
Atom  46C    basis set group =>   1
Atom  47H    basis set group =>   2
Atom  48H    basis set group =>   2
Atom  49H    basis set group =>   2
Atom  50C    basis set group =>   1
Atom  51H    basis set group =>   2
Atom  52H    basis set group =>   2
Atom  53H    basis set group =>   2
Atom  54C    basis set group =>   1
Atom  55H    basis set group =>   2
Atom  56H    basis set group =>   2
Atom  57H    basis set group =>   2
Atom  58H    basis set group =>   2
Atom  59H    basis set group =>   2
Atom  60H    basis set group =>   2
Atom  61H    basis set group =>   2
Atom  62H    basis set group =>   2

-------------------------------------
AUXILIARY/C BASIS SET IN INPUT FORMAT
-------------------------------------

 # Auxiliary/C basis set for element : H 
 NewAuxCGTO H 
 S 1 
   1       8.5128275910      1.0000000000
 S 1 
   1       1.8730891166      1.0000000000
 S 1 
   1       0.5261842694      1.0000000000
 S 1 
   1       0.2897398994      1.0000000000
 P 1 
   1       2.3725491635      1.0000000000
 P 1 
   1       1.1804084468      1.0000000000
 P 1 
   1       0.6038220424      1.0000000000
 D 1 
   1       1.8096373189      1.0000000000
 D 1 
   1       1.1439726055      1.0000000000
 F 1 
   1       1.8063060576      1.0000000000
  end;

 # Auxiliary/C basis set for element : C 
 NewAuxCGTO C 
 S 1 
   1     280.5566118800      1.0000000000
 S 1 
   1      60.2302471910      1.0000000000
 S 1 
   1      22.1166508240      1.0000000000
 S 1 
   1       6.8620932896      1.0000000000
 S 1 
   1       1.5622549539      1.0000000000
 S 1 
   1       0.9124504549      1.0000000000
 S 1 
   1       0.5027491704      1.0000000000
 S 1 
   1       0.2158234875      1.0000000000
 P 1 
   1      24.2318651760      1.0000000000
 P 1 
   1       6.4764514185      1.0000000000
 P 1 
   1       2.1290884677      1.0000000000
 P 1 
   1       1.0375639746      1.0000000000
 P 1 
   1       0.5494127505      1.0000000000
 P 1 
   1       0.2815265223      1.0000000000
 D 1 
   1       9.7189810815      1.0000000000
 D 1 
   1       3.0351475003      1.0000000000
 D 1 
   1       1.4677737562      1.0000000000
 D 1 
   1       0.5737082791      1.0000000000
 D 1 
   1       0.2905558967      1.0000000000
 F 1 
   1       2.2756201303      1.0000000000
 F 1 
   1       1.1968898852      1.0000000000
 F 1 
   1       0.5415748722      1.0000000000
 G 1 
   1       1.2166101638      1.0000000000
  end;

 # Auxiliary/C basis set for element : N 
 NewAuxCGTO N 
 S 1 
   1     287.5092694700      1.0000000000
 S 1 
   1      64.2760308980      1.0000000000
 S 1 
   1      21.6819240160      1.0000000000
 S 1 
   1       7.9068743193      1.0000000000
 S 1 
   1       2.4319673913      1.0000000000
 S 1 
   1       1.2226681474      1.0000000000
 S 1 
   1       0.7667482736      1.0000000000
 S 1 
   1       0.3115884699      1.0000000000
 P 1 
   1      34.9650273710      1.0000000000
 P 1 
   1      10.3238966480      1.0000000000
 P 1 
   1       2.8981582643      1.0000000000
 P 1 
   1       1.4077404555      1.0000000000
 P 1 
   1       0.8508338654      1.0000000000
 P 1 
   1       0.3735327414      1.0000000000
 D 1 
   1      13.9086370890      1.0000000000
 D 1 
   1       4.5847232531      1.0000000000
 D 1 
   1       2.2101848651      1.0000000000
 D 1 
   1       0.8376830121      1.0000000000
 D 1 
   1       0.4194837561      1.0000000000
 F 1 
   1       3.4730665788      1.0000000000
 F 1 
   1       1.5589463548      1.0000000000
 F 1 
   1       0.8467763824      1.0000000000
 G 1 
   1       1.7764066281      1.0000000000
  end;



           ************************************************************
           *        Program running with 32 parallel MPI-processes    *
           *              working on a common directory               *
           ************************************************************
------------------------------------------------------------------------------
                           ORCA GTO INTEGRAL CALCULATION
------------------------------------------------------------------------------

                         BASIS SET STATISTICS AND STARTUP INFO

 # of primitive gaussian shells          ...  990
 # of primitive gaussian functions       ... 1926
 # of contracted shells                  ...  486
 # of contracted basis functions         ... 1314
 Highest angular momentum                ...    3
 Maximum contraction depth               ...    8
 Integral package used                   ... LIBINT
 Integral threshhold            Thresh   ...  2.500e-11
 Primitive cut-off              TCut     ...  2.500e-12


------------------------------ INTEGRAL EVALUATION ----------------------------


 * One electron integrals 
 Pre-screening matrix                    ... done
 Shell pair data                         ... done (   0.024 sec)



           ************************************************************
           *        Program running with 32 parallel MPI-processes    *
           *              working on a common directory               *
           ************************************************************
-------------------------------------------------------------------------------
                                 ORCA SCF
-------------------------------------------------------------------------------

------------
SCF SETTINGS
------------
Hamiltonian:
 Ab initio Hamiltonian  Method          .... Hartree-Fock(GTOs)


General Settings:
 Integral files         IntName         .... _o_1_alde1_3_ami2_1_opt_MP2
 Hartree-Fock type      HFTyp           .... RHF
 Total Charge           Charge          ....    0
 Multiplicity           Mult            ....    1
 Number of Electrons    NEL             ....  204
 Basis Dimension        Dim             .... 1314
 Nuclear Repulsion      ENuc            ....   2603.5524243306 Eh

Convergence Acceleration:
 DIIS                   CNVDIIS         .... on
   Start iteration      DIISMaxIt       ....     0
   Startup error        DIISStart       ....  0.200000
   # of expansion vecs  DIISMaxEq       ....     5
   Bias factor          DIISBfac        ....   1.050
   Max. coefficient     DIISMaxC        ....  10.000
 Newton-Raphson         CNVNR           .... off
 SOSCF                  CNVSOSCF        .... on
   Start iteration      SOSCFMaxIt      ....   150
   Startup grad/error   SOSCFStart      ....  0.001000
 Level Shifting         CNVShift        .... on
   Level shift para.    LevelShift      ....    0.2500
   Turn off err/grad.   ShiftErr        ....    0.0000
 Zerner damping         CNVZerner       .... off
 Static damping         CNVDamp         .... on
   Fraction old density DampFac         ....    0.8500
   Max. Damping (<1)    DampMax         ....    0.9800
   Min. Damping (>=0)   DampMin         ....    0.0000
   Turn off err/grad.   DampErr         ....    0.0300
 Fernandez-Rico         CNVRico         .... off

SCF Procedure:
 Maximum # iterations   MaxIter         ....   125
 SCF integral mode      SCFMode         .... Direct
   Integral package                     .... LIBINT
 Reset frequency        DirectResetFreq ....    20
 Integral Threshold     Thresh          ....  2.500e-11 Eh
 Primitive CutOff       TCut            ....  2.500e-12 Eh

Convergence Tolerance:
 Convergence Check Mode ConvCheckMode   .... Total+1el-Energy
 Convergence forced     ConvForced      .... 1
 Energy Change          TolE            ....  1.000e-08 Eh
 1-El. energy change                    ....  1.000e-05 Eh
 Orbital Gradient       TolG            ....  1.000e-05
 Orbital Rotation angle TolX            ....  1.000e-05
 DIIS Error             TolErr          ....  5.000e-07


Diagonalization of the overlap matrix:
Smallest eigenvalue                        ... 1.925e-05
Time for diagonalization                   ...    1.693 sec
Threshold for overlap eigenvalues          ... 1.000e-08
Number of eigenvalues below threshold      ... 0
Time for construction of square roots      ...    0.193 sec
Total time needed                          ...    1.889 sec

-------------------
DFT GRID GENERATION
-------------------

General Integration Accuracy     IntAcc      ...  5.340
Radial Grid Type                 RadialGrid  ... Gauss-Chebyshev
Angular Grid (max. acc.)         AngularGrid ... Lebedev-590
Angular grid pruning method      GridPruning ... 3 (G Style)
Weight generation scheme         WeightScheme... Becke
Basis function cutoff            BFCut       ...    1.0000e-11
Integration weight cutoff        WCut        ...    1.0000e-14
Grids for H and He will be reduced by one unit

# of grid points (after initial pruning)     ... 841536 (   0.0 sec)
# of grid points (after weights+screening)   ... 708811 (   0.5 sec)
nearest neighbour list constructed           ...    0.0 sec
Grid point re-assignment to atoms done       ...    0.1 sec
Grid point division into batches done        ...    6.8 sec
Reduced shell lists constructed in    7.4 sec

Total number of grid points                  ...   708811
Total number of batches                      ...    11108
Average number of points per batch           ...       63
Average number of grid points per atom       ...    11251
Average number of shells per batch           ...   216.91 (44.63%)
Average number of basis functions per batch  ...   519.99 (39.57%)
Average number of large shells per batch     ...   131.46 (60.60%)
Average number of large basis fcns per batch ...   327.58 (63.00%)
Maximum spatial batch extension              ...   5.54, 10.63,  6.93 au
Average spatial batch extension              ...   0.03,  0.03,  0.03 au

Time for grid setup =    9.373 sec

------------------------------
INITIAL GUESS: MODEL POTENTIAL
------------------------------
Loading Hartree-Fock densities                     ... done
Calculating cut-offs                               ... done
Setting up the integral package                    ... done
Initializing the effective Hamiltonian             ... done
Starting the Coulomb interaction                   ... done (   0.2 sec)
Reading the grid                                   ... done
Mapping shells                                     ... done
Starting the XC term evaluation                    ... done (   0.4 sec)
Transforming the Hamiltonian                       ... done (   0.1 sec)
Diagonalizing the Hamiltonian                      ... done (   0.3 sec)
Back transforming the eigenvectors                 ... done (   0.1 sec)
Now organizing SCF variables                       ... done
                      ------------------
                      INITIAL GUESS DONE (  10.9 sec)
                      ------------------
--------------
SCF ITERATIONS
--------------
ITER       Energy         Delta-E        Max-DP      RMS-DP      [F,P]     Damp
               ***  Starting incremental Fock matrix formation  ***
  0  -1141.8810756827   0.000000000000 0.03008201  0.00021578  0.2546492 0.8500
  1  -1142.1250145115  -0.243938828869 0.03779991  0.00023605  0.2073103 0.8500
                               ***Turning on DIIS***
  2  -1142.3201976757  -0.195183164170 0.03064043  0.00019865  0.1641558 0.8500
  3  -1147.0145251983  -4.694327522550 0.01540662  0.00013368  0.1305083 0.8500
  4  -1148.8836465819  -1.869121383614 0.00828540  0.00009500  0.1074027 0.8500
  5  -1148.7609413343   0.122705247529 0.00712787  0.00007613  0.0907905 0.8500
  6  -1148.1758440434   0.585097290932 0.00611048  0.00006448  0.0775180 0.8500
  7  -1147.2834651214   0.892378921957 0.00522878  0.00005600  0.0663523 0.8500
  8  -1146.5873023806   0.696162740827 0.00446381  0.00004855  0.0565555 0.8500
  9  -1146.0562165919   0.531085788749 0.00380315  0.00004183  0.0480744 0.8500
 10  -1145.6258439563   0.430372635547 0.00323677  0.00003591  0.0408435 0.8500
 11  -1145.2628750562   0.362968900085 0.00275358  0.00003079  0.0347087 0.8500
 12  -1144.9522860067   0.310589049590 0.01561669  0.00017595  0.0294998 0.0000
                      *** Initiating the SOSCF procedure ***
                           *** Shutting down DIIS ***
                      *** Re-Reading the Fockian *** 
                      *** Removing any level shift *** 
ITER      Energy       Delta-E        Grad      Rot      Max-DP    RMS-DP
 13  -1143.23211592   1.7201700875  0.000168  0.000168  0.001973  0.000011
               *** Restarting incremental Fock matrix formation ***
 14  -1143.24110548  -0.0089895652  0.000082  0.000135  0.000934  0.000007
 15  -1143.24111158  -0.0000060910  0.000033  0.000085  0.000837  0.000005
 16  -1143.24111250  -0.0000009248  0.000016  0.000028  0.000104  0.000001
 17  -1143.24111258  -0.0000000794  0.000008  0.000015  0.000017  0.000000
 18  -1143.24111257   0.0000000094  0.000004  0.000008  0.000017  0.000000
                  ***Gradient check signals convergence***
              ***Rediagonalizing the Fockian in SOSCF/NRSCF***

               *****************************************************
               *                     SUCCESS                       *
               *           SCF CONVERGED AFTER  19 CYCLES          *
               *****************************************************


----------------
TOTAL SCF ENERGY
----------------

Total Energy       :        -1143.24111253 Eh          -31109.17223 eV

Components:
Nuclear Repulsion  :         2603.55242433 Eh           70846.26322 eV
Electronic Energy  :        -3746.79353686 Eh         -101955.43545 eV
One Electron Energy:        -6733.03848667 Eh         -183215.29171 eV
Two Electron Energy:         2986.24494981 Eh           81259.85626 eV

Virial components:
Potential Energy   :        -2285.43327298 Eh          -62189.80103 eV
Kinetic Energy     :         1142.19216045 Eh           31080.62879 eV
Virial Ratio       :            2.00091837


---------------
SCF CONVERGENCE
---------------

  Last Energy change         ...    3.8127e-08  Tolerance :   1.0000e-08
  Last MAX-Density change    ...    6.5936e-06  Tolerance :   1.0000e-07
  Last RMS-Density change    ...    3.6987e-08  Tolerance :   5.0000e-09
  Last Orbital Gradient      ...    1.5743e-06  Tolerance :   1.0000e-05
  Last Orbital Rotation      ...    4.0261e-06  Tolerance :   1.0000e-05

             **** THE GBW FILE WAS UPDATED (_o_1_alde1_3_ami2_1_opt_MP2.gbw) ****
             **** DENSITY FILE WAS UPDATED (_o_1_alde1_3_ami2_1_opt_MP2.scfp) ****
             **** ENERGY FILE WAS UPDATED (_o_1_alde1_3_ami2_1_opt_MP2.en.tmp) ****
             **** THE GBW FILE WAS UPDATED (_o_1_alde1_3_ami2_1_opt_MP2.gbw) ****
             **** DENSITY FILE WAS UPDATED (_o_1_alde1_3_ami2_1_opt_MP2.scfp) ****
----------------
ORBITAL ENERGIES
----------------

  NO   OCC          E(Eh)            E(eV) 
   0   2.0000     -15.536829      -422.7786 
   1   2.0000     -15.536534      -422.7706 
   2   2.0000     -15.536303      -422.7643 
   3   2.0000     -15.530459      -422.6053 
   4   2.0000     -15.529331      -422.5746 
   5   2.0000     -15.529243      -422.5722 
   6   2.0000     -11.276522      -306.8498 
   7   2.0000     -11.276103      -306.8384 
   8   2.0000     -11.275214      -306.8142 
   9   2.0000     -11.255014      -306.2645 
  10   2.0000     -11.254319      -306.2456 
  11   2.0000     -11.254158      -306.2412 
  12   2.0000     -11.239887      -305.8529 
  13   2.0000     -11.239507      -305.8425 
  14   2.0000     -11.239334      -305.8378 
  15   2.0000     -11.222498      -305.3797 
  16   2.0000     -11.221625      -305.3559 
  17   2.0000     -11.220865      -305.3353 
  18   2.0000     -11.217316      -305.2387 
  19   2.0000     -11.214339      -305.1577 
  20   2.0000     -11.214291      -305.1564 
  21   2.0000     -11.214242      -305.1550 
  22   2.0000     -11.213451      -305.1335 
  23   2.0000     -11.210555      -305.0547 
  24   2.0000     -11.204768      -304.8972 
  25   2.0000     -11.204276      -304.8839 
  26   2.0000     -11.204255      -304.8833 
  27   2.0000      -1.268993       -34.5310 
  28   2.0000      -1.267475       -34.4898 
  29   2.0000      -1.266624       -34.4666 
  30   2.0000      -1.149965       -31.2921 
  31   2.0000      -1.138409       -30.9777 
  32   2.0000      -1.138242       -30.9731 
  33   2.0000      -1.136622       -30.9291 
  34   2.0000      -1.068000       -29.0617 
  35   2.0000      -1.067029       -29.0353 
  36   2.0000      -1.045963       -28.4621 
  37   2.0000      -1.008439       -27.4410 
  38   2.0000      -1.004249       -27.3270 
  39   2.0000      -0.936918       -25.4948 
  40   2.0000      -0.936807       -25.4918 
  41   2.0000      -0.936102       -25.4726 
  42   2.0000      -0.917783       -24.9741 
  43   2.0000      -0.912964       -24.8430 
  44   2.0000      -0.911783       -24.8109 
  45   2.0000      -0.861917       -23.4539 
  46   2.0000      -0.850519       -23.1438 
  47   2.0000      -0.839418       -22.8417 
  48   2.0000      -0.782271       -21.2867 
  49   2.0000      -0.766759       -20.8646 
  50   2.0000      -0.759440       -20.6654 
  51   2.0000      -0.758614       -20.6429 
  52   2.0000      -0.758486       -20.6395 
  53   2.0000      -0.701835       -19.0979 
  54   2.0000      -0.688485       -18.7346 
  55   2.0000      -0.670739       -18.2517 
  56   2.0000      -0.664963       -18.0946 
  57   2.0000      -0.658527       -17.9194 
  58   2.0000      -0.655379       -17.8338 
  59   2.0000      -0.649502       -17.6738 
  60   2.0000      -0.620690       -16.8898 
  61   2.0000      -0.607920       -16.5423 
  62   2.0000      -0.606113       -16.4932 
  63   2.0000      -0.604114       -16.4388 
  64   2.0000      -0.602287       -16.3891 
  65   2.0000      -0.594316       -16.1722 
  66   2.0000      -0.592876       -16.1330 
  67   2.0000      -0.583332       -15.8733 
  68   2.0000      -0.580533       -15.7971 
  69   2.0000      -0.563706       -15.3392 
  70   2.0000      -0.557027       -15.1575 
  71   2.0000      -0.553994       -15.0749 
  72   2.0000      -0.552069       -15.0226 
  73   2.0000      -0.544304       -14.8113 
  74   2.0000      -0.542611       -14.7652 
  75   2.0000      -0.541464       -14.7340 
  76   2.0000      -0.534450       -14.5431 
  77   2.0000      -0.533618       -14.5205 
  78   2.0000      -0.532671       -14.4947 
  79   2.0000      -0.509389       -13.8612 
  80   2.0000      -0.508895       -13.8477 
  81   2.0000      -0.508371       -13.8335 
  82   2.0000      -0.502772       -13.6811 
  83   2.0000      -0.501323       -13.6417 
  84   2.0000      -0.500294       -13.6137 
  85   2.0000      -0.496651       -13.5146 
  86   2.0000      -0.494594       -13.4586 
  87   2.0000      -0.488835       -13.3019 
  88   2.0000      -0.471622       -12.8335 
  89   2.0000      -0.469579       -12.7779 
  90   2.0000      -0.468240       -12.7415 
  91   2.0000      -0.467645       -12.7253 
  92   2.0000      -0.462711       -12.5910 
  93   2.0000      -0.457047       -12.4369 
  94   2.0000      -0.381621       -10.3844 
  95   2.0000      -0.380619       -10.3572 
  96   2.0000      -0.379931       -10.3384 
  97   2.0000      -0.367437        -9.9985 
  98   2.0000      -0.365073        -9.9341 
  99   2.0000      -0.362576        -9.8662 
 100   2.0000      -0.317799        -8.6477 
 101   2.0000      -0.312705        -8.5091 
 102   0.0000       0.130048         3.5388 
 103   0.0000       0.130841         3.5604 
 104   0.0000       0.134427         3.6579 
 105   0.0000       0.138071         3.7571 
 106   0.0000       0.139354         3.7920 
 107   0.0000       0.153744         4.1836 
 108   0.0000       0.156775         4.2661 
 109   0.0000       0.163362         4.4453 
 110   0.0000       0.170672         4.6442 
 111   0.0000       0.175836         4.7847 
 112   0.0000       0.181414         4.9365 
 113   0.0000       0.183060         4.9813 
 114   0.0000       0.187151         5.0926 
 115   0.0000       0.191038         5.1984 
 116   0.0000       0.196713         5.3528 
 117   0.0000       0.197144         5.3646 
 118   0.0000       0.198690         5.4066 
 119   0.0000       0.202218         5.5026 
 120   0.0000       0.205787         5.5998 
 121   0.0000       0.207297         5.6408 
 122   0.0000       0.210605         5.7309 
 123   0.0000       0.213404         5.8070 
 124   0.0000       0.217952         5.9308 
 125   0.0000       0.228490         6.2175 
 126   0.0000       0.231698         6.3048 
 127   0.0000       0.243567         6.6278 
 128   0.0000       0.244551         6.6546 
 129   0.0000       0.245329         6.6757 
 130   0.0000       0.248708         6.7677 
 131   0.0000       0.251901         6.8546 
 132   0.0000       0.260643         7.0924 
 133   0.0000       0.262730         7.1493 
 134   0.0000       0.266287         7.2460 
 135   0.0000       0.271383         7.3847 
 136   0.0000       0.279189         7.5971 
 137   0.0000       0.282516         7.6876 
 138   0.0000       0.290546         7.9062 
 139   0.0000       0.293139         7.9767 
 140   0.0000       0.298158         8.1133 
 141   0.0000       0.303393         8.2557 
 142   0.0000       0.306765         8.3475 
 143   0.0000       0.315737         8.5916 
 144   0.0000       0.322038         8.7631 
 145   0.0000       0.323773         8.8103 
 146   0.0000       0.328024         8.9260 
 147   0.0000       0.330465         8.9924 
 148   0.0000       0.333561         9.0767 
 149   0.0000       0.334946         9.1143 
 150   0.0000       0.346315         9.4237 
 151   0.0000       0.347182         9.4473 
 152   0.0000       0.355620         9.6769 
 153   0.0000       0.366012         9.9597 
 154   0.0000       0.367948        10.0124 
 155   0.0000       0.374986        10.2039 
 156   0.0000       0.383398        10.4328 
 157   0.0000       0.388451        10.5703 
 158   0.0000       0.391089        10.6421 
 159   0.0000       0.404134        10.9971 
 160   0.0000       0.414868        11.2891 
 161   0.0000       0.419833        11.4242 
 162   0.0000       0.422264        11.4904 
 163   0.0000       0.424837        11.5604 
 164   0.0000       0.426794        11.6136 
 165   0.0000       0.432332        11.7644 
 166   0.0000       0.442877        12.0513 
 167   0.0000       0.444440        12.0938 
 168   0.0000       0.447710        12.1828 
 169   0.0000       0.448701        12.2098 
 170   0.0000       0.451559        12.2875 
 171   0.0000       0.458340        12.4721 
 172   0.0000       0.464460        12.6386 
 173   0.0000       0.465297        12.6614 
 174   0.0000       0.474475        12.9111 
 175   0.0000       0.480428        13.0731 
 176   0.0000       0.486025        13.2254 
 177   0.0000       0.490261        13.3407 
 178   0.0000       0.492093        13.3905 
 179   0.0000       0.495470        13.4824 
 180   0.0000       0.501307        13.6413 
 181   0.0000       0.507162        13.8006 
 182   0.0000       0.509277        13.8581 
 183   0.0000       0.513586        13.9754 
 184   0.0000       0.520789        14.1714 
 185   0.0000       0.523425        14.2431 
 186   0.0000       0.527483        14.3535 
 187   0.0000       0.528745        14.3879 
 188   0.0000       0.530665        14.4401 
 189   0.0000       0.535369        14.5681 
 190   0.0000       0.541833        14.7440 
 191   0.0000       0.545575        14.8459 
 192   0.0000       0.546352        14.8670 
 193   0.0000       0.553439        15.0598 
 194   0.0000       0.559706        15.2304 
 195   0.0000       0.561662        15.2836 
 196   0.0000       0.564652        15.3650 
 197   0.0000       0.567754        15.4494 
 198   0.0000       0.571725        15.5574 
 199   0.0000       0.572502        15.5786 
 200   0.0000       0.575806        15.6685 
 201   0.0000       0.583970        15.8906 
 202   0.0000       0.585854        15.9419 
 203   0.0000       0.590924        16.0799 
 204   0.0000       0.594095        16.1662 
 205   0.0000       0.595616        16.2075 
 206   0.0000       0.597850        16.2683 
 207   0.0000       0.603151        16.4126 
 208   0.0000       0.606247        16.4968 
 209   0.0000       0.608229        16.5507 
 210   0.0000       0.610845        16.6219 
 211   0.0000       0.613035        16.6815 
 212   0.0000       0.615305        16.7433 
 213   0.0000       0.617240        16.7960 
 214   0.0000       0.621325        16.9071 
 215   0.0000       0.624377        16.9902 
 216   0.0000       0.627935        17.0870 
 217   0.0000       0.630556        17.1583 
 218   0.0000       0.633145        17.2288 
 219   0.0000       0.633902        17.2494 
 220   0.0000       0.637944        17.3594 
 221   0.0000       0.640818        17.4375 
 222   0.0000       0.641839        17.4653 
 223   0.0000       0.645863        17.5748 
 224   0.0000       0.649712        17.6796 
 225   0.0000       0.651000        17.7146 
 226   0.0000       0.652342        17.7511 
 227   0.0000       0.655255        17.8304 
 228   0.0000       0.656255        17.8576 
 229   0.0000       0.662639        18.0313 
 230   0.0000       0.664016        18.0688 
 231   0.0000       0.665432        18.1073 
 232   0.0000       0.669611        18.2210 
 233   0.0000       0.673147        18.3173 
 234   0.0000       0.675848        18.3908 
 235   0.0000       0.677656        18.4400 
 236   0.0000       0.679849        18.4996 
 237   0.0000       0.682201        18.5636 
 238   0.0000       0.688586        18.7374 
 239   0.0000       0.692998        18.8574 
 240   0.0000       0.693522        18.8717 
 241   0.0000       0.695056        18.9134 
 242   0.0000       0.696555        18.9542 
 243   0.0000       0.701494        19.0886 
 244   0.0000       0.707015        19.2389 
 245   0.0000       0.717796        19.5322 
 246   0.0000       0.719317        19.5736 
 247   0.0000       0.724892        19.7253 
 248   0.0000       0.727160        19.7870 
 249   0.0000       0.731305        19.8998 
 250   0.0000       0.732917        19.9437 
 251   0.0000       0.733451        19.9582 
 252   0.0000       0.739825        20.1317 
 253   0.0000       0.751120        20.4390 
 254   0.0000       0.754878        20.5413 
 255   0.0000       0.761433        20.7196 
 256   0.0000       0.763520        20.7764 
 257   0.0000       0.767220        20.8771 
 258   0.0000       0.769587        20.9415 
 259   0.0000       0.772751        21.0276 
 260   0.0000       0.777522        21.1574 
 261   0.0000       0.780501        21.2385 
 262   0.0000       0.783657        21.3244 
 263   0.0000       0.788961        21.4687 
 264   0.0000       0.793294        21.5866 
 265   0.0000       0.797599        21.7038 
 266   0.0000       0.800532        21.7836 
 267   0.0000       0.805181        21.9101 
 268   0.0000       0.808217        21.9927 
 269   0.0000       0.814012        22.1504 
 270   0.0000       0.823458        22.4074 
 271   0.0000       0.830562        22.6007 
 272   0.0000       0.834566        22.7097 
 273   0.0000       0.842315        22.9206 
 274   0.0000       0.850316        23.1383 
 275   0.0000       0.851009        23.1571 
 276   0.0000       0.859918        23.3996 
 277   0.0000       0.865495        23.5513 
 278   0.0000       0.869502        23.6604 
 279   0.0000       0.880221        23.9520 
 280   0.0000       0.885551        24.0971 
 281   0.0000       0.892753        24.2930 
 282   0.0000       0.898818        24.4581 
 283   0.0000       0.902676        24.5631 
 284   0.0000       0.907070        24.6826 
 285   0.0000       0.916705        24.9448 
 286   0.0000       0.923310        25.1245 
 287   0.0000       0.926274        25.2052 
 288   0.0000       0.928535        25.2667 
 289   0.0000       0.940863        25.6022 
 290   0.0000       0.942164        25.6376 
 291   0.0000       0.943490        25.6737 
 292   0.0000       0.947475        25.7821 
 293   0.0000       0.958339        26.0777 
 294   0.0000       0.961032        26.1510 
 295   0.0000       0.964929        26.2571 
 296   0.0000       0.969638        26.3852 
 297   0.0000       0.975573        26.5467 
 298   0.0000       0.983438        26.7607 
 299   0.0000       0.984519        26.7901 
 300   0.0000       0.991469        26.9792 
 301   0.0000       0.997286        27.1375 
 302   0.0000       0.998675        27.1753 
 303   0.0000       1.009086        27.4586 
 304   0.0000       1.013250        27.5719 
 305   0.0000       1.018820        27.7235 
 306   0.0000       1.022483        27.8232 
 307   0.0000       1.026088        27.9213 
 308   0.0000       1.031099        28.0576 
 309   0.0000       1.039761        28.2933 
 310   0.0000       1.041632        28.3443 
 311   0.0000       1.044136        28.4124 
 312   0.0000       1.054128        28.6843 
 313   0.0000       1.063302        28.9339 
 314   0.0000       1.066643        29.0248 
 315   0.0000       1.076761        29.3002 
 316   0.0000       1.081920        29.4405 
 317   0.0000       1.089101        29.6360 
 318   0.0000       1.092724        29.7345 
 319   0.0000       1.095213        29.8023 
 320   0.0000       1.099066        29.9071 
 321   0.0000       1.106361        30.1056 
 322   0.0000       1.113826        30.3087 
 323   0.0000       1.117270        30.4025 
 324   0.0000       1.118556        30.4375 
 325   0.0000       1.123191        30.5636 
 326   0.0000       1.125630        30.6300 
 327   0.0000       1.127725        30.6870 
 328   0.0000       1.135182        30.8899 
 329   0.0000       1.141637        31.0655 
 330   0.0000       1.142884        31.0994 
 331   0.0000       1.143212        31.1084 
 332   0.0000       1.150149        31.2971 
 333   0.0000       1.151757        31.3409 
 334   0.0000       1.157004        31.4837 
 335   0.0000       1.159900        31.5625 
 336   0.0000       1.164664        31.6921 
 337   0.0000       1.165865        31.7248 
 338   0.0000       1.169313        31.8186 
 339   0.0000       1.171025        31.8652 
 340   0.0000       1.176650        32.0183 
 341   0.0000       1.182287        32.1717 
 342   0.0000       1.185176        32.2503 
 343   0.0000       1.186327        32.2816 
 344   0.0000       1.188188        32.3322 
 345   0.0000       1.190445        32.3937 
 346   0.0000       1.197259        32.5791 
 347   0.0000       1.200958        32.6797 
 348   0.0000       1.205743        32.8099 
 349   0.0000       1.207495        32.8576 
 350   0.0000       1.213245        33.0141 
 351   0.0000       1.219173        33.1754 
 352   0.0000       1.225076        33.3360 
 353   0.0000       1.227991        33.4153 
 354   0.0000       1.232856        33.5477 
 355   0.0000       1.234378        33.5891 
 356   0.0000       1.238657        33.7056 
 357   0.0000       1.244330        33.8599 
 358   0.0000       1.246135        33.9091 
 359   0.0000       1.249699        34.0060 
 360   0.0000       1.255556        34.1654 
 361   0.0000       1.260324        34.2952 
 362   0.0000       1.266798        34.4713 
 363   0.0000       1.273368        34.6501 
 364   0.0000       1.279627        34.8204 
 365   0.0000       1.281854        34.8810 
 366   0.0000       1.285204        34.9722 
 367   0.0000       1.288717        35.0678 
 368   0.0000       1.295512        35.2527 
 369   0.0000       1.298298        35.3285 
 370   0.0000       1.304130        35.4872 
 371   0.0000       1.309425        35.6313 
 372   0.0000       1.318413        35.8758 
 373   0.0000       1.322503        35.9871 
 374   0.0000       1.325541        36.0698 
 375   0.0000       1.332692        36.2644 
 376   0.0000       1.339844        36.4590 
 377   0.0000       1.344271        36.5795 
 378   0.0000       1.345506        36.6131 
 379   0.0000       1.349017        36.7086 
 380   0.0000       1.358786        36.9744 
 381   0.0000       1.363076        37.0912 
 382   0.0000       1.365413        37.1548 
 383   0.0000       1.369925        37.2776 
 384   0.0000       1.373018        37.3617 
 385   0.0000       1.377702        37.4892 
 386   0.0000       1.380331        37.5607 
 387   0.0000       1.386672        37.7333 
 388   0.0000       1.389812        37.8187 
 389   0.0000       1.396789        38.0086 
 390   0.0000       1.399105        38.0716 
 391   0.0000       1.404697        38.2238 
 392   0.0000       1.409117        38.3440 
 393   0.0000       1.410807        38.3900 
 394   0.0000       1.415027        38.5048 
 395   0.0000       1.418986        38.6126 
 396   0.0000       1.419696        38.6319 
 397   0.0000       1.424620        38.7659 
 398   0.0000       1.432049        38.9680 
 399   0.0000       1.438907        39.1546 
 400   0.0000       1.440265        39.1916 
 401   0.0000       1.447192        39.3801 
 402   0.0000       1.448821        39.4244 
 403   0.0000       1.454450        39.5776 
 404   0.0000       1.461771        39.7768 
 405   0.0000       1.462549        39.7980 
 406   0.0000       1.467689        39.9379 
 407   0.0000       1.470846        40.0238 
 408   0.0000       1.473360        40.0922 
 409   0.0000       1.475645        40.1543 
 410   0.0000       1.483663        40.3725 
 411   0.0000       1.487477        40.4763 
 412   0.0000       1.492321        40.6081 
 413   0.0000       1.493694        40.6455 
 414   0.0000       1.498168        40.7672 
 415   0.0000       1.503463        40.9113 
 416   0.0000       1.504282        40.9336 
 417   0.0000       1.510720        41.1088 
 418   0.0000       1.512762        41.1643 
 419   0.0000       1.515692        41.2441 
 420   0.0000       1.516393        41.2631 
 421   0.0000       1.520009        41.3615 
 422   0.0000       1.523316        41.4515 
 423   0.0000       1.528246        41.5857 
 424   0.0000       1.532852        41.7110 
 425   0.0000       1.535884        41.7935 
 426   0.0000       1.536579        41.8125 
 427   0.0000       1.542315        41.9685 
 428   0.0000       1.544811        42.0364 
 429   0.0000       1.548344        42.1326 
 430   0.0000       1.553838        42.2821 
 431   0.0000       1.557307        42.3765 
 432   0.0000       1.559764        42.4433 
 433   0.0000       1.566479        42.6260 
 434   0.0000       1.569070        42.6966 
 435   0.0000       1.577909        42.9371 
 436   0.0000       1.579044        42.9680 
 437   0.0000       1.581595        43.0374 
 438   0.0000       1.584076        43.1049 
 439   0.0000       1.594311        43.3834 
 440   0.0000       1.598859        43.5072 
 441   0.0000       1.602038        43.5937 
 442   0.0000       1.604745        43.6673 
 443   0.0000       1.609154        43.7873 
 444   0.0000       1.614015        43.9196 
 445   0.0000       1.619525        44.0695 
 446   0.0000       1.620699        44.1015 
 447   0.0000       1.621973        44.1361 
 448   0.0000       1.623982        44.1908 
 449   0.0000       1.627211        44.2787 
 450   0.0000       1.637491        44.5584 
 451   0.0000       1.641658        44.6718 
 452   0.0000       1.643398        44.7191 
 453   0.0000       1.647841        44.8400 
 454   0.0000       1.654749        45.0280 
 455   0.0000       1.657133        45.0929 
 456   0.0000       1.663888        45.2767 
 457   0.0000       1.668066        45.3904 
 458   0.0000       1.670725        45.4627 
 459   0.0000       1.676297        45.6143 
 460   0.0000       1.679350        45.6974 
 461   0.0000       1.684713        45.8434 
 462   0.0000       1.686369        45.8884 
 463   0.0000       1.696647        46.1681 
 464   0.0000       1.707329        46.4588 
 465   0.0000       1.714888        46.6645 
 466   0.0000       1.716799        46.7165 
 467   0.0000       1.721625        46.8478 
 468   0.0000       1.725012        46.9400 
 469   0.0000       1.732107        47.1330 
 470   0.0000       1.736164        47.2434 
 471   0.0000       1.736526        47.2533 
 472   0.0000       1.741679        47.3935 
 473   0.0000       1.744303        47.4649 
 474   0.0000       1.747761        47.5590 
 475   0.0000       1.754873        47.7525 
 476   0.0000       1.756021        47.7838 
 477   0.0000       1.764956        48.0269 
 478   0.0000       1.770468        48.1769 
 479   0.0000       1.776774        48.3485 
 480   0.0000       1.783698        48.5369 
 481   0.0000       1.787011        48.6270 
 482   0.0000       1.793754        48.8105 
 483   0.0000       1.794729        48.8371 
 484   0.0000       1.798170        48.9307 
 485   0.0000       1.802415        49.0462 
 486   0.0000       1.803409        49.0733 
 487   0.0000       1.808272        49.2056 
 488   0.0000       1.808553        49.2132 
 489   0.0000       1.818657        49.4882 
 490   0.0000       1.823341        49.6156 
 491   0.0000       1.829484        49.7828 
 492   0.0000       1.830853        49.8201 
 493   0.0000       1.848868        50.3102 
 494   0.0000       1.852519        50.4096 
 495   0.0000       1.860252        50.6200 
 496   0.0000       1.867986        50.8305 
 497   0.0000       1.868262        50.8380 
 498   0.0000       1.871784        50.9338 
 499   0.0000       1.881023        51.1853 
 500   0.0000       1.885905        51.3181 
 501   0.0000       1.890557        51.4447 
 502   0.0000       1.895732        51.5855 
 503   0.0000       1.908145        51.9233 
 504   0.0000       1.913337        52.0646 
 505   0.0000       1.920562        52.2612 
 506   0.0000       1.923630        52.3446 
 507   0.0000       1.935119        52.6573 
 508   0.0000       1.942871        52.8682 
 509   0.0000       1.953674        53.1622 
 510   0.0000       1.956211        53.2312 
 511   0.0000       1.958318        53.2885 
 512   0.0000       1.968945        53.5777 
 513   0.0000       1.975495        53.7559 
 514   0.0000       1.980132        53.8821 
 515   0.0000       1.984004        53.9875 
 516   0.0000       1.990882        54.1746 
 517   0.0000       2.002923        54.5023 
 518   0.0000       2.015109        54.8339 
 519   0.0000       2.030787        55.2605 
 520   0.0000       2.042297        55.5737 
 521   0.0000       2.043247        55.5996 
 522   0.0000       2.043911        55.6176 
 523   0.0000       2.045457        55.6597 
 524   0.0000       2.061966        56.1089 
 525   0.0000       2.067516        56.2600 
 526   0.0000       2.081860        56.6503 
 527   0.0000       2.086498        56.7765 
 528   0.0000       2.092356        56.9359 
 529   0.0000       2.097836        57.0850 
 530   0.0000       2.113209        57.5033 
 531   0.0000       2.122027        57.7433 
 532   0.0000       2.125592        57.8403 
 533   0.0000       2.136377        58.1338 
 534   0.0000       2.141187        58.2647 
 535   0.0000       2.145730        58.3883 
 536   0.0000       2.153967        58.6124 
 537   0.0000       2.177955        59.2652 
 538   0.0000       2.189606        59.5822 
 539   0.0000       2.202235        59.9259 
 540   0.0000       2.210425        60.1487 
 541   0.0000       2.234820        60.8125 
 542   0.0000       2.238323        60.9079 
 543   0.0000       2.254491        61.3478 
 544   0.0000       2.261855        61.5482 
 545   0.0000       2.271257        61.8041 
 546   0.0000       2.289011        62.2872 
 547   0.0000       2.292815        62.3907 
 548   0.0000       2.308723        62.8236 
 549   0.0000       2.321808        63.1796 
 550   0.0000       2.335736        63.5586 
 551   0.0000       2.341271        63.7092 
 552   0.0000       2.351989        64.0009 
 553   0.0000       2.379540        64.7506 
 554   0.0000       2.393547        65.1317 
 555   0.0000       2.460307        66.9483 
 556   0.0000       2.492327        67.8197 
 557   0.0000       2.523355        68.6640 
 558   0.0000       2.549623        69.3788 
 559   0.0000       2.566556        69.8396 
 560   0.0000       2.574703        70.0612 
 561   0.0000       2.580988        70.2323 
 562   0.0000       2.620848        71.3169 
 563   0.0000       2.626583        71.4730 
 564   0.0000       2.632673        71.6387 
 565   0.0000       2.636438        71.7411 
 566   0.0000       2.646118        72.0045 
 567   0.0000       2.659577        72.3708 
 568   0.0000       2.667153        72.5769 
 569   0.0000       2.672961        72.7350 
 570   0.0000       2.682606        72.9974 
 571   0.0000       2.690436        73.2105 
 572   0.0000       2.704716        73.5991 
 573   0.0000       2.712482        73.8104 
 574   0.0000       2.715434        73.8907 
 575   0.0000       2.717842        73.9562 
 576   0.0000       2.721884        74.0662 
 577   0.0000       2.734724        74.4156 
 578   0.0000       2.744119        74.6713 
 579   0.0000       2.754718        74.9597 
 580   0.0000       2.758203        75.0545 
 581   0.0000       2.759739        75.0963 
 582   0.0000       2.763410        75.1962 
 583   0.0000       2.771377        75.4130 
 584   0.0000       2.778028        75.5940 
 585   0.0000       2.786922        75.8360 
 586   0.0000       2.791653        75.9647 
 587   0.0000       2.793808        76.0234 
 588   0.0000       2.796266        76.0903 
 589   0.0000       2.802283        76.2540 
 590   0.0000       2.805114        76.3310 
 591   0.0000       2.813661        76.5636 
 592   0.0000       2.822397        76.8013 
 593   0.0000       2.836153        77.1757 
 594   0.0000       2.846186        77.4487 
 595   0.0000       2.853503        77.6478 
 596   0.0000       2.862053        77.8804 
 597   0.0000       2.868026        78.0429 
 598   0.0000       2.876648        78.2776 
 599   0.0000       2.881594        78.4122 
 600   0.0000       2.889161        78.6181 
 601   0.0000       2.891705        78.6873 
 602   0.0000       2.896279        78.8118 
 603   0.0000       2.898561        78.8738 
 604   0.0000       2.906128        79.0798 
 605   0.0000       2.912718        79.2591 
 606   0.0000       2.915386        79.3317 
 607   0.0000       2.918765        79.4236 
 608   0.0000       2.920835        79.4800 
 609   0.0000       2.921356        79.4941 
 610   0.0000       2.929300        79.7103 
 611   0.0000       2.938567        79.9625 
 612   0.0000       2.941701        80.0478 
 613   0.0000       2.946363        80.1746 
 614   0.0000       2.949569        80.2619 
 615   0.0000       2.957539        80.4787 
 616   0.0000       2.960492        80.5591 
 617   0.0000       2.967326        80.7450 
 618   0.0000       2.973275        80.9069 
 619   0.0000       2.975242        80.9604 
 620   0.0000       2.978620        81.0524 
 621   0.0000       2.983116        81.1747 
 622   0.0000       2.987335        81.2895 
 623   0.0000       2.998764        81.6005 
 624   0.0000       2.999897        81.6314 
 625   0.0000       3.001186        81.6664 
 626   0.0000       3.006171        81.8021 
 627   0.0000       3.007923        81.8498 
 628   0.0000       3.012938        81.9862 
 629   0.0000       3.018692        82.1428 
 630   0.0000       3.023953        82.2860 
 631   0.0000       3.030853        82.4737 
 632   0.0000       3.035688        82.6053 
 633   0.0000       3.044739        82.8516 
 634   0.0000       3.053137        83.0801 
 635   0.0000       3.057840        83.2081 
 636   0.0000       3.064457        83.3881 
 637   0.0000       3.068784        83.5059 
 638   0.0000       3.072174        83.5981 
 639   0.0000       3.077966        83.7557 
 640   0.0000       3.080477        83.8240 
 641   0.0000       3.087454        84.0139 
 642   0.0000       3.091506        84.1242 
 643   0.0000       3.104518        84.4782 
 644   0.0000       3.106770        84.5395 
 645   0.0000       3.110729        84.6472 
 646   0.0000       3.111809        84.6766 
 647   0.0000       3.116923        84.8158 
 648   0.0000       3.124782        85.0296 
 649   0.0000       3.125433        85.0474 
 650   0.0000       3.128492        85.1306 
 651   0.0000       3.134512        85.2944 
 652   0.0000       3.144664        85.5707 
 653   0.0000       3.148404        85.6724 
 654   0.0000       3.151397        85.7539 
 655   0.0000       3.156791        85.9007 
 656   0.0000       3.161223        86.0213 
 657   0.0000       3.165145        86.1280 
 658   0.0000       3.167570        86.1940 
 659   0.0000       3.172997        86.3416 
 660   0.0000       3.173715        86.3612 
 661   0.0000       3.178228        86.4840 
 662   0.0000       3.178884        86.5018 
 663   0.0000       3.182748        86.6070 
 664   0.0000       3.188225        86.7560 
 665   0.0000       3.197692        87.0136 
 666   0.0000       3.200179        87.0813 
 667   0.0000       3.208480        87.3072 
 668   0.0000       3.213988        87.4570 
 669   0.0000       3.215264        87.4918 
 670   0.0000       3.220635        87.6379 
 671   0.0000       3.223343        87.7116 
 672   0.0000       3.226337        87.7931 
 673   0.0000       3.234106        88.0045 
 674   0.0000       3.237005        88.0834 
 675   0.0000       3.245793        88.3225 
 676   0.0000       3.251936        88.4897 
 677   0.0000       3.257210        88.6332 
 678   0.0000       3.266737        88.8924 
 679   0.0000       3.272858        89.0590 
 680   0.0000       3.275068        89.1191 
 681   0.0000       3.285484        89.4026 
 682   0.0000       3.289582        89.5141 
 683   0.0000       3.294871        89.6580 
 684   0.0000       3.297332        89.7250 
 685   0.0000       3.301826        89.8473 
 686   0.0000       3.304578        89.9221 
 687   0.0000       3.306711        89.9802 
 688   0.0000       3.308257        90.0222 
 689   0.0000       3.315614        90.2224 
 690   0.0000       3.320154        90.3460 
 691   0.0000       3.324377        90.4609 
 692   0.0000       3.325918        90.5028 
 693   0.0000       3.326516        90.5191 
 694   0.0000       3.332433        90.6801 
 695   0.0000       3.334001        90.7228 
 696   0.0000       3.334761        90.7435 
 697   0.0000       3.341690        90.9320 
 698   0.0000       3.342019        90.9409 
 699   0.0000       3.344899        91.0193 
 700   0.0000       3.352905        91.2372 
 701   0.0000       3.354299        91.2751 
 702   0.0000       3.357534        91.3631 
 703   0.0000       3.364122        91.5424 
 704   0.0000       3.367638        91.6381 
 705   0.0000       3.370421        91.7138 
 706   0.0000       3.375333        91.8475 
 707   0.0000       3.379467        91.9600 
 708   0.0000       3.380706        91.9937 
 709   0.0000       3.382602        92.0453 
 710   0.0000       3.385488        92.1238 
[...]
      pz      :     0.063124  p :     0.151847
      px      :     0.043137
      py      :     0.045585
      dz2     :     0.008578  d :     0.028492
      dxz     :     0.007506
      dyz     :     0.006528
      dx2y2   :     0.002662
      dxy     :     0.003217
 50 C s       :     2.657426  s :     2.657426
      pz      :     0.958714  p :     2.880458
      px      :     0.947662
      py      :     0.974081
      dz2     :     0.090548  d :     0.321889
      dxz     :     0.061454
      dyz     :     0.031233
      dx2y2   :     0.090581
      dxy     :     0.048073
      f0      :     0.003948  f :     0.030200
      f+1     :     0.003946
      f-1     :     0.004318
      f+2     :     0.003849
      f-2     :     0.005170
      f+3     :     0.003270
      f-3     :     0.005699
 51 H s       :     0.849608  s :     0.849608
      pz      :     0.070393  p :     0.152122
      px      :     0.038711
      py      :     0.043018
      dz2     :     0.009492  d :     0.028450
      dxz     :     0.008856
      dyz     :     0.007966
      dx2y2   :     0.001470
      dxy     :     0.000666
 52 H s       :     0.846556  s :     0.846556
      pz      :     0.039310  p :     0.152553
      px      :     0.040343
      py      :     0.072900
      dz2     :     0.002355  d :     0.028303
      dxz     :     0.000162
      dyz     :     0.009335
      dx2y2   :     0.006863
      dxy     :     0.009589
 53 H s       :     0.844223  s :     0.844223
      pz      :     0.043893  p :     0.151769
      px      :     0.063305
      py      :     0.044572
      dz2     :     0.004901  d :     0.028314
      dxz     :     0.006877
      dyz     :     0.002063
      dx2y2   :     0.007884
      dxy     :     0.006589
 54 C s       :     2.659430  s :     2.659430
      pz      :     0.931326  p :     2.880692
      px      :     0.975559
      py      :     0.973807
      dz2     :     0.073582  d :     0.323330
      dxz     :     0.095370
      dyz     :     0.051780
      dx2y2   :     0.078204
      dxy     :     0.024395
      f0      :     0.006420  f :     0.029867
      f+1     :     0.003901
      f-1     :     0.006256
      f+2     :     0.003732
      f-2     :     0.004282
      f+3     :     0.000736
      f-3     :     0.004541
 55 H s       :     0.848716  s :     0.848716
      pz      :     0.038731  p :     0.152010
      px      :     0.039732
      py      :     0.073547
      dz2     :     0.002442  d :     0.028572
      dxz     :     0.000066
      dyz     :     0.009524
      dx2y2   :     0.006999
      dxy     :     0.009541
 56 H s       :     0.850072  s :     0.850072
      pz      :     0.049539  p :     0.152950
      px      :     0.059704
      py      :     0.043707
      dz2     :     0.006227  d :     0.028516
      dxz     :     0.006957
      dyz     :     0.003080
      dx2y2   :     0.006651
      dxy     :     0.005601
 57 H s       :     0.852314  s :     0.852314
      pz      :     0.045651  p :     0.151260
      px      :     0.062842
      py      :     0.042767
      dz2     :     0.004881  d :     0.028079
      dxz     :     0.007449
      dyz     :     0.002202
      dx2y2   :     0.007173
      dxy     :     0.006373
 58 H s       :     0.844271  s :     0.844271
      pz      :     0.048854  p :     0.151750
      px      :     0.040268
      py      :     0.062628
      dz2     :     0.005945  d :     0.028303
      dxz     :     0.002428
      dyz     :     0.007487
      dx2y2   :     0.005850
      dxy     :     0.006594
 59 H s       :     0.849678  s :     0.849678
      pz      :     0.038046  p :     0.152159
      px      :     0.072677
      py      :     0.041437
      dz2     :     0.002391  d :     0.028454
      dxz     :     0.009175
      dyz     :     0.000460
      dx2y2   :     0.007224
      dxy     :     0.009204
 60 H s       :     0.846575  s :     0.846575
      pz      :     0.048340  p :     0.152540
      px      :     0.046058
      py      :     0.058142
      dz2     :     0.005595  d :     0.028302
      dxz     :     0.003453
      dyz     :     0.006396
      dx2y2   :     0.007582
      dxy     :     0.005276
 61 H s       :     0.852375  s :     0.852375
      pz      :     0.033160  p :     0.148392
      px      :     0.046571
      py      :     0.068660
      dz2     :     0.002554  d :     0.028419
      dxz     :     0.001707
      dyz     :     0.006818
      dx2y2   :     0.009560
      dxy     :     0.007781
 62 H s       :     0.853631  s :     0.853631
      pz      :     0.036987  p :     0.147816
      px      :     0.071858
      py      :     0.038971
      dz2     :     0.004490  d :     0.028400
      dxz     :     0.007628
      dyz     :     0.001478
      dx2y2   :     0.006120
      dxy     :     0.008684


                      *****************************
                      * MAYER POPULATION ANALYSIS *
                      *****************************

  NA   - Mulliken gross atomic population
  ZA   - Total nuclear charge
  QA   - Mulliken gross atomic charge
  VA   - Mayer's total valence
  BVA  - Mayer's bonded valence
  FA   - Mayer's free valence

  ATOM       NA         ZA         QA         VA         BVA        FA
  0 C      5.9199     6.0000     0.0801     3.7246     3.7246    -0.0000
  1 C      5.9607     6.0000     0.0393     4.0763     4.0763    -0.0000
  2 C      6.2438     6.0000    -0.2438     3.9476     3.9476    -0.0000
  3 C      5.8945     6.0000     0.1055     3.7089     3.7089     0.0000
  4 H      0.8350     1.0000     0.1650     1.0070     1.0070     0.0000
  5 C      6.2665     6.0000    -0.2665     3.9772     3.9772     0.0000
  6 C      5.8954     6.0000     0.1046     3.7047     3.7047    -0.0000
  7 H      0.8675     1.0000     0.1325     0.9942     0.9942     0.0000
  8 C      6.2295     6.0000    -0.2295     3.9535     3.9535    -0.0000
  9 C      5.9619     6.0000     0.0381     4.0747     4.0747    -0.0000
 10 H      0.8072     1.0000     0.1928     1.0008     1.0008    -0.0000
 11 C      5.9411     6.0000     0.0589     4.0714     4.0714     0.0000
 12 C      6.0965     6.0000    -0.0965     3.9228     3.9228    -0.0000
 13 C      5.8954     6.0000     0.1046     3.8357     3.8357    -0.0000
 14 N      7.2580     7.0000    -0.2580     2.9937     2.9937    -0.0000
 15 N      7.2887     7.0000    -0.2887     2.9544     2.9544    -0.0000
 16 C      5.8958     6.0000     0.1042     3.8248     3.8248    -0.0000
 17 C      6.0995     6.0000    -0.0995     3.9269     3.9269    -0.0000
 18 N      7.2922     7.0000    -0.2922     2.9612     2.9612    -0.0000
 19 N      7.2574     7.0000    -0.2574     2.9856     2.9856    -0.0000
 20 C      5.8954     6.0000     0.1046     3.8360     3.8360    -0.0000
 21 C      6.0962     6.0000    -0.0962     3.9220     3.9220    -0.0000
 22 N      7.2883     7.0000    -0.2883     2.9557     2.9557    -0.0000
 23 N      7.2575     7.0000    -0.2575     2.9939     2.9939    -0.0000
 24 H      0.8944     1.0000     0.1056     1.0386     1.0386    -0.0000
 25 H      0.9083     1.0000     0.0917     0.9894     0.9894    -0.0000
 26 H      0.8916     1.0000     0.1084     1.0490     1.0490    -0.0000
 27 H      0.9077     1.0000     0.0923     0.9909     0.9909     0.0000
 28 H      0.8915     1.0000     0.1085     1.0492     1.0492     0.0000
 29 H      0.8944     1.0000     0.1056     1.0384     1.0384    -0.0000
 30 H      0.8930     1.0000     0.1070     1.0453     1.0453    -0.0000
 31 H      0.9106     1.0000     0.0894     0.9867     0.9867     0.0000
 32 H      0.9088     1.0000     0.0912     0.9824     0.9824    -0.0000
 33 H      0.8907     1.0000     0.1093     0.9839     0.9839    -0.0000
 34 H      0.9099     1.0000     0.0901     0.9830     0.9830    -0.0000
 35 H      0.8917     1.0000     0.1083     0.9843     0.9843    -0.0000
 36 C      6.3068     6.0000    -0.3068     3.8675     3.8675    -0.0000
 37 H      0.9034     1.0000     0.0966     0.9880     0.9880    -0.0000
 38 H      0.8989     1.0000     0.1011     0.9834     0.9834    -0.0000
 39 H      0.8993     1.0000     0.1007     0.9906     0.9906     0.0000
 40 H      0.8953     1.0000     0.1047     1.0389     1.0389    -0.0000
 41 C      6.3162     6.0000    -0.3162     3.8807     3.8807    -0.0000
 42 C      6.3168     6.0000    -0.3168     3.8829     3.8829    -0.0000
 43 H      0.9001     1.0000     0.0999     0.9825     0.9825    -0.0000
 44 H      0.9010     1.0000     0.0990     0.9854     0.9854    -0.0000
 45 H      0.8971     1.0000     0.1029     0.9809     0.9809    -0.0000
 46 C      6.2916     6.0000    -0.2916     3.8779     3.8779    -0.0000
 47 H      0.9061     1.0000     0.0939     0.9900     0.9900    -0.0000
 48 H      0.9052     1.0000     0.0948     0.9832     0.9832    -0.0000
 49 H      0.9026     1.0000     0.0974     0.9915     0.9915    -0.0000
 50 C      6.3160     6.0000    -0.3160     3.8807     3.8807    -0.0000
 51 H      0.9029     1.0000     0.0971     0.9865     0.9865    -0.0000
 52 H      0.8949     1.0000     0.1051     0.9803     0.9803     0.0000
 53 H      0.9007     1.0000     0.0993     0.9826     0.9826    -0.0000
 54 C      6.3074     6.0000    -0.3074     3.8674     3.8674    -0.0000
 55 H      0.8990     1.0000     0.1010     0.9906     0.9906     0.0000
 56 H      0.9032     1.0000     0.0968     0.9878     0.9878    -0.0000
 57 H      0.8986     1.0000     0.1014     0.9833     0.9833    -0.0000
 58 H      0.9006     1.0000     0.0994     0.9826     0.9826     0.0000
 59 H      0.9030     1.0000     0.0970     0.9865     0.9865    -0.0000
 60 H      0.8952     1.0000     0.1048     0.9803     0.9803     0.0000
 61 H      0.8915     1.0000     0.1085     0.9844     0.9844    -0.0000
 62 H      0.9100     1.0000     0.0900     0.9831     0.9831    -0.0000

  Mayer bond orders larger than 0.100000
B(  0-C ,  1-C ) :   1.0119 B(  0-C ,  2-C ) :   1.3868 B(  0-C ,  8-C ) :   1.3651 
B(  1-C , 14-N ) :   1.0191 B(  1-C , 15-N ) :   1.0064 B(  1-C , 27-H ) :   0.9977 
B(  2-C ,  3-C ) :   1.3446 B(  2-C ,  4-H ) :   0.9492 B(  3-C ,  5-C ) :   1.3908 
B(  3-C , 11-C ) :   1.0173 B(  5-C ,  6-C ) :   1.3739 B(  5-C ,  7-H ) :   0.9713 
B(  6-C ,  8-C ) :   1.3701 B(  6-C ,  9-C ) :   1.0069 B(  8-C , 10-H ) :   0.9297 
B(  9-C , 22-N ) :   1.0090 B(  9-C , 23-N ) :   1.0197 B(  9-C , 25-H ) :   0.9987 
B( 11-C , 18-N ) :   1.0095 B( 11-C , 19-N ) :   1.0137 B( 11-C , 31-H ) :   0.9939 
B( 12-C , 13-C ) :   0.9385 B( 12-C , 14-N ) :   1.0012 B( 12-C , 61-H ) :   0.9913 
B( 12-C , 62-H ) :   0.9925 B( 13-C , 15-N ) :   0.9957 B( 13-C , 36-C ) :   0.9517 
B( 13-C , 41-C ) :   0.9551 B( 14-N , 28-H ) :   1.0003 B( 15-N , 40-H ) :   0.9936 
B( 16-C , 17-C ) :   0.9360 B( 16-C , 18-N ) :   0.9819 B( 16-C , 42-C ) :   0.9559 
B( 16-C , 46-C ) :   0.9542 B( 17-C , 19-N ) :   1.0018 B( 17-C , 32-H ) :   0.9934 
B( 17-C , 33-H ) :   0.9923 B( 18-N , 29-H ) :   0.9924 B( 19-N , 30-H ) :   0.9979 
B( 20-C , 21-C ) :   0.9384 B( 20-C , 22-N ) :   0.9957 B( 20-C , 50-C ) :   0.9551 
B( 20-C , 54-C ) :   0.9520 B( 21-C , 23-N ) :   1.0007 B( 21-C , 34-H ) :   0.9925 
B( 21-C , 35-H ) :   0.9913 B( 22-N , 24-H ) :   0.9933 B( 23-N , 26-H ) :   1.0003 
B( 36-C , 37-H ) :   0.9810 B( 36-C , 38-H ) :   0.9845 B( 36-C , 39-H ) :   0.9815 
B( 41-C , 58-H ) :   0.9805 B( 41-C , 59-H ) :   0.9833 B( 41-C , 60-H ) :   0.9817 
B( 42-C , 43-H ) :   0.9800 B( 42-C , 44-H ) :   0.9828 B( 42-C , 45-H ) :   0.9812 
B( 46-C , 47-H ) :   0.9822 B( 46-C , 48-H ) :   0.9831 B( 46-C , 49-H ) :   0.9819 
B( 50-C , 51-H ) :   0.9832 B( 50-C , 52-H ) :   0.9816 B( 50-C , 53-H ) :   0.9805 
B( 54-C , 55-H ) :   0.9814 B( 54-C , 56-H ) :   0.9810 B( 54-C , 57-H ) :   0.9845 


-------
TIMINGS
-------

Total SCF time: 0 days 0 hours 11 min 39 sec 

Total time                  ....     699.519 sec
Sum of individual times     ....     689.732 sec  ( 98.6%)

Fock matrix formation       ....     654.194 sec  ( 93.5%)
Diagonalization             ....       5.213 sec  (  0.7%)
Density matrix formation    ....       0.393 sec  (  0.1%)
Population analysis         ....       1.926 sec  (  0.3%)
Initial guess               ....       1.550 sec  (  0.2%)
Orbital Transformation      ....       0.000 sec  (  0.0%)
Orbital Orthonormalization  ....       0.000 sec  (  0.0%)
DIIS solution               ....      14.875 sec  (  2.1%)
SOSCF solution              ....       2.209 sec  (  0.3%)


           ************************************************************
           *        Program running with 32 parallel MPI-processes    *
           *              working on a common directory               *
           ************************************************************

------------------------------------------------------------------------------
                                ORCA  MP2 
------------------------------------------------------------------------------

Freezing NCore=54 chemical core electrons

-------------
RI-MP2 ENERGY
-------------
Dimension of the basis                    ... 1314
Memory devoted to MP2                     ... 3000 MB   
Data format for buffers                   ... DOUBLE
Compression type for matrix containers    ... UNCOMPRESSED
Overall scaling of the MP2 energy         ...   1.000e+00
Calculating two index integrals           ... done (    0.101 sec)
Cholesky decomposition of V**-1           ... done (    2.259 sec)

-----------------
RI-TRANSFORMATION (AUX index driven)
-----------------

Dimension of the orbital-basis         ... 1314
Dimension of the aux-basis             ... 3267
Transformation of internal/external MOs...   27- 101 to  102-1313
Number Format for Storage              ... Double (8 Byte)
Integral mode                          ... Direct

First Phase: integral generation and transformation of MO indices
  Aux angular momentum 0               ... done (    1.017 sec)
  Aux angular momentum 1               ... done (    1.986 sec)
  Aux angular momentum 2               ... done (    2.493 sec)
  Aux angular momentum 3               ... done (    1.974 sec)
  Aux angular momentum 4               ... done (    0.629 sec)
Closing buffer VIA ( 2.21 GB; CompressionRatio= 1.00)
  Phase 1 completed in     8.260 sec
Second Phase: sorting and transformation of aux index

IA-Transformation
Memory available                       ... 2781 MB 
Max. # MO pairs treated in a batch     ... 3    
# of internal orbitals                 ... 75
# batches for internal orbitals        ... 1
Closing buffer IAV ( 0.09 GB; CompressionRatio= 1.00)
(ia|v) transformation done in     8.519 sec

  Phase 2 completed in    22.814 sec
RI-Integral transformation completed in    31.085 sec
Opening buffers                              ... done

Starting loop over batches of integrals:

Operator 0  - window                       ... ( 27-101)x(102-1313)
Operator 0  - Memory available             ...  3000 MB
Operator 0  - Memory needed per MO         ...  30.2 MB
Operator 0  - Number of orbitals per batch ... 3
Operator 0  - Number of batches            ... 1

OPERATOR  0   PASS   0:  MOs    27 ...   29 +   30 ...   32 +   33 ...   35 +   36 ...   38
                            +   39 ...   41 +   42 ...   44 +   45 ...   47 +   48 ...   50
                            +   51 ...   53 +   54 ...   56 +   57 ...   59 +   60 ...   62
                            +   63 ...   65 +   66 ...   68 +   69 ...   71 +   72 ...   74
                            +   75 ...   77 +   78 ...   80 +   81 ...   83 +   84 ...   86
                            +   87 ...   89 +   90 ...   92 +   93 ...   95 +   96 ...   98
                            +   99 ...  101
  Reading integrals       ... ok
  Internal MO  29
Time spent in pair loops =     5.900 sec
Deleting buffer (Ka|jb)[aa] ...done

-----------------------------------------------
 RI-MP2 CORRELATION ENERGY:     -4.779609298 Eh
-----------------------------------------------


-------
TIMINGS
-------

Total time                :  249.772 sec
Integral trafo            :   31.089 sec ( 12.4%)
I/O of integrals          :    0.060 sec (  0.0%)
K(i,j) Operators          :    5.742 sec (  2.3%)
T(i,j) pair energies      :    0.052 sec (  0.0%)
V-calculation             :    0.101 sec (  0.0%)
V**(-1/2)                 :    2.259 sec (  0.9%)
Gamma(ia|P)               :    0.000 sec (  0.0%)
Gamma-Trafo               :    0.000 sec (  0.0%)
D(virtual)                :    0.000 sec (  0.0%)
D(internal)               :    0.000 sec (  0.0%)
W(virtual)                :    0.000 sec (  0.0%)
W(internal)               :    0.000 sec (  0.0%)
L(virtual)                :    0.000 sec (  0.0%)
L(internal)               :    0.000 sec (  0.0%)
G(D)                      :    0.000 sec (  0.0%)
G(Z)                      :    0.000 sec (  0.0%)
Z-Vector Solution         :    0.000 sec (  0.0%)
3-Index Derivative        :    0.000 sec (  0.0%)
2-Index Derivative        :    0.000 sec (  0.0%)
Separable Gradient        :    0.000 sec (  0.0%)


---------------------------------------
MP2 TOTAL ENERGY:    -1148.020721830 Eh
---------------------------------------

-------------------------   --------------------
FINAL SINGLE POINT ENERGY     -1148.020721830358
-------------------------   --------------------


                            ***************************************
                            *     ORCA property calculations      *
                            ***************************************


  WARNING: The energy has been calculated at the MP2 level but the densities
           used in the property calculations are still SCF densities
           MP2 response densities have not been calculated 
           use %mp2 Density relaxed end
           or  %mp2 Density unrelaxed end

                                    ---------------------
                                    Active property flags
                                    ---------------------
   (+) Dipole Moment


------------------------------------------------------------------------------
                       ORCA ELECTRIC PROPERTIES CALCULATION
------------------------------------------------------------------------------

Dipole Moment Calculation                       ... on
Quadrupole Moment Calculation                   ... off
Polarizability Calculation                      ... off
GBWName                                         ... _o_1_alde1_3_ami2_1_opt_MP2.gbw
Electron density file                           ... _o_1_alde1_3_ami2_1_opt_MP2.scfp
The origin for moment calculation is the CENTER OF MASS  = (-2.338945,  2.726747 -3.100558)

-------------
DIPOLE MOMENT
-------------
                                X             Y             Z
Electronic contribution:     -2.36397       3.65668      -7.65409
Nuclear contribution   :      2.40854      -3.55543       8.01841
                        -----------------------------------------
Total Dipole Moment    :      0.04457       0.10125       0.36432
                        -----------------------------------------
Magnitude (a.u.)       :      0.38074
Magnitude (Debye)      :      0.96777



--------------------
Rotational spectrum 
--------------------
 
Rotational constants in cm-1:     0.007212     0.003660     0.002614 
Rotational constants in MHz :   216.196044   109.722261    78.351402 

 Dipole components along the rotational axes: 
x,y,z [a.u.] :     0.188875     0.200801    -0.262621 
x,y,z [Debye]:     0.480081     0.510395    -0.667529 

 

Timings for individual modules:

Sum of individual times         ...     1342.142 sec (=  22.369 min)
GTO integral calculation        ...       84.678 sec (=   1.411 min)   6.3 %
SCF iterations                  ...      799.159 sec (=  13.319 min)  59.5 %
MP2 module                      ...      458.306 sec (=   7.638 min)  34.1 %
                             ****ORCA TERMINATED NORMALLY****
TOTAL RUN TIME: 0 days 0 hours 24 minutes 3 seconds 907 msec
