Job execution start: Sat Nov  6 15:42:01 GMT 2021
Shared library path: /work/e05/e05/atarzia/orca_4_2_1_linux_x86-64_openmpi314:/work/e05/e05/atarzia/openmpi-3.1.4/lib:/opt/cray/pe/papi/6.0.0.4/lib64:/opt/cray/libfabric/1.11.0.0.233/lib64
Slurm Job ID is: 621515
Slurm Job name is: o_1_alde1_3_ami4_2_opt_B97-3c
nid001774

                                 *****************
                                 * O   R   C   A *
                                 *****************

           --- An Ab Initio, DFT and Semiempirical electronic structure package ---

                  #######################################################
                  #                        -***-                        #
                  #          Department of theory and spectroscopy      #
                  #               Directorship: Frank Neese             #
                  #        Max Planck Institute fuer Kohlenforschung    #
                  #                Kaiser Wilhelm Platz 1               #
                  #                 D-45470 Muelheim/Ruhr               #
                  #                      Germany                        #
                  #                                                     #
                  #                  All rights reserved                #
                  #                        -***-                        #
                  #######################################################


                         Program Version 4.2.1 -  RELEASE  -


 With contributions from (in alphabetic order):
   Daniel Aravena         : Magnetic Suceptibility
   Michael Atanasov       : Ab Initio Ligand Field Theory (pilot matlab implementation)
   Alexander A. Auer      : GIAO ZORA, VPT2
   Ute Becker             : Parallelization
   Giovanni Bistoni       : ED, misc. LED, open-shell LED, HFLD
   Martin Brehm           : Molecular dynamics
   Dmytro Bykov           : SCF Hessian
   Vijay G. Chilkuri      : MRCI spin determinant printing, contributions to CSF-ICE
   Dipayan Datta          : RHF DLPNO-CCSD density
   Achintya Kumar Dutta   : EOM-CC, STEOM-CC
   Dmitry Ganyushin       : Spin-Orbit,Spin-Spin,Magnetic field MRCI
   Miquel Garcia          : C-PCM Hessian, Gaussian charge scheme
   Yang Guo               : DLPNO-NEVPT2, CIM, IAO-localization
   Andreas Hansen         : Spin unrestricted coupled pair/coupled cluster methods
   Benjamin Helmich-Paris : CASSCF linear response (MC-RPA)
   Lee Huntington         : MR-EOM, pCC
   Robert Izsak           : Overlap fitted RIJCOSX, COSX-SCS-MP3, EOM
   Christian Kollmar      : KDIIS, OOCD, Brueckner-CCSD(T), CCSD density
   Simone Kossmann        : Meta GGA functionals, TD-DFT gradient, OOMP2, MP2 Hessian
   Martin Krupicka        : AUTO-CI
   Lucas Lang             : DCDCAS
   Dagmar Lenk            : GEPOL surface, SMD
   Dimitrios Liakos       : Extrapolation schemes; Compound Job, initial MDCI parallelization
   Dimitrios Manganas     : Further ROCIS development; embedding schemes
   Dimitrios Pantazis     : SARC Basis sets
   Taras Petrenko         : DFT Hessian,TD-DFT gradient, ASA, ECA, R-Raman, ABS, FL, XAS/XES, NRVS
   Peter Pinski           : DLPNO-MP2, DLPNO-MP2 Gradient
   Christoph Reimann      : Effective Core Potentials
   Marius Retegan         : Local ZFS, SOC
   Christoph Riplinger    : Optimizer, TS searches, QM/MM, DLPNO-CCSD(T), (RO)-DLPNO pert. Triples
   Tobias Risthaus        : Range-separated hybrids, TD-DFT gradient, RPA, STAB
   Michael Roemelt        : Original ROCIS implementation
   Masaaki Saitow         : Open-shell DLPNO-CCSD energy and density
   Barbara Sandhoefer     : DKH picture change effects
   Avijit Sen             : IP-ROCIS
   Kantharuban Sivalingam : CASSCF convergence, NEVPT2, FIC-MRCI
   Bernardo de Souza      : ESD, SOC TD-DFT
   Georgi Stoychev        : AutoAux, RI-MP2 NMR
   Willem Van den Heuvel  : Paramagnetic NMR
   Boris Wezisla          : Elementary symmetry handling
   Frank Wennmohs         : Technical directorship


 We gratefully acknowledge several colleagues who have allowed us to
 interface, adapt or use parts of their codes:
   Stefan Grimme, W. Hujo, H. Kruse,             : VdW corrections, initial TS optimization,
                  C. Bannwarth                     DFT functionals, gCP, sTDA/sTD-DF
   Ed Valeev, F. Pavosevic, A. Kumar             : LibInt (2-el integral package), F12 methods
   Garnet Chan, S. Sharma, J. Yang, R. Olivares  : DMRG
   Ulf Ekstrom                                   : XCFun DFT Library
   Mihaly Kallay                                 : mrcc  (arbitrary order and MRCC methods)
   Andreas Klamt, Michael Diedenhofen            : otool_cosmo (COSMO solvation model)
   Jiri Pittner, Ondrej Demel                    : Mk-CCSD
   Frank Weinhold                                : gennbo (NPA and NBO analysis)
   Christopher J. Cramer and Donald G. Truhlar   : smd solvation model
   Lars Goerigk                                  : TD-DFT with DH, B97 family of functionals
   V. Asgeirsson, H. Jonsson                     : NEB implementation
   FAccTs GmbH                                   : IRC, NEB, NEB-TS, Multilevel, MM, QM/MM, CI optimization
   S Lehtola, MJT Oliveira, MAL Marques          : LibXC Library


 Your calculation uses the libint2 library for the computation of 2-el integrals
 For citations please refer to: http://libint.valeyev.net

 Your ORCA version has been built with support for libXC version: 4.2.3
 For citations please refer to: https://tddft.org/programs/libxc/

 This ORCA versions uses:
   CBLAS   interface :  Fast vector & matrix operations
   LAPACKE interface :  Fast linear algebra routines
   SCALAPACK package :  Parallel linear algebra routines




***************************************
The coordinates will be read from file: o_1_alde1_3_ami4_2_opt.xyz
***************************************


Your calculation utilizes the atom-pairwise dispersion correction
with the Becke-Johnson damping scheme (D3BJ)
Cite in your paper:
S.Grimme, S.Ehrlich, L.Goerigk, J Comput Chem, (2011), 32, 1456–1465 
S.Grimme, J.Antony, S.Ehrlich and H.Krieg, J.Chem.Phys., 132, (2010), 154104 
   

Your calculation employs the composite approach B97-3c by Grimme and coworkers.
For the correct reference, please check the publication list of the Grimme group:
http://www.thch.uni-bonn.de/tc/index.php?section=publikationen&subsection=grimme#2017
   

XCFun DFT library Copyright 2009-2010 Ulf Ekstrom and contributors.
See http://admol.org/xcfun for more information. This is free soft-
ware; see the source code for copying conditions. There is ABSOLUTELY
NO WARRANTY; not even for MERCHANTABILITY or FITNESS FOR A PARTICULAR
PURPOSE. For details see the documentation. Scientific users of this 
library should cite U. Ekstrom, L. Visscher, R. Bast, A. J. Thorvald-
sen and K. Ruud; J.Chem.Theor.Comp. 2010, DOI: 10.1021/ct100117s
XCFun Version 0.99 
----- Orbital basis set information -----
Your calculation utilizes the basis: def2-mTZVP
----- AuxJ basis set information -----
Your calculation utilizes the basis: def2-mTZVP/J
================================================================================
                                        WARNINGS
                       Please study these warnings very carefully!
================================================================================


WARNING: Geometry Optimization
  ===> : Switching off AutoStart
         For restart on a previous wavefunction, please use MOREAD

INFO   : the flag for use of LIBINT has been found!

================================================================================
                                       INPUT FILE
================================================================================
NAME = o_1_alde1_3_ami4_2_opt_B97-3c.in
|  1> ! DFT COPT B97-3c TightSCF printbasis  Grid6 NOFINALGRID SlowConv 
|  2> 
|  3> %base "_o_1_alde1_3_ami4_2_opt_B97-3c"
|  4> %maxcore 3000
|  5> %scf
|  6>    MaxIter 2000
|  7> end
|  8> %pal
|  9>    nprocs 32
| 10> end
| 11> 
| 12> * xyzfile 0 1 o_1_alde1_3_ami4_2_opt.xyz
| 13> # * xyzfile 0 1 _o_1_alde1_3_ami4_2_opt_B97-3c.xyz
| 14> 
| 15>                          ****END OF INPUT****
================================================================================

                       *****************************
                       * Geometry Optimization Run *
                       *****************************

Geometry optimization settings:
Update method            Update   .... BFGS
Choice of coordinates    CoordSys .... Cartesian
Initial Hessian          InHess   .... Unit Matrix

Convergence Tolerances:
Energy Change            TolE     ....  5.0000e-06 Eh
Max. Gradient            TolMAXG  ....  3.0000e-04 Eh/bohr
RMS Gradient             TolRMSG  ....  1.0000e-04 Eh/bohr
Max. Displacement        TolMAXD  ....  4.0000e-03 bohr
RMS Displacement         TolRMSD  ....  2.0000e-03 bohr
Strict Convergence                ....  False
------------------------------------------------------------------------------
                        ORCA OPTIMIZATION COORDINATE SETUP
------------------------------------------------------------------------------

The optimization will be done in cartesian displacement coordinates
Initial hessian                         ....done
Number of atoms                         .... 45
Number of degrees of freedom            .... 135

         *************************************************************
         *                GEOMETRY OPTIMIZATION CYCLE   1            *
         *************************************************************
---------------------------------
CARTESIAN COORDINATES (ANGSTROEM)
---------------------------------
  C     -0.872000   -0.345000   -1.104300
  C     -0.976300   -1.670200   -0.464900
  C     -1.946900    0.529900   -1.192400
  C     -1.802900    1.780600   -1.796900
  H     -2.924000    0.257800   -0.828100
  C     -0.571800    2.148600   -2.322700
  C      0.513700    1.275300   -2.257500
  H     -0.428400    3.108400   -2.794600
  C      0.353000    0.032300   -1.654100
  C      1.802900    1.654000   -2.818800
  H      1.191700   -0.648400   -1.597500
  C     -2.938900    2.689600   -1.868100
  C     -3.727400   -1.410400    1.438100
  C     -2.208800   -1.116700    1.491800
  N     -4.099700   -2.747100    1.840400
  N     -1.518500   -2.015100    0.618100
  H     -1.853600   -1.340700    2.504400
  C     -5.142600    3.316000   -1.396100
  C     -6.383900    2.551100   -1.866500
  N     -4.037800    2.416200   -1.314300
  N     -6.813000    1.645000   -0.817000
  C      3.259500    3.118200   -3.905300
  C      3.786600    4.371800   -3.196500
  N      1.981300    2.771000   -3.375900
  H      4.002700    2.310300   -3.813300
  N      5.071500    4.746100   -3.760800
  H      4.963100    5.012300   -4.734300
  H      5.455700    5.541700   -3.263300
  H     -3.816400   -2.916200    2.800300
  H     -3.612700   -3.421900    1.259200
  H     -7.545800    1.029400   -1.152700
  H     -6.024600    1.072000   -0.534000
  H     -0.463600   -2.470500   -0.995900
  H     -2.770100    3.626600   -2.421800
  H      2.604500    0.903700   -2.729500
  H     -2.030500   -0.053900    1.278200
  H      3.121500    3.350800   -4.966900
  H     -4.944600    4.173500   -2.060800
  H     -5.342500    3.682600   -0.384600
  H     -6.141900    2.045300   -2.817800
  H     -7.193600    3.262500   -2.056100
  H     -4.083100   -1.265700    0.413900
  H     -4.242600   -0.696500    2.086300
  H      3.018400    5.158700   -3.267100
  H      3.938100    4.143200   -2.137600

----------------------------
CARTESIAN COORDINATES (A.U.)
----------------------------
  NO LB      ZA    FRAG     MASS         X           Y           Z
   0 C     6.0000    0    12.011   -1.647841   -0.651956   -2.086825
   1 C     6.0000    0    12.011   -1.844940   -3.156221   -0.878534
   2 C     6.0000    0    12.011   -3.679108    1.001366   -2.253309
   3 C     6.0000    0    12.011   -3.406987    3.364846   -3.395649
   4 H     1.0000    0     1.008   -5.525559    0.487171   -1.564882
   5 C     6.0000    0    12.011   -1.080545    4.060266   -4.389267
   6 C     6.0000    0    12.011    0.970752    2.409968   -4.266057
   7 H     1.0000    0     1.008   -0.809559    5.874025   -5.281029
   8 C     6.0000    0    12.011    0.667073    0.061038   -3.125796
   9 C     6.0000    0    12.011    3.406987    3.125607   -5.326760
  10 H     1.0000    0     1.008    2.251987   -1.225298   -3.018837
  11 C     6.0000    0    12.011   -5.553716    5.082607   -3.530197
  12 C     6.0000    0    12.011   -7.043765   -2.665270    2.717615
  13 C     6.0000    0    12.011   -4.174027   -2.110257    2.819093
  14 N     7.0000    0    14.007   -7.747310   -5.191267    3.477852
  15 N     7.0000    0    14.007   -2.869549   -3.807987    1.168040
  16 H     1.0000    0     1.008   -3.502796   -2.533556    4.732630
  17 C     6.0000    0    12.011   -9.718106    6.266332   -2.638247
  18 C     6.0000    0    12.011  -12.063823    4.820880   -3.527174
  19 N     7.0000    0    14.007   -7.630336    4.565956   -2.483667
  20 N     7.0000    0    14.007  -12.874704    3.108599   -1.543906
  21 C     6.0000    0    12.011    6.159562    5.892544   -7.379947
  22 C     6.0000    0    12.011    7.155637    8.261505   -6.040510
  23 N     7.0000    0    14.007    3.744114    5.236431   -6.379526
  24 H     1.0000    0     1.008    7.564007    4.365834   -7.206093
  25 N     7.0000    0    14.007    9.583746    8.968829   -7.106882
  26 H     1.0000    0     1.008    9.378900    9.471874   -8.946530
  27 H     1.0000    0     1.008   10.309779   10.472295   -6.166743
  28 H     1.0000    0     1.008   -7.211951   -5.510819    5.291800
  29 H     1.0000    0     1.008   -6.827014   -6.466454    2.379543
  30 H     1.0000    0     1.008  -14.259495    1.945284   -2.178287
  31 H     1.0000    0     1.008  -11.384844    2.025786   -1.009114
  32 H     1.0000    0     1.008   -0.876077   -4.668568   -1.881978
  33 H     1.0000    0     1.008   -5.234730    6.853281   -4.576539
  34 H     1.0000    0     1.008    4.921792    1.707746   -5.158007
  35 H     1.0000    0     1.008   -3.837089   -0.101856    2.415448
  36 H     1.0000    0     1.008    5.898780    6.332094   -9.386081
  37 H     1.0000    0     1.008   -9.343940    7.886772   -3.894348
  38 H     1.0000    0     1.008  -10.095862    6.959105   -0.726789
  39 H     1.0000    0     1.008  -11.606509    3.865057   -5.324870
  40 H     1.0000    0     1.008  -13.593934    6.165232   -3.885466
  41 H     1.0000    0     1.008   -7.715941   -2.391826    0.782158
  42 H     1.0000    0     1.008   -8.017352   -1.316194    3.942536
  43 H     1.0000    0     1.008    5.703949    9.748530   -6.173924
  44 H     1.0000    0     1.008    7.441930    7.829513   -4.039479

--------------------------------
INTERNAL COORDINATES (ANGSTROEM)
--------------------------------
 C      0   0   0     0.000000000000     0.00000000     0.00000000
 C      1   0   0     1.475081655367     0.00000000     0.00000000
 C      1   2   0     1.388748224121   122.59852002     0.00000000
 C      3   1   2     1.396569633065   120.78657212   179.48573979
 H      3   1   2     1.077718567159   121.41547937   357.47735482
 C      4   3   1     1.388343203246   119.52082212     0.39510318
 C      6   4   3     1.394709353235   120.42921545     0.40899216
 H      6   4   3     1.079105745513   121.27957759   180.08907396
 C      7   6   4     1.391030211750   119.33289602   359.69984644
 C      7   6   4     1.456196422190   120.54308263   179.45007411
 H      9   7   6     1.081653243882   119.70044817   180.19141817
 C      4   3   1     1.456655909953   119.97340071   180.59566285
 C      5   3   1     2.926432169041   130.88866671    33.66582686
 C     13   5   3     1.547672232742    69.47090398    10.44754428
 N     13   5   3     1.444721243008   144.46965777   266.26033406
 N      2   1   3     1.259295775424   130.48749804   315.36597367
 H     14  13   5     1.096221601685   108.13210282   163.19498392
 C     12   4   3     2.339114073747   153.12181200     4.74951483
 C     18  12   4     1.532048909141   124.58727280   297.35434715
 N     12   4   3     1.260564639358   121.53597022     4.93262951
 N     19  18  12     1.451411130590   109.22058040    95.19438639
 C     10   7   6     2.333676809243   153.53575271     0.73553757
 C     22  10   7     1.533539960353   120.81289163    71.75422561
 N     10   7   6     1.260902839239   121.73195970     0.03923836
 H     22  10   7     1.101595501988    85.53040539   181.48785521
 N     23  22  10     1.452412816661   109.58238981   153.32943992
 H     26  23  22     1.015044457154   110.22654640    64.43641056
 H     26  23  22     1.013950319296   110.29125342   183.32300563
 H     15  13   5     1.015018083583   110.21580417   149.41512685
 H     15  13   5     1.015045555628   109.39080407    31.70837797
 H     21  19  18     1.014225660295   110.68281146   188.45736905
 H     21  19  18     1.014885491078   108.93148724   307.19475410
 H      2   1   3     1.088715931729   114.56223977   138.36838352
 H     12   4   3     1.101383734218   115.84531761   184.21522332
 H     10   7   6     1.101583923267   115.83951998   180.32481538
 H     14  13   5     1.098617171721   109.63836275    44.53540430
 H     22  10   7     1.095509616571   120.38134851   290.64368395
 H     18  12   4     1.102876393799    85.26541705   185.77616572
 H     18  12   4     1.094297866214   116.63661780    76.61354374
 H     19  18  12     1.104250573919   108.39925286   330.83496158
 H     19  18  12     1.094372975726   109.15404823   213.31164366
 H     13   5   3     1.093821841069    44.66448156   219.42754977
 H     13   5   3     1.093273748885   102.49008546   115.79911899
 H     23  22  10     1.101965158251   108.33143190   278.34769671
 H     23  22  10     1.093837017110   108.91726095    35.49829042

---------------------------
INTERNAL COORDINATES (A.U.)
---------------------------
 C      0   0   0     0.000000000000     0.00000000     0.00000000
 C      1   0   0     2.787500353815     0.00000000     0.00000000
 C      1   2   0     2.624353812559   122.59852002     0.00000000
 C      3   1   2     2.639134133444   120.78657212   179.48573979
 H      3   1   2     2.036592941373   121.41547937   357.47735482
 C      4   3   1     2.623588434026   119.52082212     0.39510318
 C      6   4   3     2.635618714032   120.42921545     0.40899216
 H      6   4   3     2.039214328561   121.27957759   180.08907396
 C      7   6   4     2.628666144217   119.33289602   359.69984644
 C      7   6   4     2.751812435136   120.54308263   179.45007411
 H      9   7   6     2.044028402804   119.70044817   180.19141817
 C      4   3   1     2.752680741168   119.97340071   180.59566285
 C      5   3   1     5.530155348985   130.88866671    33.66582686
 C     13   5   3     2.924676664956    69.47090398    10.44754428
 N     13   5   3     2.730127489144   144.46965777   266.26033406
 N      2   1   3     2.379724137155   130.48749804   315.36597367
 H     14  13   5     2.071558609272   108.13210282   163.19498392
 C     12   4   3     4.420284995382   153.12181200     4.74951483
 C     18  12   4     2.895152862049   124.58727280   297.35434715
 N     12   4   3     2.382121942492   121.53597022     4.93262951
 N     19  18  12     2.742769544540   109.22058040    95.19438639
 C     10   7   6     4.410010054553   153.53575271     0.73553757
 C     22  10   7     2.897970540492   120.81289163    71.75422561
 N     10   7   6     2.382761047645   121.73195970     0.03923836
 H     22  10   7     2.081713809117    85.53040539   181.48785521
 N     23  22  10     2.744662456886   109.58238981   153.32943992
 H     26  23  22     1.918156037777   110.22654640    64.43641056
 H     26  23  22     1.916088416871   110.29125342   183.32300563
 H     15  13   5     1.918106198949   110.21580417   149.41512685
 H     15  13   5     1.918158113591   109.39080407    31.70837797
 H     21  19  18     1.916608735952   110.68281146   188.45736905
 H     21  19  18     1.917855635427   108.93148724   307.19475410
 H      2   1   3     2.057374948604   114.56223977   138.36838352
 H     12   4   3     2.081313626028   115.84531761   184.21522332
 H     10   7   6     2.081691928505   115.83951998   180.32481538
 H     14  13   5     2.076085580576   109.63836275    44.53540430
 H     22  10   7     2.070213152397   120.38134851   290.64368395
 H     18  12   4     2.084134343848    85.26541705   185.77616572
 H     18  12   4     2.067923276078   116.63661780    76.61354374
 H     19  18  12     2.086731167932   108.39925286   330.83496158
 H     19  18  12     2.068065212487   109.15404823   213.31164366
 H     13   5   3     2.067023718922    44.66448156   219.42754977
 H     13   5   3     2.065987974797   102.49008546   115.79911899
 H     23  22  10     2.082412358218   108.33143190   278.34769671
 H     23  22  10     2.067052397483   108.91726095    35.49829042

---------------------
BASIS SET INFORMATION
---------------------
There are 3 groups of distinct atoms

 Group   1 Type C   : 11s6p1d contracted to 5s3p1d pattern {62111/411/1}
 Group   2 Type H   : 5s contracted to 3s pattern {311}
 Group   3 Type N   : 11s6p1d contracted to 5s3p1d pattern {62111/411/1}

Atom   0C    basis set group =>   1
Atom   1C    basis set group =>   1
Atom   2C    basis set group =>   1
Atom   3C    basis set group =>   1
Atom   4H    basis set group =>   2
Atom   5C    basis set group =>   1
Atom   6C    basis set group =>   1
Atom   7H    basis set group =>   2
Atom   8C    basis set group =>   1
Atom   9C    basis set group =>   1
Atom  10H    basis set group =>   2
Atom  11C    basis set group =>   1
Atom  12C    basis set group =>   1
Atom  13C    basis set group =>   1
Atom  14N    basis set group =>   3
Atom  15N    basis set group =>   3
Atom  16H    basis set group =>   2
Atom  17C    basis set group =>   1
Atom  18C    basis set group =>   1
Atom  19N    basis set group =>   3
Atom  20N    basis set group =>   3
Atom  21C    basis set group =>   1
Atom  22C    basis set group =>   1
Atom  23N    basis set group =>   3
Atom  24H    basis set group =>   2
Atom  25N    basis set group =>   3
Atom  26H    basis set group =>   2
Atom  27H    basis set group =>   2
Atom  28H    basis set group =>   2
Atom  29H    basis set group =>   2
Atom  30H    basis set group =>   2
Atom  31H    basis set group =>   2
Atom  32H    basis set group =>   2
Atom  33H    basis set group =>   2
Atom  34H    basis set group =>   2
Atom  35H    basis set group =>   2
Atom  36H    basis set group =>   2
Atom  37H    basis set group =>   2
Atom  38H    basis set group =>   2
Atom  39H    basis set group =>   2
Atom  40H    basis set group =>   2
Atom  41H    basis set group =>   2
Atom  42H    basis set group =>   2
Atom  43H    basis set group =>   2
Atom  44H    basis set group =>   2

-------------------------
BASIS SET IN INPUT FORMAT
-------------------------

 # Basis set for element : H 
 NewGTO H 
 S 3 
   1      34.0613410000      0.0254393072
   2       5.1235746000      0.1900859489
   3       1.1646626000      0.8524411301
 S 1 
   1       0.3272304100      1.0000000000
 S 1 
   1       0.1030724100      1.0000000000
  end;

 # Basis set for element : C 
 NewGTO C 
 S 6 
   1   13575.3496820000      0.0006064549
   2    2035.2333680000      0.0046979088
   3     463.2256235900      0.0243324776
   4     131.2001959800      0.0973999683
   5      42.8530158910      0.3019558425
   6      15.5841857660      0.6623360915
 S 2 
   1       6.2067138508      0.6559530854
   2       2.5764896527      0.3758563329
 S 1 
   1       0.5769633942      1.0000000000
 S 1 
   1       0.2297283136      1.0000000000
 S 1 
   1       0.0951644400      1.0000000000
 P 4 
   1      34.6972322440      0.0113272200
   2       7.9582622826      0.0761696592
   3       2.3780826883      0.3019225220
   4       0.8143320818      0.7278502735
 P 1 
   1       0.2888754725      1.0000000000
 P 1 
   1       0.1005682367      1.0000000000
 D 1 
   1       0.8000000000      1.0000000000
  end;

 # Basis set for element : N 
 NewGTO N 
 S 6 
   1   19730.8006470000      0.0005862639
   2    2957.8958745000      0.0045428821
   3     673.2213359500      0.0235584136
   4     190.6824949400      0.0947091933
   5      62.2954418980      0.2971978492
   6      22.6541611820      0.6691624689
 S 2 
   1       8.9791477428      0.6459668363
   2       3.6863002370      0.3870057440
 S 1 
   1       0.8466007680      1.0000000000
 S 1 
   1       0.3364713377      1.0000000000
 S 1 
   1       0.1364765367      1.0000000000
 P 4 
   1      49.2003805100      0.0114488252
   2      11.3467905370      0.0784223379
   3       3.4273972411      0.3081809474
   4       1.1785525134      0.7202719637
 P 1 
   1       0.4164220497      1.0000000000
 P 1 
   1       0.1426082601      1.0000000000
 D 1 
   1       0.8000000000      1.0000000000
  end;

---------------------------------
AUXILIARY/J BASIS SET INFORMATION
---------------------------------
There are 3 groups of distinct atoms

 Group   1 Type C   : 8s3p3d contracted to 6s3p3d pattern {311111/111/111}
 Group   2 Type H   : 5s2p contracted to 3s1p pattern {311/2}
 Group   3 Type N   : 8s3p3d contracted to 6s3p3d pattern {311111/111/111}

Atom   0C    basis set group =>   1
Atom   1C    basis set group =>   1
Atom   2C    basis set group =>   1
Atom   3C    basis set group =>   1
Atom   4H    basis set group =>   2
Atom   5C    basis set group =>   1
Atom   6C    basis set group =>   1
Atom   7H    basis set group =>   2
Atom   8C    basis set group =>   1
Atom   9C    basis set group =>   1
Atom  10H    basis set group =>   2
Atom  11C    basis set group =>   1
Atom  12C    basis set group =>   1
Atom  13C    basis set group =>   1
Atom  14N    basis set group =>   3
Atom  15N    basis set group =>   3
Atom  16H    basis set group =>   2
Atom  17C    basis set group =>   1
Atom  18C    basis set group =>   1
Atom  19N    basis set group =>   3
Atom  20N    basis set group =>   3
Atom  21C    basis set group =>   1
Atom  22C    basis set group =>   1
Atom  23N    basis set group =>   3
Atom  24H    basis set group =>   2
Atom  25N    basis set group =>   3
Atom  26H    basis set group =>   2
Atom  27H    basis set group =>   2
Atom  28H    basis set group =>   2
Atom  29H    basis set group =>   2
Atom  30H    basis set group =>   2
Atom  31H    basis set group =>   2
Atom  32H    basis set group =>   2
Atom  33H    basis set group =>   2
Atom  34H    basis set group =>   2
Atom  35H    basis set group =>   2
Atom  36H    basis set group =>   2
Atom  37H    basis set group =>   2
Atom  38H    basis set group =>   2
Atom  39H    basis set group =>   2
Atom  40H    basis set group =>   2
Atom  41H    basis set group =>   2
Atom  42H    basis set group =>   2
Atom  43H    basis set group =>   2
Atom  44H    basis set group =>   2

-------------------------------------
AUXILIARY/J BASIS SET IN INPUT FORMAT
-------------------------------------

 # Auxiliary/J basis set for element : H 
 NewAuxJGTO H 
 S 3 
   1      15.6752927000      0.1007184237
   2       3.6063578000      0.3404257499
   3       1.2080016000      0.6491996172
 S 1 
   1       0.4726794000      1.0000000000
 S 1 
   1       0.2018100000      1.0000000000
 P 2 
   1       2.0281365000      0.5596620919
   2       0.5358730000      0.5596620919
  end;

 # Auxiliary/J basis set for element : C 
 NewAuxJGTO C 
 S 3 
   1     459.7023860000      0.1098751775
   2     132.9577920000      0.2844848472
   3      41.5658170000      0.6964707648
 S 1 
   1      13.9155610000      1.0000000000
 S 1 
   1       4.9305290000     -1.0000000000
 S 1 
   1       1.8229480000      1.0000000000
 S 1 
   1       0.6920510000      1.0000000000
 S 1 
   1       0.2650930000      1.0000000000
 P 1 
   1       0.3278473579      1.0000000000
 P 1 
   1       0.7868336591      1.0000000000
 P 1 
   1       1.9710183160      1.0000000000
 D 1 
   1       4.0133010000      1.0000000000
 D 1 
   1       1.2475050000      1.0000000000
 D 1 
   1       0.4081480000      1.0000000000
  end;

 # Auxiliary/J basis set for element : N 
 NewAuxJGTO N 
 S 3 
   1     680.5425300000      0.1043830093
   2     196.7562140000      0.2751518961
   3      61.2707930000      0.7090825511
 S 1 
   1      20.3644630000      1.0000000000
 S 1 
   1       7.1424770000     -1.0000000000
 S 1 
   1       2.6080260000      1.0000000000
 S 1 
   1       0.9763730000      1.0000000000
 S 1 
   1       0.3686330000      1.0000000000
 P 1 
   1       0.4707391941      1.0000000000
 P 1 
   1       1.1297740658     -1.0000000000
 P 1 
   1       2.8300840347      1.0000000000
 D 1 
   1       5.8329865000      1.0000000000
 D 1 
   1       1.7326865000      1.0000000000
 D 1 
   1       0.5452425000      1.0000000000
  end;



           ************************************************************
           *        Program running with 32 parallel MPI-processes    *
           *              working on a common directory               *
           ************************************************************
------------------------------------------------------------------------------
                           ORCA GTO INTEGRAL CALCULATION
                           -- RI-GTO INTEGRALS CHOSEN --
------------------------------------------------------------------------------

                         BASIS SET STATISTICS AND STARTUP INFO

Gaussian basis set:
 # of primitive gaussian shells          ...  498
 # of primitive gaussian functions       ...  834
 # of contracted shells                  ...  261
 # of contracted basis functions         ...  471
 Highest angular momentum                ...    2
 Maximum contraction depth               ...    6
Auxiliary gaussian basis set:
 # of primitive gaussian shells          ...  462
 # of primitive gaussian functions       ...  936
 # of contracted shells                  ...  348
 # of contracted aux-basis functions     ...  774
 Highest angular momentum                ...    2
 Maximum contraction depth               ...    3
Ratio of auxiliary to basis functions    ...  1.64
Integral package used                  ... LIBINT
 One Electron integrals                  ... done
 Ordering auxiliary basis shells         ... done
 Integral threshhold             Thresh  ...  2.500e-11
 Primitive cut-off               TCut    ...  2.500e-12
 Pre-screening matrix                    ... done
 Shell pair data                         ... 
 Ordering of the shell pairs             ... done (   0.006 sec) 22137 of 34191 pairs
 Determination of significant pairs      ... done (   0.000 sec)
 Creation of shell pair data             ... done (   0.004 sec)
 Storage of shell pair data              ... done (   0.006 sec)
 Shell pair data done in (   0.016 sec)
 Computing two index integrals           ... done
 Cholesky decomposition of the V-matrix  ... done


Timings:
 Total evaluation time                   ...   0.893 sec (  0.015 min)
 One electron matrix time                ...   0.162 sec (  0.003 min) = 18.1%
 Schwartz matrix evaluation time         ...   0.252 sec (  0.004 min) = 28.2%
 Two index repulsion integral time       ...   0.029 sec (  0.000 min) =  3.2%
 Cholesky decomposition of V             ...   0.416 sec (  0.007 min) = 46.5%
 Three index repulsion integral time     ...   0.001 sec (  0.000 min) =  0.1%



           ************************************************************
           *        Program running with 32 parallel MPI-processes    *
           *              working on a common directory               *
           ************************************************************
-------------------------------------------------------------------------------
                                 ORCA SCF
-------------------------------------------------------------------------------

------------
SCF SETTINGS
------------
Hamiltonian:
 Density Functional     Method          .... DFT(GTOs)
 Exchange Functional    Exchange        .... B973C
 Correlation Functional Correlation     .... B973C
 Gradients option       PostSCFGGA      .... off
   Density functional embedding theory  .... OFF
 RI-approximation to the Coulomb term is turned on
   Number of auxiliary basis functions  .... 774


General Settings:
 Integral files         IntName         .... _o_1_alde1_3_ami4_2_opt_B97-3c
 Hartree-Fock type      HFTyp           .... RHF
 Total Charge           Charge          ....    0
 Multiplicity           Mult            ....    1
 Number of Electrons    NEL             ....  156
 Basis Dimension        Dim             ....  471
 Nuclear Repulsion      ENuc            ....   1563.4281673532 Eh

Convergence Acceleration:
 DIIS                   CNVDIIS         .... on
   Start iteration      DIISMaxIt       ....     0
   Startup error        DIISStart       ....  0.200000
   # of expansion vecs  DIISMaxEq       ....     5
   Bias factor          DIISBfac        ....   1.050
   Max. coefficient     DIISMaxC        ....  10.000
 Newton-Raphson         CNVNR           .... off
 SOSCF                  CNVSOSCF        .... on
   Start iteration      SOSCFMaxIt      ....   150
   Startup grad/error   SOSCFStart      ....  0.001000
 Level Shifting         CNVShift        .... on
   Level shift para.    LevelShift      ....    0.2500
   Turn off err/grad.   ShiftErr        ....    0.0000
 Zerner damping         CNVZerner       .... off
 Static damping         CNVDamp         .... on
   Fraction old density DampFac         ....    0.8500
   Max. Damping (<1)    DampMax         ....    0.9800
   Min. Damping (>=0)   DampMin         ....    0.0000
   Turn off err/grad.   DampErr         ....    0.0300
 Fernandez-Rico         CNVRico         .... off

SCF Procedure:
 Maximum # iterations   MaxIter         ....  2000
 SCF integral mode      SCFMode         .... Direct
   Integral package                     .... LIBINT
 Reset frequency        DirectResetFreq ....    20
 Integral Threshold     Thresh          ....  2.500e-11 Eh
 Primitive CutOff       TCut            ....  2.500e-12 Eh

Convergence Tolerance:
 Convergence Check Mode ConvCheckMode   .... Total+1el-Energy
 Convergence forced     ConvForced      .... 0
 Energy Change          TolE            ....  1.000e-08 Eh
 1-El. energy change                    ....  1.000e-05 Eh
 Orbital Gradient       TolG            ....  1.000e-05
 Orbital Rotation angle TolX            ....  1.000e-05
 DIIS Error             TolErr          ....  5.000e-07


Diagonalization of the overlap matrix:
Smallest eigenvalue                        ... 6.113e-06
Time for diagonalization                   ...    0.205 sec
Threshold for overlap eigenvalues          ... 1.000e-08
Number of eigenvalues below threshold      ... 0
Time for construction of square roots      ...    0.087 sec
Total time needed                          ...    0.293 sec

--------------------------------
INITIAL GUESS: MINIMAL BASIS EHT
--------------------------------
The minimal basis has 129 functions
EHT matrix was diagonalized
Basis set overlap was calculated now projecting the orbitals
Using GuessMode=FMatrix for the initial guess
C*T matrix was formed
Effective Fockian was calculated
Effective Fockian was diagonalized
Initial density was built
                      ------------------
                      INITIAL GUESS DONE
                      ------------------
-------------------
DFT GRID GENERATION
-------------------

General Integration Accuracy     IntAcc      ...  5.340
Radial Grid Type                 RadialGrid  ... Gauss-Chebyshev
Angular Grid (max. acc.)         AngularGrid ... Lebedev-590
Angular grid pruning method      GridPruning ... 3 (G Style)
Weight generation scheme         WeightScheme... Becke
Basis function cutoff            BFCut       ...    1.0000e-11
Integration weight cutoff        WCut        ...    1.0000e-14
Grids for H and He will be reduced by one unit

# of grid points (after initial pruning)     ... 609960 (   0.0 sec)
# of grid points (after weights+screening)   ... 532318 (   0.3 sec)
nearest neighbour list constructed           ...    0.0 sec
Grid point re-assignment to atoms done       ...    0.1 sec
Grid point division into batches done        ...    5.5 sec
Reduced shell lists constructed in    5.7 sec

Total number of grid points                  ...   532318
Total number of batches                      ...     8340
Average number of points per batch           ...       63
Average number of grid points per atom       ...    11829
Average number of shells per batch           ...   129.42 (49.58%)
Average number of basis functions per batch  ...   243.43 (51.68%)
Average number of large shells per batch     ...    87.43 (67.56%)
Average number of large basis fcns per batch ...   170.60 (70.08%)
Maximum spatial batch extension              ...   9.51, 11.48, 18.40 au
Average spatial batch extension              ...   0.03,  0.03,  0.04 au

Time for grid setup =    6.247 sec

--------------
SCF ITERATIONS
--------------
ITER       Energy         Delta-E        Max-DP      RMS-DP      [F,P]     Damp
               ***  Starting incremental Fock matrix formation  ***
  0   -910.8798560423   0.000000000000 4.15273236  0.02080839  0.4756951 0.8500
  1   -911.4727459582  -0.592889915916 2.06787330  0.01017212  0.4054235 0.8500
                               ***Turning on DIIS***
  2   -911.8771354765  -0.404389518275 0.54088564  0.00289351  0.3444148 0.8500
  3   -912.1724470511  -0.295311574644 0.45157906  0.00265234  0.2923947 0.8500
  4   -912.4203444775  -0.247897426371 0.64162236  0.00345336  0.2481694 0.8500
  5   -912.6247769593  -0.204432481789 0.56674851  0.00308762  0.2108164 0.8500
  6   -912.8022284294  -0.177451470097 0.46850477  0.00260494  0.1792395 0.8500
  7   -912.9548737776  -0.152645348170 0.36853549  0.00211134  0.1524192 0.8500
  8   -913.0851160245  -0.130242246972 0.33734444  0.00189969  0.1295928 0.8500
  9   -913.1950696190  -0.109953594510 0.31084517  0.00171575  0.1101271 0.8500
 10   -913.2878472605  -0.092777641483 0.26252494  0.00145161  0.0935657 0.8500
 11   -913.3667510131  -0.078903752586 0.21111941  0.00118487  0.0795187 0.8500
 12   -913.4340123808  -0.067261367649 0.17305117  0.00098046  0.0675990 0.8500
 13   -913.4911738724  -0.057161491586 0.15158847  0.00085052  0.0574654 0.8500
 14   -913.5396739575  -0.048500085129 0.13353951  0.00073955  0.0488383 0.8500
 15   -913.5808298387  -0.041155881240 0.11238607  0.00062141  0.0415001 0.8500
 16   -913.6158059659  -0.034976127138 0.09132201  0.00050829  0.0352687 0.8500
 17   -913.6455465120  -0.029740546153 0.50098965  0.00279566  0.0299780 0.0000
 18   -913.8138151600  -0.168268648018 0.04384280  0.00024828  0.0021221 0.0000
 19   -913.8137823259   0.000032834155 0.00527118  0.00003223  0.0030309 0.0000
               *** Restarting incremental Fock matrix formation ***
                                   *** Resetting DIIS ***
 20   -913.8138408051  -0.000058479176 0.02140739  0.00011311  0.0010919 0.0000
 21   -913.8138309296   0.000009875463 0.00111023  0.00001273  0.0016131 0.0000
                      *** Initiating the SOSCF procedure ***
                           *** Shutting down DIIS ***
                      *** Re-Reading the Fockian *** 
                      *** Removing any level shift *** 
ITER      Energy       Delta-E        Grad      Rot      Max-DP    RMS-DP
 22   -913.81384722  -0.0000162889  0.000119  0.000119  0.002027  0.000011
               *** Restarting incremental Fock matrix formation ***
 23   -913.81385033  -0.0000031129  0.000184  0.000860  0.005370  0.000025
 24   -913.81384585   0.0000044816  0.000533  0.000603  0.005235  0.000025
 25   -913.81385086  -0.0000050102  0.000006  0.000040  0.000530  0.000005
 26   -913.81385083   0.0000000271  0.000016  0.000036  0.000647  0.000006
 27   -913.81385086  -0.0000000299  0.000004  0.000014  0.000991  0.000007
 28   -913.81385087  -0.0000000047  0.000008  0.000013  0.000346  0.000003
                  ***Gradient check signals convergence***
              ***Rediagonalizing the Fockian in SOSCF/NRSCF***

               *****************************************************
               *                     SUCCESS                       *
               *           SCF CONVERGED AFTER  29 CYCLES          *
               *****************************************************


----------------
TOTAL SCF ENERGY
----------------

Total Energy       :         -913.81385087 Eh          -24866.13905 eV

Components:
Nuclear Repulsion  :         1563.42816735 Eh           42543.04328 eV
Electronic Energy  :        -2477.24201822 Eh          -67409.18233 eV
One Electron Energy:        -4343.26100087 Eh         -118186.14030 eV
Two Electron Energy:         1866.01898265 Eh           50776.95797 eV

Virial components:
Potential Energy   :        -1824.39932323 Eh          -49644.42946 eV
Kinetic Energy     :          910.58547236 Eh           24778.29041 eV
Virial Ratio       :            2.00354539


DFT components:
N(Alpha)           :       77.999997061820 electrons
N(Beta)            :       77.999997061820 electrons
N(Total)           :      155.999994123640 electrons
E(XC)              :     -131.179574636781 Eh       
DFET-embed. en.    :        0.000000000000 Eh       

---------------
SCF CONVERGENCE
---------------

  Last Energy change         ...   -1.1948e-09  Tolerance :   1.0000e-08
  Last MAX-Density change    ...    7.6106e-04  Tolerance :   1.0000e-07
  Last RMS-Density change    ...    5.9347e-06  Tolerance :   5.0000e-09
  Last Orbital Gradient      ...    7.8477e-07  Tolerance :   1.0000e-05
  Last Orbital Rotation      ...    5.6965e-06  Tolerance :   1.0000e-05

             **** THE GBW FILE WAS UPDATED (_o_1_alde1_3_ami4_2_opt_B97-3c.gbw) ****
             **** DENSITY FILE WAS UPDATED (_o_1_alde1_3_ami4_2_opt_B97-3c.scfp) ****
             **** ENERGY FILE WAS UPDATED (_o_1_alde1_3_ami4_2_opt_B97-3c.en.tmp) ****
             **** THE GBW FILE WAS UPDATED (_o_1_alde1_3_ami4_2_opt_B97-3c.gbw) ****
             **** DENSITY FILE WAS UPDATED (_o_1_alde1_3_ami4_2_opt_B97-3c.scfp) ****
----------------
ORBITAL ENERGIES
----------------

  NO   OCC          E(Eh)            E(eV) 
   0   2.0000     -13.985825      -380.5736 
   1   2.0000     -13.984941      -380.5496 
   2   2.0000     -13.979567      -380.4034 
   3   2.0000     -13.972013      -380.1978 
   4   2.0000     -13.959230      -379.8499 
   5   2.0000     -13.957539      -379.8039 
   6   2.0000      -9.938685      -270.4454 
   7   2.0000      -9.938530      -270.4412 
   8   2.0000      -9.933725      -270.3104 
   9   2.0000      -9.918517      -269.8966 
  10   2.0000      -9.917093      -269.8578 
  11   2.0000      -9.917036      -269.8563 
  12   2.0000      -9.916815      -269.8502 
  13   2.0000      -9.915572      -269.8164 
  14   2.0000      -9.915121      -269.8042 
  15   2.0000      -9.914536      -269.7882 
  16   2.0000      -9.912741      -269.7394 
  17   2.0000      -9.912603      -269.7356 
  18   2.0000      -9.910003      -269.6649 
  19   2.0000      -9.909223      -269.6437 
  20   2.0000      -9.909097      -269.6402 
  21   2.0000      -0.866853       -23.5883 
  22   2.0000      -0.864545       -23.5255 
  23   2.0000      -0.857793       -23.3417 
  24   2.0000      -0.816752       -22.2249 
  25   2.0000      -0.809713       -22.0334 
  26   2.0000      -0.804674       -21.8963 
  27   2.0000      -0.798903       -21.7393 
  28   2.0000      -0.725993       -19.7553 
  29   2.0000      -0.720032       -19.5931 
  30   2.0000      -0.673642       -18.3307 
  31   2.0000      -0.665167       -18.1001 
  32   2.0000      -0.664209       -18.0740 
  33   2.0000      -0.602984       -16.4080 
  34   2.0000      -0.596032       -16.2189 
  35   2.0000      -0.584438       -15.9034 
  36   2.0000      -0.561759       -15.2862 
  37   2.0000      -0.549710       -14.9584 
  38   2.0000      -0.534767       -14.5517 
  39   2.0000      -0.503421       -13.6988 
  40   2.0000      -0.491014       -13.3612 
  41   2.0000      -0.472809       -12.8658 
  42   2.0000      -0.466256       -12.6875 
  43   2.0000      -0.452883       -12.3236 
  44   2.0000      -0.448973       -12.2172 
  45   2.0000      -0.446046       -12.1375 
  46   2.0000      -0.439461       -11.9583 
  47   2.0000      -0.433340       -11.7918 
  48   2.0000      -0.423748       -11.5308 
  49   2.0000      -0.421622       -11.4729 
  50   2.0000      -0.415460       -11.3052 
  51   2.0000      -0.404425       -11.0050 
  52   2.0000      -0.397887       -10.8270 
  53   2.0000      -0.393351       -10.7036 
  54   2.0000      -0.390188       -10.6175 
  55   2.0000      -0.378709       -10.3052 
  56   2.0000      -0.367335        -9.9957 
  57   2.0000      -0.360409        -9.8072 
  58   2.0000      -0.353070        -9.6075 
  59   2.0000      -0.348059        -9.4712 
  60   2.0000      -0.345136        -9.3916 
  61   2.0000      -0.340732        -9.2718 
  62   2.0000      -0.338248        -9.2042 
  63   2.0000      -0.332059        -9.0358 
  64   2.0000      -0.320375        -8.7178 
  65   2.0000      -0.313804        -8.5390 
  66   2.0000      -0.311021        -8.4633 
  67   2.0000      -0.303228        -8.2512 
  68   2.0000      -0.292971        -7.9722 
  69   2.0000      -0.266625        -7.2552 
  70   2.0000      -0.230524        -6.2729 
  71   2.0000      -0.226409        -6.1609 
  72   2.0000      -0.223920        -6.0932 
  73   2.0000      -0.221068        -6.0156 
  74   2.0000      -0.205362        -5.5882 
  75   2.0000      -0.199835        -5.4378 
  76   2.0000      -0.190361        -5.1800 
  77   2.0000      -0.188124        -5.1191 
  78   0.0000      -0.091592        -2.4924 
  79   0.0000      -0.083365        -2.2685 
  80   0.0000      -0.053204        -1.4478 
  81   0.0000       0.003400         0.0925 
  82   0.0000       0.017437         0.4745 
  83   0.0000       0.020439         0.5562 
  84   0.0000       0.025546         0.6951 
  85   0.0000       0.036978         1.0062 
  86   0.0000       0.042103         1.1457 
  87   0.0000       0.043229         1.1763 
  88   0.0000       0.054046         1.4707 
  89   0.0000       0.055096         1.4992 
  90   0.0000       0.060568         1.6481 
  91   0.0000       0.063721         1.7339 
  92   0.0000       0.070624         1.9218 
  93   0.0000       0.071682         1.9506 
  94   0.0000       0.082073         2.2333 
  95   0.0000       0.085493         2.3264 
  96   0.0000       0.088581         2.4104 
  97   0.0000       0.096137         2.6160 
  98   0.0000       0.099494         2.7074 
  99   0.0000       0.099848         2.7170 
 100   0.0000       0.104549         2.8449 
 101   0.0000       0.108764         2.9596 
 102   0.0000       0.114767         3.1230 
 103   0.0000       0.118066         3.2127 
 104   0.0000       0.121339         3.3018 
 105   0.0000       0.122187         3.3249 
 106   0.0000       0.127938         3.4814 
 107   0.0000       0.128308         3.4914 
 108   0.0000       0.137856         3.7513 
 109   0.0000       0.141991         3.8638 
 110   0.0000       0.147503         4.0138 
 111   0.0000       0.148781         4.0485 
 112   0.0000       0.156405         4.2560 
 113   0.0000       0.161415         4.3923 
 114   0.0000       0.166679         4.5356 
 115   0.0000       0.173440         4.7195 
 116   0.0000       0.176655         4.8070 
 117   0.0000       0.182028         4.9532 
 118   0.0000       0.183348         4.9892 
 119   0.0000       0.190272         5.1776 
 120   0.0000       0.193048         5.2531 
 121   0.0000       0.203443         5.5360 
 122   0.0000       0.207992         5.6598 
 123   0.0000       0.212893         5.7931 
 124   0.0000       0.221161         6.0181 
 125   0.0000       0.223852         6.0913 
 126   0.0000       0.231503         6.2995 
 127   0.0000       0.232243         6.3196 
 128   0.0000       0.236145         6.4258 
 129   0.0000       0.239458         6.5160 
 130   0.0000       0.248761         6.7691 
 131   0.0000       0.254761         6.9324 
 132   0.0000       0.257614         7.0100 
 133   0.0000       0.262592         7.1455 
 134   0.0000       0.267912         7.2903 
 135   0.0000       0.274529         7.4703 
 136   0.0000       0.276706         7.5296 
 137   0.0000       0.280060         7.6208 
 138   0.0000       0.281135         7.6501 
 139   0.0000       0.288938         7.8624 
 140   0.0000       0.292554         7.9608 
 141   0.0000       0.295828         8.0499 
 142   0.0000       0.307423         8.3654 
 143   0.0000       0.312224         8.4960 
 144   0.0000       0.313959         8.5433 
 145   0.0000       0.316778         8.6200 
 146   0.0000       0.324062         8.8182 
 147   0.0000       0.328811         8.9474 
 148   0.0000       0.329948         8.9783 
 149   0.0000       0.333588         9.0774 
 150   0.0000       0.343188         9.3386 
 151   0.0000       0.349625         9.5138 
 152   0.0000       0.353831         9.6282 
 153   0.0000       0.356002         9.6873 
 154   0.0000       0.357555         9.7296 
 155   0.0000       0.359827         9.7914 
 156   0.0000       0.366818         9.9816 
 157   0.0000       0.368391        10.0244 
 158   0.0000       0.376834        10.2542 
 159   0.0000       0.383291        10.4299 
 160   0.0000       0.386370        10.5137 
 161   0.0000       0.387853        10.5540 
 162   0.0000       0.391438        10.6516 
 163   0.0000       0.392539        10.6815 
 164   0.0000       0.394949        10.7471 
 165   0.0000       0.396922        10.8008 
 166   0.0000       0.398155        10.8343 
 167   0.0000       0.399707        10.8766 
 168   0.0000       0.403150        10.9703 
 169   0.0000       0.404825        11.0159 
 170   0.0000       0.407527        11.0894 
 171   0.0000       0.415265        11.2999 
 172   0.0000       0.423341        11.5197 
 173   0.0000       0.426958        11.6181 
 174   0.0000       0.427960        11.6454 
 175   0.0000       0.433716        11.8020 
 176   0.0000       0.435751        11.8574 
 177   0.0000       0.442544        12.0422 
 178   0.0000       0.443290        12.0625 
 179   0.0000       0.447622        12.1804 
 180   0.0000       0.456034        12.4093 
 181   0.0000       0.459297        12.4981 
 182   0.0000       0.460169        12.5218 
 183   0.0000       0.464745        12.6463 
 184   0.0000       0.470539        12.8040 
 185   0.0000       0.471909        12.8413 
 186   0.0000       0.474788        12.9196 
 187   0.0000       0.479303        13.0425 
 188   0.0000       0.490440        13.3456 
 189   0.0000       0.494086        13.4448 
 190   0.0000       0.496859        13.5202 
 191   0.0000       0.502127        13.6636 
 192   0.0000       0.505216        13.7476 
 193   0.0000       0.506323        13.7777 
 194   0.0000       0.509289        13.8584 
 195   0.0000       0.513537        13.9741 
 196   0.0000       0.524747        14.2791 
 197   0.0000       0.531476        14.4622 
 198   0.0000       0.536104        14.5881 
 199   0.0000       0.543267        14.7830 
 200   0.0000       0.548711        14.9312 
 201   0.0000       0.553142        15.0517 
 202   0.0000       0.565800        15.3962 
 203   0.0000       0.569461        15.4958 
 204   0.0000       0.574010        15.6196 
 205   0.0000       0.582095        15.8396 
 206   0.0000       0.584987        15.9183 
 207   0.0000       0.596050        16.2193 
 208   0.0000       0.603987        16.4353 
 209   0.0000       0.607249        16.5241 
 210   0.0000       0.617209        16.7951 
 211   0.0000       0.622264        16.9327 
 212   0.0000       0.625672        17.0254 
 213   0.0000       0.628052        17.0902 
 214   0.0000       0.640445        17.4274 
 215   0.0000       0.648894        17.6573 
 216   0.0000       0.653581        17.7848 
 217   0.0000       0.663123        18.0445 
 218   0.0000       0.666254        18.1297 
 219   0.0000       0.668859        18.2006 
 220   0.0000       0.674864        18.3640 
 221   0.0000       0.685993        18.6668 
 222   0.0000       0.690692        18.7947 
 223   0.0000       0.702393        19.1131 
 224   0.0000       0.706780        19.2325 
 225   0.0000       0.715668        19.4743 
 226   0.0000       0.733459        19.9584 
 227   0.0000       0.735986        20.0272 
 228   0.0000       0.751380        20.4461 
 229   0.0000       0.755043        20.5458 
 230   0.0000       0.757362        20.6089 
 231   0.0000       0.776743        21.1363 
 232   0.0000       0.801789        21.8178 
 233   0.0000       0.814870        22.1737 
 234   0.0000       0.839544        22.8451 
 235   0.0000       0.906032        24.6544 
 236   0.0000       0.949855        25.8469 
 237   0.0000       1.113139        30.2901 
 238   0.0000       1.175580        31.9892 
 239   0.0000       1.206279        32.8245 
 240   0.0000       1.213327        33.0163 
 241   0.0000       1.228888        33.4397 
 242   0.0000       1.236262        33.6404 
 243   0.0000       1.241800        33.7911 
 244   0.0000       1.258193        34.2372 
 245   0.0000       1.267116        34.4800 
 246   0.0000       1.276583        34.7376 
 247   0.0000       1.279684        34.8220 
 248   0.0000       1.296749        35.2863 
 249   0.0000       1.300223        35.3809 
 250   0.0000       1.312048        35.7026 
 251   0.0000       1.322962        35.9996 
 252   0.0000       1.329596        36.1801 
 253   0.0000       1.331749        36.2387 
 254   0.0000       1.337908        36.4063 
 255   0.0000       1.342515        36.5317 
 256   0.0000       1.350821        36.7577 
 257   0.0000       1.353301        36.8252 
 258   0.0000       1.357861        36.9493 
 259   0.0000       1.365831        37.1661 
 260   0.0000       1.368884        37.2492 
 261   0.0000       1.376198        37.4483 
 262   0.0000       1.379980        37.5512 
 263   0.0000       1.386169        37.7196 
 264   0.0000       1.393149        37.9095 
 265   0.0000       1.397763        38.0351 
 266   0.0000       1.400792        38.1175 
 267   0.0000       1.410132        38.3716 
 268   0.0000       1.412855        38.4457 
 269   0.0000       1.417455        38.5709 
 270   0.0000       1.421543        38.6821 
 271   0.0000       1.432430        38.9784 
 272   0.0000       1.443219        39.2720 
 273   0.0000       1.448144        39.4060 
 274   0.0000       1.454465        39.5780 
 275   0.0000       1.463218        39.8162 
 276   0.0000       1.466525        39.9062 
 277   0.0000       1.477422        40.2027 
 278   0.0000       1.486596        40.4523 
 279   0.0000       1.490430        40.5567 
 280   0.0000       1.492315        40.6080 
 281   0.0000       1.499811        40.8119 
 282   0.0000       1.503070        40.9006 
 283   0.0000       1.507440        41.0195 
 284   0.0000       1.516717        41.2720 
 285   0.0000       1.522377        41.4260 
 286   0.0000       1.525332        41.5064 
 287   0.0000       1.530076        41.6355 
 288   0.0000       1.537484        41.8371 
 289   0.0000       1.542687        41.9786 
 290   0.0000       1.553619        42.2761 
 291   0.0000       1.570560        42.7371 
 292   0.0000       1.572196        42.7816 
 293   0.0000       1.579078        42.9689 
 294   0.0000       1.585658        43.1479 
 295   0.0000       1.587226        43.1906 
 296   0.0000       1.600387        43.5487 
 297   0.0000       1.605236        43.6807 
 298   0.0000       1.610667        43.8285 
 299   0.0000       1.615719        43.9659 
 300   0.0000       1.624300        44.1994 
 301   0.0000       1.636135        44.5215 
 302   0.0000       1.644173        44.7402 
 303   0.0000       1.655143        45.0387 
 304   0.0000       1.669713        45.4352 
 305   0.0000       1.681863        45.7658 
 306   0.0000       1.690897        46.0116 
 307   0.0000       1.697892        46.2020 
 308   0.0000       1.700302        46.2676 
 309   0.0000       1.707219        46.4558 
 310   0.0000       1.719887        46.8005 
 311   0.0000       1.720550        46.8185 
 312   0.0000       1.727240        47.0006 
 313   0.0000       1.734053        47.1860 
 314   0.0000       1.741937        47.4005 
 315   0.0000       1.743089        47.4319 
 316   0.0000       1.746966        47.5374 
 317   0.0000       1.751351        47.6567 
 318   0.0000       1.756710        47.8025 
 319   0.0000       1.764884        48.0249 
 320   0.0000       1.768514        48.1237 
 321   0.0000       1.769728        48.1568 
 322   0.0000       1.774553        48.2880 
 323   0.0000       1.783035        48.5188 
 324   0.0000       1.800542        48.9952 
 325   0.0000       1.804883        49.1134 
 326   0.0000       1.810396        49.2634 
 327   0.0000       1.813940        49.3598 
 328   0.0000       1.816130        49.4194 
 329   0.0000       1.818538        49.4849 
 330   0.0000       1.852932        50.4208 
 331   0.0000       1.857140        50.5353 
 332   0.0000       1.862161        50.6720 
 333   0.0000       1.865526        50.7636 
 334   0.0000       1.879598        51.1465 
 335   0.0000       1.885972        51.3199 
 336   0.0000       1.899344        51.6838 
 337   0.0000       1.909640        51.9640 
 338   0.0000       1.916876        52.1608 
 339   0.0000       1.922069        52.3021 
 340   0.0000       1.929553        52.5058 
 341   0.0000       1.940801        52.8119 
 342   0.0000       1.961601        53.3779 
 343   0.0000       1.970726        53.6262 
 344   0.0000       1.974594        53.7314 
 345   0.0000       1.975856        53.7658 
 346   0.0000       1.987759        54.0897 
 347   0.0000       1.994972        54.2860 
 348   0.0000       2.002307        54.4855 
 349   0.0000       2.013435        54.7884 
 350   0.0000       2.029883        55.2359 
 351   0.0000       2.037352        55.4392 
 352   0.0000       2.047600        55.7180 
 353   0.0000       2.047923        55.7268 
 354   0.0000       2.055297        55.9275 
 355   0.0000       2.070980        56.3542 
 356   0.0000       2.076318        56.4995 
 357   0.0000       2.085310        56.7442 
 358   0.0000       2.089754        56.8651 
 359   0.0000       2.101825        57.1936 
 360   0.0000       2.113529        57.5121 
 361   0.0000       2.121646        57.7329 
 362   0.0000       2.124201        57.8024 
 363   0.0000       2.141344        58.2689 
 364   0.0000       2.164089        58.8878 
 365   0.0000       2.193225        59.6807 
 366   0.0000       2.199691        59.8566 
 367   0.0000       2.212228        60.1978 
 368   0.0000       2.214479        60.2590 
 369   0.0000       2.221114        60.4396 
 370   0.0000       2.227047        60.6010 
 371   0.0000       2.238353        60.9087 
 372   0.0000       2.245559        61.1048 
 373   0.0000       2.247516        61.1580 
 374   0.0000       2.255920        61.3867 
 375   0.0000       2.257314        61.4246 
 376   0.0000       2.258663        61.4613 
 377   0.0000       2.271797        61.8188 
 378   0.0000       2.278424        61.9991 
 379   0.0000       2.280893        62.0662 
 380   0.0000       2.295736        62.4701 
 381   0.0000       2.301790        62.6349 
 382   0.0000       2.312083        62.9150 
 383   0.0000       2.324063        63.2410 
 384   0.0000       2.342547        63.7439 
 385   0.0000       2.360565        64.2342 
 386   0.0000       2.383548        64.8596 
 387   0.0000       2.388873        65.0045 
 388   0.0000       2.403404        65.3999 
 389   0.0000       2.432276        66.1856 
 390   0.0000       2.437846        66.3372 
 391   0.0000       2.446283        66.5667 
 392   0.0000       2.457689        66.8771 
 393   0.0000       2.474798        67.3427 
 394   0.0000       2.489235        67.7355 
 395   0.0000       2.507773        68.2400 
 396   0.0000       2.512198        68.3604 
 397   0.0000       2.519046        68.5467 
 398   0.0000       2.521544        68.6147 
 399   0.0000       2.530121        68.8481 
 400   0.0000       2.541222        69.1502 
 401   0.0000       2.559199        69.6393 
 402   0.0000       2.568167        69.8834 
 403   0.0000       2.588842        70.4460 
 404   0.0000       2.596967        70.6671 
 405   0.0000       2.613838        71.1261 
 406   0.0000       2.623896        71.3998 
 407   0.0000       2.628259        71.5186 
 408   0.0000       2.645110        71.9771 
 409   0.0000       2.654484        72.2322 
 410   0.0000       2.660184        72.3873 
 411   0.0000       2.698610        73.4329 
 412   0.0000       2.716698        73.9251 
 413   0.0000       2.719069        73.9896 
 414   0.0000       2.734904        74.4205 
 415   0.0000       2.747372        74.7598 
 416   0.0000       2.752575        74.9014 
 417   0.0000       2.776587        75.5548 
 418   0.0000       2.780202        75.6532 
 419   0.0000       2.791214        75.9528 
 420   0.0000       2.797184        76.1153 
 421   0.0000       2.829292        76.9890 
 422   0.0000       2.863489        77.9195 
 423   0.0000       2.893567        78.7380 
 424   0.0000       2.935292        79.8734 
 425   0.0000       2.958618        80.5081 
 426   0.0000       3.048431        82.9520 
 427   0.0000       3.050471        83.0075 
 428   0.0000       3.055921        83.1558 
 429   0.0000       3.064169        83.3803 
 430   0.0000       3.069591        83.5278 
 431   0.0000       3.074723        83.6675 
 432   0.0000       3.085979        83.9738 
 433   0.0000       3.092757        84.1582 
 434   0.0000       3.137546        85.3770 
 435   0.0000       3.150934        85.7413 
 436   0.0000       3.190051        86.8057 
 437   0.0000       3.226117        87.7871 
 438   0.0000       3.230871        87.9165 
 439   0.0000       3.257968        88.6538 
 440   0.0000       3.285041        89.3905 
 441   0.0000       3.342749        90.9608 
 442   0.0000       3.371338        91.7388 
 443   0.0000       3.390141        92.2504 
 444   0.0000       3.395299        92.3908 
 445   0.0000       3.470661        94.4415 
 446   0.0000       3.502687        95.3130 
 447   0.0000       3.527492        95.9879 
 448   0.0000       3.554900        96.7337 
 449   0.0000       3.577238        97.3416 
 450   0.0000      21.057322       572.9989 
 451   0.0000      21.567396       586.8787 
 452   0.0000      21.599741       587.7588 
 453   0.0000      21.603764       587.8683 
 454   0.0000      21.629754       588.5755 
 455   0.0000      21.642742       588.9289 
 456   0.0000      21.790813       592.9582 
 457   0.0000      21.795099       593.0748 
 458   0.0000      21.819398       593.7360 
 459   0.0000      21.907748       596.1401 
 460   0.0000      21.943706       597.1186 
 461   0.0000      21.964257       597.6778 
 462   0.0000      22.015010       599.0589 
 463   0.0000      22.045391       599.8856 
 464   0.0000      22.108855       601.6125 
 465   0.0000      31.480668       856.6325 
 466   0.0000      31.537592       858.1815 
 467   0.0000      31.538929       858.2179 
 468   0.0000      31.672257       861.8459 
 469   0.0000      31.679493       862.0428 
 470   0.0000      31.708483       862.8317 

                    ********************************
                    * MULLIKEN POPULATION ANALYSIS *
                    ********************************

-----------------------
MULLIKEN ATOMIC CHARGES
-----------------------
   0 C :    0.084400
   1 C :   -0.324606
   2 C :   -0.037798
   3 C :    0.243301
   4 H :    0.209740
   5 C :   -0.207904
   6 C :    0.184752
   7 H :    0.220977
   8 C :   -0.145420
   9 C :   -0.361817
  10 H :    0.214943
  11 C :   -0.380703
  12 C :   -0.292444
  13 C :   -0.349953
  14 N :   -0.618528
  15 N :   -0.084669
  16 H :    0.168522
  17 C :   -0.276466
  18 C :   -0.169208
  19 N :   -0.106823
  20 N :   -0.680865
  21 C :   -0.319693
  22 C :   -0.218397
  23 N :   -0.043343
  24 H :    0.136823
  25 N :   -0.656407
  26 H :    0.302450
  27 H :    0.310185
  28 H :    0.293946
  29 H :    0.310274
  30 H :    0.301377
  31 H :    0.315464
  32 H :    0.150218
  33 H :    0.117147
  34 H :    0.104846
  35 H :    0.180954
  36 H :    0.167364
  37 H :    0.129616
  38 H :    0.179800
  39 H :    0.130511
  40 H :    0.155686
  41 H :    0.178826
  42 H :    0.180263
  43 H :    0.149224
  44 H :    0.153435
Sum of atomic charges:   -0.0000000

--------------------------------
MULLIKEN REDUCED ORBITAL CHARGES
--------------------------------
  0 C s       :     3.303207  s :     3.303207
      pz      :     0.992164  p :     2.563942
      px      :     0.739143
      py      :     0.832635
      dz2     :     0.005089  d :     0.048451
      dxz     :     0.008296
      dyz     :     0.007043
      dx2y2   :     0.014661
      dxy     :     0.013361
  1 C s       :     3.297699  s :     3.297699
      pz      :     0.985628  p :     2.963782
      px      :     0.955489
      py      :     1.022665
      dz2     :     0.012868  d :     0.063124
      dxz     :     0.009786
      dyz     :     0.022887
      dx2y2   :     0.007817
      dxy     :     0.009765
  2 C s       :     3.062243  s :     3.062243
      pz      :     0.958108  p :     2.934137
      px      :     0.926488
      py      :     1.049541
      dz2     :     0.004251  d :     0.041417
      dxz     :     0.005743
      dyz     :     0.006490
      dx2y2   :     0.013525
      dxy     :     0.011408
  3 C s       :     3.263356  s :     3.263356
      pz      :     0.922316  p :     2.444509
      px      :     0.840074
      py      :     0.682119
      dz2     :     0.005600  d :     0.048834
      dxz     :     0.007774
      dyz     :     0.006891
      dx2y2   :     0.013378
      dxy     :     0.015191
  4 H s       :     0.790260  s :     0.790260
  5 C s       :     3.099630  s :     3.099630
      pz      :     0.950241  p :     3.067341
      px      :     1.052033
      py      :     1.065067
      dz2     :     0.003645  d :     0.040933
      dxz     :     0.007154
      dyz     :     0.005801
      dx2y2   :     0.013074
      dxy     :     0.011259
  6 C s       :     3.228238  s :     3.228238
      pz      :     0.918573  p :     2.538364
      px      :     0.789375
      py      :     0.830416
      dz2     :     0.005377  d :     0.048647
      dxz     :     0.007714
      dyz     :     0.007316
      dx2y2   :     0.014553
      dxy     :     0.013687
  7 H s       :     0.779023  s :     0.779023
  8 C s       :     2.957069  s :     2.957069
      pz      :     1.032401  p :     3.147182
      px      :     1.057857
      py      :     1.056924
      dz2     :     0.005897  d :     0.041170
      dxz     :     0.005418
      dyz     :     0.005726
      dx2y2   :     0.009890
      dxy     :     0.014239
  9 C s       :     3.332048  s :     3.332048
      pz      :     0.933375  p :     2.967729
      px      :     1.083916
      py      :     0.950437
      dz2     :     0.008197  d :     0.062040
      dxz     :     0.008082
      dyz     :     0.008851
      dx2y2   :     0.014215
      dxy     :     0.022695
 10 H s       :     0.785057  s :     0.785057
 11 C s       :     3.350410  s :     3.350410
      pz      :     0.927938  p :     2.968272
      px      :     0.964248
      py      :     1.076087
      dz2     :     0.006274  d :     0.062021
      dxz     :     0.011619
      dyz     :     0.008512
      dx2y2   :     0.016860
      dxy     :     0.018756
 12 C s       :     3.273319  s :     3.273319
      pz      :     1.142565  p :     2.962498
      px      :     0.906594
      py      :     0.913339
      dz2     :     0.010934  d :     0.056628
      dxz     :     0.007565
      dyz     :     0.009743
      dx2y2   :     0.013697
      dxy     :     0.014689
 13 C s       :     3.255159  s :     3.255159
      pz      :     1.048143  p :     3.038789
      px      :     0.942068
      py      :     1.048578
      dz2     :     0.014641  d :     0.056004
      dxz     :     0.010109
      dyz     :     0.007866
      dx2y2   :     0.014922
      dxy     :     0.008466
 14 N s       :     3.521299  s :     3.521299
      pz      :     1.155384  p :     4.059856
      px      :     1.791572
      py      :     1.112900
      dz2     :     0.007916  d :     0.037373
      dxz     :     0.007876
      dyz     :     0.007021
      dx2y2   :     0.004212
      dxy     :     0.010348
 15 N s       :     3.520370  s :     3.520370
      pz      :     1.055030  p :     3.520286
      px      :     1.062860
      py      :     1.402396
      dz2     :     0.010995  d :     0.044013
      dxz     :     0.007799
      dyz     :     0.012117
      dx2y2   :     0.005274
      dxy     :     0.007828
 16 H s       :     0.831478  s :     0.831478
 17 C s       :     3.238559  s :     3.238559
      pz      :     1.122643  p :     2.981059
      px      :     0.894624
      py      :     0.963791
      dz2     :     0.010165  d :     0.056848
      dxz     :     0.007208
      dyz     :     0.012467
      dx2y2   :     0.012244
      dxy     :     0.014764
 18 C s       :     3.192868  s :     3.192868
      pz      :     0.944022  p :     2.920182
      px      :     1.017969
      py      :     0.958191
      dz2     :     0.014874  d :     0.056159
      dxz     :     0.008323
      dyz     :     0.013239
      dx2y2   :     0.005664
      dxy     :     0.014059
 19 N s       :     3.493010  s :     3.493010
      pz      :     1.196853  p :     3.569900
      px      :     1.049493
      py      :     1.323553
      dz2     :     0.007411  d :     0.043914
      dxz     :     0.009842
      dyz     :     0.004153
      dx2y2   :     0.008000
      dxy     :     0.014508
 20 N s       :     3.562196  s :     3.562196
      pz      :     1.503249  p :     4.081730
      px      :     1.259246
      py      :     1.319235
      dz2     :     0.007587  d :     0.036940
      dxz     :     0.006016
      dyz     :     0.007540
      dx2y2   :     0.001087
      dxy     :     0.014710
 21 C s       :     3.251046  s :     3.251046
      pz      :     1.069679  p :     3.011531
      px      :     0.917653
      py      :     1.024199
      dz2     :     0.015242  d :     0.057115
      dxz     :     0.008033
      dyz     :     0.006093
      dx2y2   :     0.011048
      dxy     :     0.016699
 22 C s       :     3.214082  s :     3.214082
      pz      :     1.059570  p :     2.948254
      px      :     0.897480
      py      :     0.991204
      dz2     :     0.014740  d :     0.056061
      dxz     :     0.007106
      dyz     :     0.005966
      dx2y2   :     0.010784
      dxy     :     0.017465
 23 N s       :     3.482182  s :     3.482182
      pz      :     1.081285  p :     3.516891
      px      :     1.207107
      py      :     1.228500
      dz2     :     0.006874  d :     0.044270
      dxz     :     0.005521
      dyz     :     0.008921
      dx2y2   :     0.015053
      dxy     :     0.007900
 24 H s       :     0.863177  s :     0.863177
 25 N s       :     3.554449  s :     3.554449
      pz      :     1.168324  p :     4.064950
      px      :     1.373094
      py      :     1.523531
      dz2     :     0.008990  d :     0.037008
      dxz     :     0.005092
      dyz     :     0.008408
      dx2y2   :     0.009483
      dxy     :     0.005035
 26 H s       :     0.697550  s :     0.697550
 27 H s       :     0.689815  s :     0.689815
 28 H s       :     0.706054  s :     0.706054
 29 H s       :     0.689726  s :     0.689726
 30 H s       :     0.698623  s :     0.698623
 31 H s       :     0.684536  s :     0.684536
 32 H s       :     0.849782  s :     0.849782
 33 H s       :     0.882853  s :     0.882853
 34 H s       :     0.895154  s :     0.895154
 35 H s       :     0.819046  s :     0.819046
 36 H s       :     0.832636  s :     0.832636
 37 H s       :     0.870384  s :     0.870384
 38 H s       :     0.820200  s :     0.820200
 39 H s       :     0.869489  s :     0.869489
 40 H s       :     0.844314  s :     0.844314
 41 H s       :     0.821174  s :     0.821174
 42 H s       :     0.819737  s :     0.819737
 43 H s       :     0.850776  s :     0.850776
 44 H s       :     0.846565  s :     0.846565


                     *******************************
                     * LOEWDIN POPULATION ANALYSIS *
                     *******************************

----------------------
LOEWDIN ATOMIC CHARGES
----------------------
   0 C :   -0.086748
   1 C :   -0.054703
   2 C :   -0.111149
   3 C :   -0.078596
   4 H :    0.184365
   5 C :   -0.109759
   6 C :   -0.079580
   7 H :    0.184944
   8 C :   -0.122079
   9 C :   -0.039932
  10 H :    0.174597
  11 C :   -0.037667
  12 C :   -0.219467
  13 C :   -0.237939
  14 N :   -0.537900
  15 N :   -0.196284
  16 H :    0.150575
  17 C :   -0.215028
  18 C :   -0.211103
  19 N :   -0.196093
  20 N :   -0.559187
  21 C :   -0.213704
  22 C :   -0.214508
  23 N :   -0.189892
  24 H :    0.139944
  25 N :   -0.553950
  26 H :    0.255134
  27 H :    0.257669
  28 H :    0.253927
  29 H :    0.258800
  30 H :    0.255421
  31 H :    0.260154
  32 H :    0.155663
  33 H :    0.140678
  34 H :    0.138540
  35 H :    0.148040
  36 H :    0.152981
  37 H :    0.136016
  38 H :    0.165935
  39 H :    0.127540
  40 H :    0.146403
  41 H :    0.145592
  42 H :    0.153446
  43 H :    0.130349
  44 H :    0.148556

-------------------------------
LOEWDIN REDUCED ORBITAL CHARGES
-------------------------------
  0 C s       :     2.855611  s :     2.855611
      pz      :     0.982854  p :     3.130559
      px      :     1.090568
      py      :     1.057138
      dz2     :     0.009659  d :     0.100577
      dxz     :     0.016749
      dyz     :     0.013589
      dx2y2   :     0.031779
      dxy     :     0.028801
  1 C s       :     2.891996  s :     2.891996
      pz      :     1.031529  p :     3.033572
      px      :     0.949342
      py      :     1.052700
      dz2     :     0.026006  d :     0.129134
      dxz     :     0.019548
      dyz     :     0.049716
      dx2y2   :     0.015386
      dxy     :     0.018479
  2 C s       :     2.895675  s :     2.895675
      pz      :     0.982485  p :     3.134914
      px      :     1.097882
      py      :     1.054548
      dz2     :     0.007343  d :     0.080560
      dxz     :     0.009697
      dyz     :     0.012782
      dx2y2   :     0.026793
      dxy     :     0.023945
  3 C s       :     2.851670  s :     2.851670
      pz      :     0.991747  p :     3.125905
      px      :     1.066265
      py      :     1.067892
      dz2     :     0.010653  d :     0.101021
      dxz     :     0.015273
      dyz     :     0.014102
      dx2y2   :     0.028470
      dxy     :     0.032522
  4 H s       :     0.815635  s :     0.815635
  5 C s       :     2.894182  s :     2.894182
      pz      :     0.983328  p :     3.135929
      px      :     1.067620
      py      :     1.084981
      dz2     :     0.006485  d :     0.079648
      dxz     :     0.014080
      dyz     :     0.009143
      dx2y2   :     0.025911
      dxy     :     0.024029
  6 C s       :     2.851679  s :     2.851679
      pz      :     0.987503  p :     3.127210
      px      :     1.066067
      py      :     1.073641
      dz2     :     0.010175  d :     0.100691
      dxz     :     0.015075
      dyz     :     0.014697
      dx2y2   :     0.031586
      dxy     :     0.029158
  7 H s       :     0.815056  s :     0.815056
  8 C s       :     2.894370  s :     2.894370
      pz      :     0.995468  p :     3.147151
      px      :     1.081069
      py      :     1.070614
      dz2     :     0.009882  d :     0.080558
      dxz     :     0.010845
      dyz     :     0.011459
      dx2y2   :     0.021202
      dxy     :     0.027170
  9 C s       :     2.897115  s :     2.897115
      pz      :     0.933489  p :     3.015369
      px      :     1.052656
      py      :     1.029224
      dz2     :     0.014252  d :     0.127448
      dxz     :     0.016592
      dyz     :     0.019267
      dx2y2   :     0.032716
      dxy     :     0.044622
 10 H s       :     0.825403  s :     0.825403
 11 C s       :     2.897100  s :     2.897100
      pz      :     0.950773  p :     3.013329
      px      :     1.022912
      py      :     1.039643
      dz2     :     0.011486  d :     0.127238
      dxz     :     0.025191
      dyz     :     0.015590
      dx2y2   :     0.033716
      dxy     :     0.041254
 12 C s       :     2.933946  s :     2.933946
      pz      :     1.123025  p :     3.178864
      px      :     1.050834
      py      :     1.005006
      dz2     :     0.020056  d :     0.106656
      dxz     :     0.012306
      dyz     :     0.017476
      dx2y2   :     0.028482
      dxy     :     0.028336
 13 C s       :     2.941364  s :     2.941364
      pz      :     1.062378  p :     3.191970
      px      :     1.061581
      py      :     1.068010
      dz2     :     0.026092  d :     0.104606
      dxz     :     0.017853
      dyz     :     0.015528
      dx2y2   :     0.029096
      dxy     :     0.016037
 14 N s       :     3.280803  s :     3.280803
      pz      :     1.232357  p :     4.197525
      px      :     1.743587
      py      :     1.221580
      dz2     :     0.013153  d :     0.059572
      dxz     :     0.009343
      dyz     :     0.013992
      dx2y2   :     0.008216
      dxy     :     0.014867
 15 N s       :     3.232661  s :     3.232661
      pz      :     1.215410  p :     3.879425
      px      :     1.125448
      py      :     1.538567
      dz2     :     0.021510  d :     0.084199
      dxz     :     0.017374
      dyz     :     0.023570
      dx2y2   :     0.009023
      dxy     :     0.012721
 16 H s       :     0.849425  s :     0.849425
 17 C s       :     2.934550  s :     2.934550
      pz      :     1.127277  p :     3.174558
      px      :     1.002081
      py      :     1.045199
      dz2     :     0.017668  d :     0.105920
      dxz     :     0.012953
      dyz     :     0.021500
      dx2y2   :     0.022752
      dxy     :     0.031047
 18 C s       :     2.937851  s :     2.937851
      pz      :     1.041602  p :     3.168082
      px      :     1.073724
      py      :     1.052756
      dz2     :     0.027563  d :     0.105170
      dxz     :     0.016144
      dyz     :     0.025868
      dx2y2   :     0.010092
      dxy     :     0.025502
 19 N s       :     3.222209  s :     3.222209
      pz      :     1.245916  p :     3.890689
      px      :     1.194617
      py      :     1.450156
      dz2     :     0.011687  d :     0.083195
      dxz     :     0.019705
      dyz     :     0.007004
      dx2y2   :     0.017440
      dxy     :     0.027359
 20 N s       :     3.283655  s :     3.283655
      pz      :     1.558325  p :     4.216868
      px      :     1.293338
      py      :     1.365205
      dz2     :     0.011122  d :     0.058663
      dxz     :     0.009324
      dyz     :     0.012815
      dx2y2   :     0.003090
      dxy     :     0.022312
 21 C s       :     2.934777  s :     2.934777
      pz      :     1.092024  p :     3.172876
      px      :     0.990735
      py      :     1.090118
      dz2     :     0.026393  d :     0.106050
      dxz     :     0.015496
      dyz     :     0.011255
      dx2y2   :     0.023086
      dxy     :     0.029821
 22 C s       :     2.938096  s :     2.938096
      pz      :     1.099216  p :     3.171213
[...]
 34 H s       :     0.894019  s :     0.894019
 35 H s       :     0.812442  s :     0.812442
 36 H s       :     0.835790  s :     0.835790
 37 H s       :     0.868524  s :     0.868524
 38 H s       :     0.824490  s :     0.824490
 39 H s       :     0.866932  s :     0.866932
 40 H s       :     0.843611  s :     0.843611
 41 H s       :     0.823341  s :     0.823341
 42 H s       :     0.818033  s :     0.818033
 43 H s       :     0.845742  s :     0.845742
 44 H s       :     0.844255  s :     0.844255


                     *******************************
                     * LOEWDIN POPULATION ANALYSIS *
                     *******************************

----------------------
LOEWDIN ATOMIC CHARGES
----------------------
   0 C :   -0.086971
   1 C :   -0.052263
   2 C :   -0.109869
   3 C :   -0.078250
   4 H :    0.184587
   5 C :   -0.108292
   6 C :   -0.079525
   7 H :    0.184580
   8 C :   -0.121213
   9 C :   -0.040685
  10 H :    0.174435
  11 C :   -0.038233
  12 C :   -0.222480
  13 C :   -0.239227
  14 N :   -0.538001
  15 N :   -0.197583
  16 H :    0.150796
  17 C :   -0.215993
  18 C :   -0.214362
  19 N :   -0.196984
  20 N :   -0.555743
  21 C :   -0.215687
  22 C :   -0.218801
  23 N :   -0.190575
  24 H :    0.140588
  25 N :   -0.550972
  26 H :    0.254971
  27 H :    0.257460
  28 H :    0.253472
  29 H :    0.258292
  30 H :    0.254808
  31 H :    0.259951
  32 H :    0.156760
  33 H :    0.141282
  34 H :    0.139410
  35 H :    0.150531
  36 H :    0.153029
  37 H :    0.137262
  38 H :    0.164935
  39 H :    0.126848
  40 H :    0.147527
  41 H :    0.144059
  42 H :    0.155147
  43 H :    0.132204
  44 H :    0.148777

-------------------------------
LOEWDIN REDUCED ORBITAL CHARGES
-------------------------------
  0 C s       :     2.856804  s :     2.856804
      pz      :     0.984957  p :     3.130102
      px      :     1.089563
      py      :     1.055581
      dz2     :     0.009752  d :     0.100066
      dxz     :     0.016928
      dyz     :     0.013386
      dx2y2   :     0.031476
      dxy     :     0.028523
  1 C s       :     2.897581  s :     2.897581
      pz      :     1.024613  p :     3.029547
      px      :     0.954561
      py      :     1.050374
      dz2     :     0.024162  d :     0.125135
      dxz     :     0.019394
      dyz     :     0.046576
      dx2y2   :     0.016197
      dxy     :     0.018805
  2 C s       :     2.895727  s :     2.895727
      pz      :     0.983134  p :     3.133583
      px      :     1.096602
      py      :     1.053847
      dz2     :     0.007388  d :     0.080560
      dxz     :     0.010146
      dyz     :     0.012782
      dx2y2   :     0.026309
      dxy     :     0.023934
  3 C s       :     2.852746  s :     2.852746
      pz      :     0.993850  p :     3.125035
      px      :     1.064826
      py      :     1.066359
      dz2     :     0.010824  d :     0.100470
      dxz     :     0.015392
      dyz     :     0.014206
      dx2y2   :     0.028068
      dxy     :     0.031979
  4 H s       :     0.815413  s :     0.815413
  5 C s       :     2.894601  s :     2.894601
      pz      :     0.984176  p :     3.134037
      px      :     1.067296
      py      :     1.082566
      dz2     :     0.006600  d :     0.079654
      dxz     :     0.014277
      dyz     :     0.009305
      dx2y2   :     0.025818
      dxy     :     0.023653
  6 C s       :     2.853052  s :     2.853052
      pz      :     0.988009  p :     3.126420
      px      :     1.065450
      py      :     1.072962
      dz2     :     0.010137  d :     0.100053
      dxz     :     0.014999
      dyz     :     0.014612
      dx2y2   :     0.031355
      dxy     :     0.028950
  7 H s       :     0.815420  s :     0.815420
  8 C s       :     2.895780  s :     2.895780
      pz      :     0.995667  p :     3.145280
      px      :     1.079248
      py      :     1.070366
      dz2     :     0.010110  d :     0.080153
      dxz     :     0.010749
      dyz     :     0.011762
      dx2y2   :     0.020855
      dxy     :     0.026677
  9 C s       :     2.901445  s :     2.901445
      pz      :     0.932956  p :     3.014615
      px      :     1.052615
      py      :     1.029043
      dz2     :     0.013766  d :     0.124625
      dxz     :     0.016191
      dyz     :     0.018885
      dx2y2   :     0.032014
      dxy     :     0.043770
 10 H s       :     0.825565  s :     0.825565
 11 C s       :     2.901138  s :     2.901138
      pz      :     0.955673  p :     3.012481
      px      :     1.021792
      py      :     1.035017
      dz2     :     0.011671  d :     0.124614
      dxz     :     0.025223
      dyz     :     0.015749
      dx2y2   :     0.032618
      dxy     :     0.039353
 12 C s       :     2.930550  s :     2.930550
      pz      :     1.125983  p :     3.185450
      px      :     1.054784
      py      :     1.004683
      dz2     :     0.019981  d :     0.106481
      dxz     :     0.012405
      dyz     :     0.017669
      dx2y2   :     0.028216
      dxy     :     0.028209
 13 C s       :     2.941013  s :     2.941013
      pz      :     1.065013  p :     3.195146
      px      :     1.062573
      py      :     1.067560
      dz2     :     0.025794  d :     0.103068
      dxz     :     0.017885
      dyz     :     0.014288
      dx2y2   :     0.028913
      dxy     :     0.016188
 14 N s       :     3.289371  s :     3.289371
      pz      :     1.240646  p :     4.189021
      px      :     1.727584
      py      :     1.220791
      dz2     :     0.015035  d :     0.059609
      dxz     :     0.008224
      dyz     :     0.012206
      dx2y2   :     0.007671
      dxy     :     0.016473
 15 N s       :     3.249356  s :     3.249356
      pz      :     1.207047  p :     3.867108
      px      :     1.127083
      py      :     1.532977
      dz2     :     0.020068  d :     0.081119
      dxz     :     0.016598
      dyz     :     0.022536
      dx2y2   :     0.008797
      dxy     :     0.013120
 16 H s       :     0.849204  s :     0.849204
 17 C s       :     2.935395  s :     2.935395
      pz      :     1.128340  p :     3.176203
      px      :     1.005550
      py      :     1.042314
      dz2     :     0.016019  d :     0.104396
      dxz     :     0.012535
      dyz     :     0.023919
      dx2y2   :     0.021506
      dxy     :     0.030417
 18 C s       :     2.934133  s :     2.934133
      pz      :     1.045362  p :     3.174477
      px      :     1.078098
      py      :     1.051016
      dz2     :     0.030533  d :     0.105752
      dxz     :     0.013631
      dyz     :     0.024875
      dx2y2   :     0.010573
      dxy     :     0.026141
 19 N s       :     3.237518  s :     3.237518
      pz      :     1.258214  p :     3.878735
      px      :     1.192093
      py      :     1.428427
      dz2     :     0.011359  d :     0.080731
      dxz     :     0.019696
      dyz     :     0.007025
      dx2y2   :     0.016655
      dxy     :     0.025996
 20 N s       :     3.287820  s :     3.287820
      pz      :     1.598659  p :     4.209266
      px      :     1.266942
      py      :     1.343664
      dz2     :     0.011647  d :     0.058657
      dxz     :     0.008129
      dyz     :     0.012390
      dx2y2   :     0.003183
      dxy     :     0.023307
 21 C s       :     2.936652  s :     2.936652
      pz      :     1.098581  p :     3.174740
      px      :     0.981333
      py      :     1.094826
      dz2     :     0.027201  d :     0.104295
      dxz     :     0.014387
      dyz     :     0.009803
      dx2y2   :     0.023468
      dxy     :     0.029436
 22 C s       :     2.935771  s :     2.935771
      pz      :     1.099946  p :     3.177964
      px      :     0.994361
      py      :     1.083657
      dz2     :     0.025385  d :     0.105067
      dxz     :     0.014672
      dyz     :     0.010513
      dx2y2   :     0.022021
      dxy     :     0.032475
 23 N s       :     3.239504  s :     3.239504
      pz      :     1.134652  p :     3.870003
      px      :     1.356160
      py      :     1.379191
      dz2     :     0.011841  d :     0.081067
      dxz     :     0.010531
      dyz     :     0.015819
      dx2y2   :     0.027812
      dxy     :     0.015064
 24 H s       :     0.859412  s :     0.859412
 25 N s       :     3.289794  s :     3.289794
      pz      :     1.229920  p :     4.202378
      px      :     1.414153
      py      :     1.558305
      dz2     :     0.011769  d :     0.058800
      dxz     :     0.010635
      dyz     :     0.014806
      dx2y2   :     0.012581
      dxy     :     0.009009
 26 H s       :     0.745029  s :     0.745029
 27 H s       :     0.742540  s :     0.742540
 28 H s       :     0.746528  s :     0.746528
 29 H s       :     0.741708  s :     0.741708
 30 H s       :     0.745192  s :     0.745192
 31 H s       :     0.740049  s :     0.740049
 32 H s       :     0.843240  s :     0.843240
 33 H s       :     0.858718  s :     0.858718
 34 H s       :     0.860590  s :     0.860590
 35 H s       :     0.849469  s :     0.849469
 36 H s       :     0.846971  s :     0.846971
 37 H s       :     0.862738  s :     0.862738
 38 H s       :     0.835065  s :     0.835065
 39 H s       :     0.873152  s :     0.873152
 40 H s       :     0.852473  s :     0.852473
 41 H s       :     0.855941  s :     0.855941
 42 H s       :     0.844853  s :     0.844853
 43 H s       :     0.867796  s :     0.867796
 44 H s       :     0.851223  s :     0.851223


                      *****************************
                      * MAYER POPULATION ANALYSIS *
                      *****************************

  NA   - Mulliken gross atomic population
  ZA   - Total nuclear charge
  QA   - Mulliken gross atomic charge
  VA   - Mayer's total valence
  BVA  - Mayer's bonded valence
  FA   - Mayer's free valence

  ATOM       NA         ZA         QA         VA         BVA        FA
  0 C      5.9072     6.0000     0.0928     3.4965     3.4965     0.0000
  1 C      6.3190     6.0000    -0.3190     4.0358     4.0358     0.0000
  2 C      6.0396     6.0000    -0.0396     3.4770     3.4770     0.0000
  3 C      5.7508     6.0000     0.2492     3.3770     3.3770     0.0000
  4 H      0.7869     1.0000     0.2131     0.9058     0.9058     0.0000
  5 C      6.2054     6.0000    -0.2054     3.4987     3.4987    -0.0000
  6 C      5.8076     6.0000     0.1924     3.6441     3.6441     0.0000
  7 H      0.7797     1.0000     0.2203     0.9352     0.9352    -0.0000
  8 C      6.1589     6.0000    -0.1589     3.6477     3.6477    -0.0000
  9 C      6.3723     6.0000    -0.3723     4.0985     4.0985    -0.0000
 10 H      0.7865     1.0000     0.2135     0.8988     0.8988    -0.0000
 11 C      6.3949     6.0000    -0.3949     4.1292     4.1292    -0.0000
 12 C      6.2867     6.0000    -0.2867     3.7647     3.7647    -0.0000
 13 C      6.3602     6.0000    -0.3602     3.6765     3.6765    -0.0000
 14 N      7.6240     7.0000    -0.6240     2.7703     2.7703     0.0000
 15 N      7.0866     7.0000    -0.0866     2.9259     2.9259     0.0000
 16 H      0.8330     1.0000     0.1670     0.9464     0.9464    -0.0000
 17 C      6.2513     6.0000    -0.2513     3.7410     3.7410    -0.0000
 18 C      6.1908     6.0000    -0.1908     3.7642     3.7642    -0.0000
 19 N      7.1096     7.0000    -0.1096     2.9810     2.9810    -0.0000
 20 N      7.6774     7.0000    -0.6774     2.7346     2.7346    -0.0000
 21 C      6.2862     6.0000    -0.2862     3.7323     3.7323    -0.0000
 22 C      6.2481     6.0000    -0.2481     3.7766     3.7766    -0.0000
 23 N      7.0465     7.0000    -0.0465     2.9610     2.9610    -0.0000
 24 H      0.8632     1.0000     0.1368     0.9697     0.9697     0.0000
 25 N      7.6591     7.0000    -0.6591     2.7482     2.7482     0.0000
 26 H      0.6962     1.0000     0.3038     0.8769     0.8769    -0.0000
 27 H      0.6870     1.0000     0.3130     0.8721     0.8721    -0.0000
 28 H      0.7051     1.0000     0.2949     0.8814     0.8814    -0.0000
 29 H      0.6895     1.0000     0.3105     0.8873     0.8873    -0.0000
 30 H      0.6970     1.0000     0.3030     0.8761     0.8761    -0.0000
 31 H      0.6834     1.0000     0.3166     0.8879     0.8879    -0.0000
 32 H      0.8501     1.0000     0.1499     0.9442     0.9442     0.0000
 33 H      0.8832     1.0000     0.1168     0.9526     0.9526     0.0000
 34 H      0.8940     1.0000     0.1060     0.9565     0.9565     0.0000
 35 H      0.8124     1.0000     0.1876     0.9333     0.9333     0.0000
 36 H      0.8358     1.0000     0.1642     0.9414     0.9414    -0.0000
 37 H      0.8685     1.0000     0.1315     0.9543     0.9543    -0.0000
 38 H      0.8245     1.0000     0.1755     0.9489     0.9489    -0.0000
 39 H      0.8669     1.0000     0.1331     0.9346     0.9346    -0.0000
 40 H      0.8436     1.0000     0.1564     0.9406     0.9406     0.0000
 41 H      0.8233     1.0000     0.1767     0.9264     0.9264    -0.0000
 42 H      0.8180     1.0000     0.1820     0.9343     0.9343    -0.0000
 43 H      0.8457     1.0000     0.1543     0.9413     0.9413    -0.0000
 44 H      0.8443     1.0000     0.1557     0.9444     0.9444     0.0000

  Mayer bond orders larger than 0.100000
B(  0-C ,  1-C ) :   0.9076 B(  0-C ,  2-C ) :   1.2285 B(  0-C ,  3-C ) :   0.1482 
B(  0-C ,  6-C ) :   0.1185 B(  0-C ,  8-C ) :   1.2941 B(  1-C , 15-N ) :   2.0397 
B(  1-C , 32-H ) :   0.9582 B(  2-C ,  3-C ) :   1.3442 B(  2-C ,  4-H ) :   0.8958 
B(  2-C , 19-N ) :   0.1049 B(  3-C ,  5-C ) :   1.1251 B(  3-C ,  6-C ) :   0.1317 
B(  3-C , 11-C ) :   0.9665 B(  3-C , 19-N ) :  -0.2569 B(  5-C ,  6-C ) :   1.3875 
B(  5-C ,  7-H ) :   0.8862 B(  6-C ,  8-C ) :   1.2921 B(  6-C ,  9-C ) :   0.9690 
B(  6-C , 23-N ) :  -0.2706 B(  8-C , 10-H ) :   0.8824 B(  9-C , 23-N ) :   2.0635 
B(  9-C , 34-H ) :   0.9024 B( 11-C , 19-N ) :   2.0962 B( 11-C , 33-H ) :   0.9155 
B( 12-C , 13-C ) :   0.8838 B( 12-C , 14-N ) :   1.0468 B( 12-C , 41-H ) :   0.9369 
B( 12-C , 42-H ) :   0.9509 B( 13-C , 15-N ) :   0.8720 B( 13-C , 16-H ) :   0.9415 
B( 13-C , 35-H ) :   0.9273 B( 14-N , 28-H ) :   0.8791 B( 14-N , 29-H ) :   0.8696 
B( 17-C , 18-C ) :   0.9318 B( 17-C , 19-N ) :   0.9208 B( 17-C , 37-H ) :   0.9314 
B( 17-C , 38-H ) :   0.9304 B( 18-C , 20-N ) :   1.0054 B( 18-C , 39-H ) :   0.9372 
B( 18-C , 40-H ) :   0.9473 B( 20-N , 30-H ) :   0.8740 B( 20-N , 31-H ) :   0.8669 
B( 21-C , 22-C ) :   0.9154 B( 21-C , 23-N ) :   0.9693 B( 21-C , 24-H ) :   0.9271 
B( 21-C , 36-H ) :   0.9435 B( 22-C , 25-N ) :   1.0701 B( 22-C , 43-H ) :   0.9594 
B( 22-C , 44-H ) :   0.9440 B( 25-N , 26-H ) :   0.8726 B( 25-N , 27-H ) :   0.8749 


-------
TIMINGS
-------

Total SCF time: 0 days 0 hours 0 min 12 sec 

Total time                  ....      12.605 sec
Sum of individual times     ....      11.888 sec  ( 94.3%)

Fock matrix formation       ....       4.390 sec  ( 34.8%)
  Split-RI-J                ....       1.226 sec  ( 27.9% of F)
  XC integration            ....       2.676 sec  ( 61.0% of F)
    Basis function eval.    ....       0.472 sec  ( 17.6% of XC)
    Density eval.           ....       0.735 sec  ( 27.5% of XC)
    XC-Functional eval.     ....       0.286 sec  ( 10.7% of XC)
    XC-Potential eval.      ....       0.235 sec  (  8.8% of XC)
Diagonalization             ....       0.138 sec  (  1.1%)
Density matrix formation    ....       0.059 sec  (  0.5%)
Population analysis         ....       0.130 sec  (  1.0%)
Initial guess               ....       0.119 sec  (  0.9%)
Orbital Transformation      ....       0.000 sec  (  0.0%)
Orbital Orthonormalization  ....       0.098 sec  (  0.8%)
DIIS solution               ....       0.048 sec  (  0.4%)
SOSCF solution              ....       0.817 sec  (  6.5%)
Grid generation             ....       6.187 sec  ( 49.1%)


-------------------------------------------------------------------------------
                          DFT DISPERSION CORRECTION                            
                                                                               
                              DFTD3 V3.1  Rev 1                                
                          USING Becke-Johnson damping                          
-------------------------------------------------------------------------------
The B97-3c composite method is recognized
Using three-body term ABC
Active option DFTDOPT                   ...         4   

molecular C6(AA) [au] = 18976.059467 


            DFT-D V3
 parameters
 s6 scaling factor         :     1.0000 
 a1 scaling factor         :     0.3700 
 s8 scaling factor         :     1.5000 
 a2 scaling factor         :     4.1000 
 Damping factor alpha9(ATM):    16.0000 
 ad hoc parameters k1-k3   :    16.0000     1.3333    -4.0000 

 Edisp/kcal,au: -67.246402984003  -0.107163953040 
 E6   /kcal   : -34.861404381 
 E8   /kcal   : -32.382173595 
 E6(ABC)      :  -0.002825008 
 % E8         :  48.154506647 
 % E6(ABC)    :   0.004200980 

-------------------------   ----------------
Dispersion correction           -0.107163953
-------------------------   ----------------

------------------   -----------------
SRB correction            -0.132581860
------------------   -----------------

-------------------------   --------------------
FINAL SINGLE POINT ENERGY      -914.057795174691
-------------------------   --------------------

                                *** OPTIMIZATION RUN DONE ***

                            ***************************************
                            *     ORCA property calculations      *
                            ***************************************

                                    ---------------------
                                    Active property flags
                                    ---------------------
   (+) Dipole Moment


------------------------------------------------------------------------------
                       ORCA ELECTRIC PROPERTIES CALCULATION
------------------------------------------------------------------------------

Dipole Moment Calculation                       ... on
Quadrupole Moment Calculation                   ... off
Polarizability Calculation                      ... off
GBWName                                         ... _o_1_alde1_3_ami4_2_opt_B97-3c.gbw
Electron density file                           ... _o_1_alde1_3_ami4_2_opt_B97-3c.scfp
The origin for moment calculation is the CENTER OF MASS  = (-2.423435,  2.349154 -2.639599)

-------------
DIPOLE MOMENT
-------------
                                X             Y             Z
Electronic contribution:      4.90998      -4.83606      -1.88645
Nuclear contribution   :     -4.05467       5.79737       1.13758
                        -----------------------------------------
Total Dipole Moment    :      0.85532       0.96131      -0.74888
                        -----------------------------------------
Magnitude (a.u.)       :      1.48879
Magnitude (Debye)      :      3.78421



--------------------
Rotational spectrum 
--------------------
 
Rotational constants in cm-1:     0.012058     0.004169     0.003207 
Rotational constants in MHz :   361.478216   124.995012    96.138265 

 Dipole components along the rotational axes: 
x,y,z [a.u.] :     1.370693    -0.581101    -0.004845 
x,y,z [Debye]:     3.484025    -1.477042    -0.012315 

 

Timings for individual modules:

Sum of individual times         ...     1196.287 sec (=  19.938 min)
GTO integral calculation        ...       61.635 sec (=   1.027 min)   5.2 %
SCF iterations                  ...      896.769 sec (=  14.946 min)  75.0 %
SCF Gradient evaluation         ...      205.309 sec (=   3.422 min)  17.2 %
Geometry relaxation             ...       32.573 sec (=   0.543 min)   2.7 %
                             ****ORCA TERMINATED NORMALLY****
TOTAL RUN TIME: 0 days 0 hours 20 minutes 41 seconds 543 msec
