Job execution start: Thu Mar 10 19:38:08 GMT 2022
Shared library path: /work/e05/e05/atarzia/orca_4_2_1_linux_x86-64_openmpi314:/work/e05/e05/atarzia/openmpi-3.1.4/lib:/opt/cray/pe/papi/6.0.0.6/lib64:/opt/cray/libfabric/1.11.0.4.71/lib64
Slurm Job ID is: 1234902
Slurm Job name is: o_1_alde1_2_ami4_2_opt_MP2
nid002143

                                 *****************
                                 * O   R   C   A *
                                 *****************

           --- An Ab Initio, DFT and Semiempirical electronic structure package ---

                  #######################################################
                  #                        -***-                        #
                  #          Department of theory and spectroscopy      #
                  #               Directorship: Frank Neese             #
                  #        Max Planck Institute fuer Kohlenforschung    #
                  #                Kaiser Wilhelm Platz 1               #
                  #                 D-45470 Muelheim/Ruhr               #
                  #                      Germany                        #
                  #                                                     #
                  #                  All rights reserved                #
                  #                        -***-                        #
                  #######################################################


                         Program Version 4.2.1 -  RELEASE  -


 With contributions from (in alphabetic order):
   Daniel Aravena         : Magnetic Suceptibility
   Michael Atanasov       : Ab Initio Ligand Field Theory (pilot matlab implementation)
   Alexander A. Auer      : GIAO ZORA, VPT2
   Ute Becker             : Parallelization
   Giovanni Bistoni       : ED, misc. LED, open-shell LED, HFLD
   Martin Brehm           : Molecular dynamics
   Dmytro Bykov           : SCF Hessian
   Vijay G. Chilkuri      : MRCI spin determinant printing, contributions to CSF-ICE
   Dipayan Datta          : RHF DLPNO-CCSD density
   Achintya Kumar Dutta   : EOM-CC, STEOM-CC
   Dmitry Ganyushin       : Spin-Orbit,Spin-Spin,Magnetic field MRCI
   Miquel Garcia          : C-PCM Hessian, Gaussian charge scheme
   Yang Guo               : DLPNO-NEVPT2, CIM, IAO-localization
   Andreas Hansen         : Spin unrestricted coupled pair/coupled cluster methods
   Benjamin Helmich-Paris : CASSCF linear response (MC-RPA)
   Lee Huntington         : MR-EOM, pCC
   Robert Izsak           : Overlap fitted RIJCOSX, COSX-SCS-MP3, EOM
   Christian Kollmar      : KDIIS, OOCD, Brueckner-CCSD(T), CCSD density
   Simone Kossmann        : Meta GGA functionals, TD-DFT gradient, OOMP2, MP2 Hessian
   Martin Krupicka        : AUTO-CI
   Lucas Lang             : DCDCAS
   Dagmar Lenk            : GEPOL surface, SMD
   Dimitrios Liakos       : Extrapolation schemes; Compound Job, initial MDCI parallelization
   Dimitrios Manganas     : Further ROCIS development; embedding schemes
   Dimitrios Pantazis     : SARC Basis sets
   Taras Petrenko         : DFT Hessian,TD-DFT gradient, ASA, ECA, R-Raman, ABS, FL, XAS/XES, NRVS
   Peter Pinski           : DLPNO-MP2, DLPNO-MP2 Gradient
   Christoph Reimann      : Effective Core Potentials
   Marius Retegan         : Local ZFS, SOC
   Christoph Riplinger    : Optimizer, TS searches, QM/MM, DLPNO-CCSD(T), (RO)-DLPNO pert. Triples
   Tobias Risthaus        : Range-separated hybrids, TD-DFT gradient, RPA, STAB
   Michael Roemelt        : Original ROCIS implementation
   Masaaki Saitow         : Open-shell DLPNO-CCSD energy and density
   Barbara Sandhoefer     : DKH picture change effects
   Avijit Sen             : IP-ROCIS
   Kantharuban Sivalingam : CASSCF convergence, NEVPT2, FIC-MRCI
   Bernardo de Souza      : ESD, SOC TD-DFT
   Georgi Stoychev        : AutoAux, RI-MP2 NMR
   Willem Van den Heuvel  : Paramagnetic NMR
   Boris Wezisla          : Elementary symmetry handling
   Frank Wennmohs         : Technical directorship


 We gratefully acknowledge several colleagues who have allowed us to
 interface, adapt or use parts of their codes:
   Stefan Grimme, W. Hujo, H. Kruse,             : VdW corrections, initial TS optimization,
                  C. Bannwarth                     DFT functionals, gCP, sTDA/sTD-DF
   Ed Valeev, F. Pavosevic, A. Kumar             : LibInt (2-el integral package), F12 methods
   Garnet Chan, S. Sharma, J. Yang, R. Olivares  : DMRG
   Ulf Ekstrom                                   : XCFun DFT Library
   Mihaly Kallay                                 : mrcc  (arbitrary order and MRCC methods)
   Andreas Klamt, Michael Diedenhofen            : otool_cosmo (COSMO solvation model)
   Jiri Pittner, Ondrej Demel                    : Mk-CCSD
   Frank Weinhold                                : gennbo (NPA and NBO analysis)
   Christopher J. Cramer and Donald G. Truhlar   : smd solvation model
   Lars Goerigk                                  : TD-DFT with DH, B97 family of functionals
   V. Asgeirsson, H. Jonsson                     : NEB implementation
   FAccTs GmbH                                   : IRC, NEB, NEB-TS, Multilevel, MM, QM/MM, CI optimization
   S Lehtola, MJT Oliveira, MAL Marques          : LibXC Library


 Your calculation uses the libint2 library for the computation of 2-el integrals
 For citations please refer to: http://libint.valeyev.net

 Your ORCA version has been built with support for libXC version: 4.2.3
 For citations please refer to: https://tddft.org/programs/libxc/

 This ORCA versions uses:
   CBLAS   interface :  Fast vector & matrix operations
   LAPACKE interface :  Fast linear algebra routines
   SCALAPACK package :  Parallel linear algebra routines




***************************************
The coordinates will be read from file: _o_1_alde1_2_ami4_2_opt_B97-3c.xyz
***************************************


----- Orbital basis set information -----
Your calculation utilizes the basis: cc-pVTZ 
       H, B-Ne : Obtained from the ccRepo (grant-hill.group.shef.ac.uk/ccrepo) Feb. 2017
                 T. H. Dunning, Jr., J. Chem. Phys. 90, 1007 (1989)
            He : Obtained from the ccRepo (grant-hill.group.shef.ac.uk/ccrepo) Feb. 2017
                 D. E. Woon, T. H. Dunning, Jr., J. Chem. Phys. 100, 2975 (1994)
  Li-Be, Na-Mg : Obtained from the ccRepo (grant-hill.group.shef.ac.uk/ccrepo) Feb. 2017
                 B. P. Prascher, D. E. Woon, K. A. Peterson, T. H. Dunning, Jr., A. K. Wilson, Theor. Chem. Acc. 128, 69 (2011)
         Al-Ar : Obtained from the ccRepo (grant-hill.group.shef.ac.uk/ccrepo) Feb. 2017
                 D. E. Woon, T. H. Dunning, Jr., J. Chem. Phys. 98, 1358 (1993)
            Ca : Obtained from the Peterson Research Group Website (tyr0.chem.wsu.edu/~kipeters) Feb. 2017
                 J. Koput, K. A. Peterson, J. Phys. Chem. 106, 9595 (2002)
         Sc-Zn : Obtained from the ccRepo (grant-hill.group.shef.ac.uk/ccrepo) Feb. 2017
                 N. B. Balabanov, K. A. Peterson, J. Chem. Phys. 123, 064107 (2005)
                 N. B. Balabanov, K. A. Peterson, J. Chem. Phys. 125, 074110 (2006)
         Ga-Kr : Obtained from the ccRepo (grant-hill.group.shef.ac.uk/ccrepo) Feb. 2017
                 A. K. Wilson, D. E. Woon, K. A. Peterson, T. H. Dunning, Jr., J. Chem. Phys. 110, 7667 (1999)
             Y : Obtained from the ccRepo (grant-hill.group.shef.ac.uk/ccrepo) Feb. 2017
                 K. A. Peterson, D. Figgen, M. Dolg, H. Stoll, J. Chem. Phys. 126, 124101 (2007)
        Ag, Au : Obtained from the Peterson Research Group Website (tyr0.chem.wsu.edu/~kipeters) Feb. 2017
                 K. A. Peterson, C. Puzzarini, Theor. Chem. Acc. 114, 283 (2005)

----- AuxC basis set information -----
Your calculation utilizes the auxiliary basis: cc-pVTZ/C 
  Obtained from the EMSL Basis Set Exchange (bse.pnl.gov) Feb. 2017
  H-He, B-F, Al-Ar, Ga-Kr : F. Weigend, A. Kohn, C. Hattig, J. Chem. Phys. 116, 3175 (2002)
             Li-Be, Na-Mg : C. Haettig, Phys. Chem. Chem. Phys. 7, 59 (2005)
                       Ne : C. Haettig, Phys. Chem. Chem. Phys. 7, 59 (2005)
                            F. Weigend, A. Kohn, C. Hattig, J. Chem. Phys. 116, 3175 (2002)
                    Sc-Zn : J. G. Hill, J. A. Platts, J. Chem. Phys. 128, 044104 (2008)

================================================================================
                                        WARNINGS
                       Please study these warnings very carefully!
================================================================================


WARNING: No MP2 level density has been requested!
         To caclulate MP2 level properties use
         %mp2 Density relaxed end
         or
         %mp2 Density unrelaxed end

WARNING: Post HF methods need fully converged wavefunctions
  ===> : Setting SCFConvForced true
         You can overwrite this default with %scf ConvForced false 


INFO   : the flag for use of LIBINT has been found!

================================================================================
                                       INPUT FILE
================================================================================
NAME = o_1_alde1_2_ami4_2_opt_MP2.in
|  1> ! RI-MP2 cc-pVTZ cc-pVTZ/C TIGHTSCF printbasis Grid6 NOFINALGRID SlowConv
|  2> 
|  3> %base "_o_1_alde1_2_ami4_2_opt_MP2"
|  4> %maxcore 3000
|  5> %pal
|  6>    nprocs 32
|  7> end
|  8> 
|  9> * xyzfile 0 1 _o_1_alde1_2_ami4_2_opt_B97-3c.xyz
| 10> 
| 11>                          ****END OF INPUT****
================================================================================

                       ****************************
                       * Single Point Calculation *
                       ****************************

---------------------------------
CARTESIAN COORDINATES (ANGSTROEM)
---------------------------------
  C     -1.610580    0.796550   -1.160372
  C     -2.197405   -0.119275   -0.164749
  C     -2.444535    1.685866   -1.827531
  C     -1.923563    2.571413   -2.769401
  H     -3.507548    1.704717   -1.624458
  C     -0.554339    2.547633   -3.021026
  C      0.294563    1.652736   -2.366061
  H     -0.137280    3.236659   -3.747234
  C     -0.243686    0.775788   -1.430923
  C      1.724365    1.660517   -2.682166
  H      0.399666    0.078545   -0.913740
  C     -2.779666    3.510307   -3.492243
  O     -1.577051   -0.931223    0.488804
  C     -4.807638    4.476654   -4.128719
  C     -5.859027    3.740186   -4.968201
  N     -4.039970    3.540322   -3.348353
  N     -6.824541    2.942287   -4.234269
  C      4.770788    1.323215   -1.269626
  C      3.945683    0.983978   -2.502440
  N      4.385341    2.631254   -0.752576
  N      2.552535    0.862682   -2.146235
  H     -3.296175   -0.014171   -0.042714
  H      4.997594    2.898134    0.007341
  H      3.454015    2.569869   -0.359916
  H     -7.364694    3.538211   -3.618144
  H     -6.325787    2.297533   -3.633901
  H      2.043425    2.409233   -3.420334
  H      4.666257    0.504642   -0.546004
  H      5.819148    1.362923   -1.567875
  H      4.281518    0.018901   -2.888637
  H      4.117742    1.745584   -3.274154
  H     -2.259861    4.194739   -4.179406
  H     -5.340221    3.089219   -5.674470
  H     -6.395786    4.479276   -5.565434
  H     -5.326948    5.144338   -3.435032
  H     -4.178803    5.097883   -4.785006

----------------------------
CARTESIAN COORDINATES (A.U.)
----------------------------
  NO LB      ZA    FRAG     MASS         X           Y           Z
   0 C     6.0000    0    12.011   -3.043554    1.505261   -2.192786
   1 C     6.0000    0    12.011   -4.152493   -0.225397   -0.311330
   2 C     6.0000    0    12.011   -4.619501    3.185825   -3.453533
   3 C     6.0000    0    12.011   -3.635007    4.859267   -5.233410
   4 H     1.0000    0     1.008   -6.628305    3.221449   -3.069780
   5 C     6.0000    0    12.011   -1.047549    4.814328   -5.708912
   6 C     6.0000    0    12.011    0.556644    3.123219   -4.471207
   7 H     1.0000    0     1.008   -0.259422    6.116400   -7.081247
   8 C     6.0000    0    12.011   -0.460499    1.466028   -2.704053
   9 C     6.0000    0    12.011    3.258578    3.137922   -5.068559
  10 H     1.0000    0     1.008    0.755259    0.148428   -1.726719
  11 C     6.0000    0    12.011   -5.252808    6.633519   -6.599383
  12 O     8.0000    0    15.999   -2.980195   -1.759756    0.923706
  13 C     6.0000    0    12.011   -9.085119    8.459650   -7.802149
  14 C     6.0000    0    12.011  -11.071956    7.067927   -9.388539
  15 N     7.0000    0    14.007   -7.634436    6.690238   -6.327470
  16 N     7.0000    0    14.007  -12.896513    5.560117   -8.001610
  17 C     6.0000    0    12.011    9.015483    2.500513   -2.399246
  18 C     6.0000    0    12.011    7.456260    1.859448   -4.728926
  19 N     7.0000    0    14.007    8.287093    4.972349   -1.422163
  20 N     7.0000    0    14.007    4.823591    1.630232   -4.055797
  21 H     1.0000    0     1.008   -6.228867   -0.026780   -0.080719
  22 H     1.0000    0     1.008    9.444083    5.476679    0.013872
  23 H     1.0000    0     1.008    6.527143    4.856349   -0.680143
  24 H     1.0000    0     1.008  -13.917255    6.686250   -6.837302
  25 H     1.0000    0     1.008  -11.954005    4.341708   -6.867079
  26 H     1.0000    0     1.008    3.861514    4.552790   -6.463495
  27 H     1.0000    0     1.008    8.817948    0.953636   -1.031799
  28 H     1.0000    0     1.008   10.996596    2.575552   -2.962854
  29 H     1.0000    0     1.008    8.090897    0.035719   -5.458733
  30 H     1.0000    0     1.008    7.781405    3.298677   -6.187255
  31 H     1.0000    0     1.008   -4.270518    7.926908   -7.897932
  32 H     1.0000    0     1.008  -10.091556    5.837777  -10.723193
  33 H     1.0000    0     1.008  -12.086283    8.464605  -10.517146
  34 H     1.0000    0     1.008  -10.066472    9.721390   -6.491270
  35 H     1.0000    0     1.008   -7.896794    9.633603   -9.042351

--------------------------------
INTERNAL COORDINATES (ANGSTROEM)
--------------------------------
 C      0   0   0     0.000000000000     0.00000000     0.00000000
 C      1   0   0     1.474572576015     0.00000000     0.00000000
 C      1   2   0     1.389771832970   118.86523384     0.00000000
 C      3   1   2     1.393816873771   120.44152303   179.62695370
 H      3   1   2     1.082400919071   120.69038875   359.73910844
 C      4   3   1     1.392355564528   118.60920459   359.75859367
 C      6   4   3     1.396586545317   121.59650917     0.74455699
 H      6   4   3     1.084469489551   119.23221054   180.39108325
 C      7   6   4     1.390407241077   118.96371428   359.32856629
 C      7   6   4     1.464348562799   119.26566641   179.23963660
 H      9   7   6     1.080522338858   119.89512778   180.13297895
 C      4   3   1     1.461825609535   121.55450082   179.55344201
 O      2   1   3     1.212942294949   125.17117913   180.59311314
 C     12   4   3     2.334865739146   155.40597135   355.03635055
 C     14  12   4     1.533797041823   123.08295172   292.35702055
 N     12   4   3     1.268845677580   122.73914822   357.12947199
 N     15  14  12     1.451728194800   116.30196906    87.74955726
 C     10   7   6     3.374868270195   142.23241832   142.27035780
 C     18  10   7     1.521745748852    36.26993906   141.00802750
 N     18  10   7     1.458381640122    79.64024180   288.15013989
 N     10   7   6     1.268710748121   122.87693424   181.26335979
 H      2   1   3     1.110510728350   114.15278244     0.51106723
 H     20  18  10     1.011707673161   110.05693109   165.83927387
 H     20  18  10     1.012579445732   109.03829279    49.55631624
 H     17  15  14     1.013163780550   109.80012253    61.69836115
 H     17  15  14     1.012376032387   108.79553026   306.03458823
 H     10   7   6     1.098757185738   115.60577110     1.33917984
 H     18  10   7     1.097549878914   105.33842169    40.61145878
 H     18  10   7     1.090681664471   138.55236477   181.77768010
 H     19  18  10     1.092385386400   108.46123507   212.52284199
 H     19  18  10     1.097812713030   109.25980250    94.50418761
 H     12   4   3     1.100380711325   115.57130131   177.35609246
 H     15  14  12     1.091665322607   108.33975908   325.43907696
 H     15  14  12     1.091353050737   108.14848831   210.41545981
 H     14  12   4     1.093931671398   119.47691595    75.45947138
 H     14  12   4     1.100940990638    84.25701471   182.61637590

---------------------------
INTERNAL COORDINATES (A.U.)
---------------------------
 C      0   0   0     0.000000000000     0.00000000     0.00000000
 C      1   0   0     2.786538333259     0.00000000     0.00000000
 C      1   2   0     2.626288152950   118.86523384     0.00000000
 C      3   1   2     2.633932172265   120.44152303   179.62695370
 H      3   1   2     2.045441304149   120.69038875   359.73910844
 C      4   3   1     2.631170698000   118.60920459   359.75859367
 C      6   4   3     2.639166092968   121.59650917     0.74455699
 H      6   4   3     2.049350335844   119.23221054   180.39108325
 C      7   6   4     2.627488900256   118.96371428   359.32856629
 C      7   6   4     2.767217748291   119.26566641   179.23963660
 H      9   7   6     2.041891302025   119.89512778   180.13297895
 C      4   3   1     2.762450057574   121.55450082   179.55344201
 O      2   1   3     2.292128753703   125.17117913   180.59311314
 C     12   4   3     4.412256806461   155.40597135   355.03635055
 C     14  12   4     2.898456354063   123.08295172   292.35702055
 N     12   4   3     2.397770836835   122.73914822   357.12947199
 N     15  14  12     2.743368709063   116.30196906    87.74955726
 C     10   7   6     6.377576768728   142.23241832   142.27035780
 C     18  10   7     2.875682710790    36.26993906   141.00802750
 N     18  10   7     2.755941898570    79.64024180   288.15013989
 N     10   7   6     2.397515857112   122.87693424   181.26335979
 H      2   1   3     2.098561145363   114.15278244     0.51106723
 H     20  18  10     1.911850429860   110.05693109   165.83927387
 H     20  18  10     1.913497841271   109.03829279    49.55631624
 H     17  15  14     1.914602074047   109.80012253    61.69836115
 H     17  15  14     1.913113445757   108.79553026   306.03458823
 H     10   7   6     2.076350168722   115.60577110     1.33917984
 H     18  10   7     2.074068689466   105.33842169    40.61145878
 H     18  10   7     2.061089645140   138.55236477   181.77768010
 H     19  18  10     2.064309212994   108.46123507   212.52284199
 H     19  18  10     2.074565373964   109.25980250    94.50418761
 H     12   4   3     2.079418187454   115.57130131   177.35609246
 H     15  14  12     2.062948489626   108.33975908   325.43907696
 H     15  14  12     2.062358381313   108.14848831   210.41545981
 H     14  12   4     2.067231268165   119.47691595    75.45947138
 H     14  12   4     2.080476961913    84.25701471   182.61637590

---------------------
BASIS SET INFORMATION
---------------------
There are 4 groups of distinct atoms

 Group   1 Type C   : 18s5p2d1f contracted to 4s3p2d1f pattern {8811/311/11/1}
 Group   2 Type H   : 5s2p1d contracted to 3s2p1d pattern {311/11/1}
 Group   3 Type O   : 18s5p2d1f contracted to 4s3p2d1f pattern {8811/311/11/1}
 Group   4 Type N   : 18s5p2d1f contracted to 4s3p2d1f pattern {8811/311/11/1}

Atom   0C    basis set group =>   1
Atom   1C    basis set group =>   1
Atom   2C    basis set group =>   1
Atom   3C    basis set group =>   1
Atom   4H    basis set group =>   2
Atom   5C    basis set group =>   1
Atom   6C    basis set group =>   1
Atom   7H    basis set group =>   2
Atom   8C    basis set group =>   1
Atom   9C    basis set group =>   1
Atom  10H    basis set group =>   2
Atom  11C    basis set group =>   1
Atom  12O    basis set group =>   3
Atom  13C    basis set group =>   1
Atom  14C    basis set group =>   1
Atom  15N    basis set group =>   4
Atom  16N    basis set group =>   4
Atom  17C    basis set group =>   1
Atom  18C    basis set group =>   1
Atom  19N    basis set group =>   4
Atom  20N    basis set group =>   4
Atom  21H    basis set group =>   2
Atom  22H    basis set group =>   2
Atom  23H    basis set group =>   2
Atom  24H    basis set group =>   2
Atom  25H    basis set group =>   2
Atom  26H    basis set group =>   2
Atom  27H    basis set group =>   2
Atom  28H    basis set group =>   2
Atom  29H    basis set group =>   2
Atom  30H    basis set group =>   2
Atom  31H    basis set group =>   2
Atom  32H    basis set group =>   2
Atom  33H    basis set group =>   2
Atom  34H    basis set group =>   2
Atom  35H    basis set group =>   2

-------------------------
BASIS SET IN INPUT FORMAT
-------------------------

 # Basis set for element : H 
 NewGTO H 
 S 3 
   1      33.8700000000      0.0254948632
   2       5.0950000000      0.1903627659
   3       1.1590000000      0.8521620222
 S 1 
   1       0.3258000000      1.0000000000
 S 1 
   1       0.1027000000      1.0000000000
 P 1 
   1       1.4070000000      1.0000000000
 P 1 
   1       0.3880000000      1.0000000000
 D 1 
   1       1.0570000000      1.0000000000
  end;

 # Basis set for element : C 
 NewGTO C 
 S 8 
   1    8236.0000000000      0.0005424302
   2    1235.0000000000      0.0041964279
   3     280.8000000000      0.0215409141
   4      79.2700000000      0.0836149496
   5      25.5900000000      0.2398716189
   6       8.9970000000      0.4437518201
   7       3.3190000000      0.3535796965
   8       0.3643000000     -0.0091763661
 S 8 
   1    8236.0000000000     -0.0001963922
   2    1235.0000000000     -0.0015259503
   3     280.8000000000     -0.0078904490
   4      79.2700000000     -0.0315148705
   5      25.5900000000     -0.0969100083
   6       8.9970000000     -0.2205415263
   7       3.3190000000     -0.2960691129
   8       0.3643000000      1.0405034329
 S 1 
   1       0.9059000000      1.0000000000
 S 1 
   1       0.1285000000      1.0000000000
 P 3 
   1      18.7100000000      0.0394263872
   2       4.1330000000      0.2440889849
   3       1.2000000000      0.8154920089
 P 1 
   1       0.3827000000      1.0000000000
 P 1 
   1       0.1209000000      1.0000000000
 D 1 
   1       1.0970000000      1.0000000000
 D 1 
   1       0.3180000000      1.0000000000
 F 1 
   1       0.7610000000      1.0000000000
  end;

 # Basis set for element : N 
 NewGTO N 
 S 8 
   1   11420.0000000000      0.0005349809
   2    1712.0000000000      0.0041376631
   3     389.3000000000      0.0212509149
   4     110.0000000000      0.0825762988
   5      35.5700000000      0.2384132727
   6      12.5400000000      0.4434316661
   7       4.6440000000      0.3554319088
   8       0.5118000000     -0.0087029018
 S 8 
   1   11420.0000000000     -0.0001987770
   2    1712.0000000000     -0.0015470035
   3     389.3000000000     -0.0079925633
   4     110.0000000000     -0.0320255651
   5      35.5700000000     -0.0991102048
   6      12.5400000000     -0.2282927747
   7       4.6440000000     -0.2981827627
   8       0.5118000000      1.0370005182
 S 1 
   1       1.2930000000      1.0000000000
 S 1 
   1       0.1787000000      1.0000000000
 P 3 
   1      26.6300000000      0.0398072123
   2       5.9480000000      0.2490026605
   3       1.7420000000      0.8104797267
 P 1 
   1       0.5550000000      1.0000000000
 P 1 
   1       0.1725000000      1.0000000000
 D 1 
   1       1.6540000000      1.0000000000
 D 1 
   1       0.4690000000      1.0000000000
 F 1 
   1       1.0930000000      1.0000000000
  end;

 # Basis set for element : O 
 NewGTO O 
 S 8 
   1   15330.0000000000      0.0005201983
   2    2299.0000000000      0.0040233448
   3     522.4000000000      0.0207290833
   4     147.3000000000      0.0810823271
   5      47.5500000000      0.2362263521
   6      16.7600000000      0.4435182094
   7       6.2070000000      0.3586705887
   8       0.6882000000     -0.0083497972
 S 8 
   1   15330.0000000000     -0.0001972360
   2    2299.0000000000     -0.0015350107
   3     522.4000000000     -0.0079511839
   4     147.3000000000     -0.0321134529
   5      47.5500000000     -0.1002696430
   6      16.7600000000     -0.2340471118
   7       6.2070000000     -0.3014109278
   8       0.6882000000      1.0349196495
 S 1 
   1       1.7520000000      1.0000000000
 S 1 
   1       0.2384000000      1.0000000000
 P 3 
   1      34.4600000000      0.0411634896
   2       7.7490000000      0.2577628359
   3       2.2800000000      0.8024192744
 P 1 
   1       0.7156000000      1.0000000000
 P 1 
   1       0.2140000000      1.0000000000
 D 1 
   1       2.3140000000      1.0000000000
 D 1 
   1       0.6450000000      1.0000000000
 F 1 
   1       1.4280000000      1.0000000000
  end;

---------------------------------
AUXILIARY/C BASIS SET INFORMATION
---------------------------------
There are 4 groups of distinct atoms

 Group   1 Type C   : 8s6p5d3f1g contracted to 8s6p5d3f1g pattern {11111111/111111/11111/111/1}
 Group   2 Type H   : 4s3p2d1f contracted to 4s3p2d1f pattern {1111/111/11/1}
 Group   3 Type O   : 8s6p5d3f1g contracted to 8s6p5d3f1g pattern {11111111/111111/11111/111/1}
 Group   4 Type N   : 8s6p5d3f1g contracted to 8s6p5d3f1g pattern {11111111/111111/11111/111/1}

Atom   0C    basis set group =>   1
Atom   1C    basis set group =>   1
Atom   2C    basis set group =>   1
Atom   3C    basis set group =>   1
Atom   4H    basis set group =>   2
Atom   5C    basis set group =>   1
Atom   6C    basis set group =>   1
Atom   7H    basis set group =>   2
Atom   8C    basis set group =>   1
Atom   9C    basis set group =>   1
Atom  10H    basis set group =>   2
Atom  11C    basis set group =>   1
Atom  12O    basis set group =>   3
Atom  13C    basis set group =>   1
Atom  14C    basis set group =>   1
Atom  15N    basis set group =>   4
Atom  16N    basis set group =>   4
Atom  17C    basis set group =>   1
Atom  18C    basis set group =>   1
Atom  19N    basis set group =>   4
Atom  20N    basis set group =>   4
Atom  21H    basis set group =>   2
Atom  22H    basis set group =>   2
Atom  23H    basis set group =>   2
Atom  24H    basis set group =>   2
Atom  25H    basis set group =>   2
Atom  26H    basis set group =>   2
Atom  27H    basis set group =>   2
Atom  28H    basis set group =>   2
Atom  29H    basis set group =>   2
Atom  30H    basis set group =>   2
Atom  31H    basis set group =>   2
Atom  32H    basis set group =>   2
Atom  33H    basis set group =>   2
Atom  34H    basis set group =>   2
Atom  35H    basis set group =>   2

-------------------------------------
AUXILIARY/C BASIS SET IN INPUT FORMAT
-------------------------------------

 # Auxiliary/C basis set for element : H 
 NewAuxCGTO H 
 S 1 
   1       8.5128275910      1.0000000000
 S 1 
   1       1.8730891166      1.0000000000
 S 1 
   1       0.5261842694      1.0000000000
 S 1 
   1       0.2897398994      1.0000000000
 P 1 
   1       2.3725491635      1.0000000000
 P 1 
   1       1.1804084468      1.0000000000
 P 1 
   1       0.6038220424      1.0000000000
 D 1 
   1       1.8096373189      1.0000000000
 D 1 
   1       1.1439726055      1.0000000000
 F 1 
   1       1.8063060576      1.0000000000
  end;

 # Auxiliary/C basis set for element : C 
 NewAuxCGTO C 
 S 1 
   1     280.5566118800      1.0000000000
 S 1 
   1      60.2302471910      1.0000000000
 S 1 
   1      22.1166508240      1.0000000000
 S 1 
   1       6.8620932896      1.0000000000
 S 1 
   1       1.5622549539      1.0000000000
 S 1 
   1       0.9124504549      1.0000000000
 S 1 
   1       0.5027491704      1.0000000000
 S 1 
   1       0.2158234875      1.0000000000
 P 1 
   1      24.2318651760      1.0000000000
 P 1 
   1       6.4764514185      1.0000000000
 P 1 
   1       2.1290884677      1.0000000000
 P 1 
   1       1.0375639746      1.0000000000
 P 1 
   1       0.5494127505      1.0000000000
 P 1 
   1       0.2815265223      1.0000000000
 D 1 
   1       9.7189810815      1.0000000000
 D 1 
   1       3.0351475003      1.0000000000
 D 1 
   1       1.4677737562      1.0000000000
 D 1 
   1       0.5737082791      1.0000000000
 D 1 
   1       0.2905558967      1.0000000000
 F 1 
   1       2.2756201303      1.0000000000
 F 1 
   1       1.1968898852      1.0000000000
 F 1 
   1       0.5415748722      1.0000000000
 G 1 
   1       1.2166101638      1.0000000000
  end;

 # Auxiliary/C basis set for element : N 
 NewAuxCGTO N 
 S 1 
   1     287.5092694700      1.0000000000
 S 1 
   1      64.2760308980      1.0000000000
 S 1 
   1      21.6819240160      1.0000000000
 S 1 
   1       7.9068743193      1.0000000000
 S 1 
   1       2.4319673913      1.0000000000
 S 1 
   1       1.2226681474      1.0000000000
 S 1 
   1       0.7667482736      1.0000000000
 S 1 
   1       0.3115884699      1.0000000000
 P 1 
   1      34.9650273710      1.0000000000
 P 1 
   1      10.3238966480      1.0000000000
 P 1 
   1       2.8981582643      1.0000000000
 P 1 
   1       1.4077404555      1.0000000000
 P 1 
   1       0.8508338654      1.0000000000
 P 1 
   1       0.3735327414      1.0000000000
 D 1 
   1      13.9086370890      1.0000000000
 D 1 
   1       4.5847232531      1.0000000000
 D 1 
   1       2.2101848651      1.0000000000
 D 1 
   1       0.8376830121      1.0000000000
 D 1 
   1       0.4194837561      1.0000000000
 F 1 
   1       3.4730665788      1.0000000000
 F 1 
   1       1.5589463548      1.0000000000
 F 1 
   1       0.8467763824      1.0000000000
 G 1 
   1       1.7764066281      1.0000000000
  end;

 # Auxiliary/C basis set for element : O 
 NewAuxCGTO O 
 S 1 
   1     366.5453150300      1.0000000000
 S 1 
   1      76.6933148580      1.0000000000
 S 1 
   1      24.5738350910      1.0000000000
 S 1 
   1       8.4165585072      1.0000000000
 S 1 
   1       3.0202080356      1.0000000000
 S 1 
   1       1.3331563617      1.0000000000
 S 1 
   1       0.8125065873      1.0000000000
 S 1 
   1       0.3650525366      1.0000000000
 P 1 
   1      52.8543864230      1.0000000000
 P 1 
   1      15.0217958240      1.0000000000
 P 1 
   1       3.9137719482      1.0000000000
 P 1 
   1       2.1678840611      1.0000000000
 P 1 
   1       0.9741924398      1.0000000000
 P 1 
   1       0.5184561541      1.0000000000
 D 1 
   1      15.9077331320      1.0000000000
 D 1 
   1       5.3799329215      1.0000000000
 D 1 
   1       2.9552623921      1.0000000000
 D 1 
   1       1.1624458997      1.0000000000
 D 1 
   1       0.5035339942      1.0000000000
 F 1 
   1       4.6873846701      1.0000000000
 F 1 
   1       2.1512789489      1.0000000000
 F 1 
   1       1.0894068169      1.0000000000
 G 1 
   1       2.3270964878      1.0000000000
  end;



           ************************************************************
           *        Program running with 32 parallel MPI-processes    *
           *              working on a common directory               *
           ************************************************************
------------------------------------------------------------------------------
                           ORCA GTO INTEGRAL CALCULATION
------------------------------------------------------------------------------

                         BASIS SET STATISTICS AND STARTUP INFO

 # of primitive gaussian shells          ...  612
 # of primitive gaussian functions       ... 1188
 # of contracted shells                  ...  288
 # of contracted basis functions         ...  792
 Highest angular momentum                ...    3
 Maximum contraction depth               ...    8
 Integral package used                   ... LIBINT
 Integral threshhold            Thresh   ...  2.500e-11
 Primitive cut-off              TCut     ...  2.500e-12


------------------------------ INTEGRAL EVALUATION ----------------------------


 * One electron integrals 
 Pre-screening matrix                    ... done
 Shell pair data                         ... done (   0.009 sec)



           ************************************************************
           *        Program running with 32 parallel MPI-processes    *
           *              working on a common directory               *
           ************************************************************
-------------------------------------------------------------------------------
                                 ORCA SCF
-------------------------------------------------------------------------------

------------
SCF SETTINGS
------------
Hamiltonian:
 Ab initio Hamiltonian  Method          .... Hartree-Fock(GTOs)


General Settings:
 Integral files         IntName         .... _o_1_alde1_2_ami4_2_opt_MP2
 Hartree-Fock type      HFTyp           .... RHF
 Total Charge           Charge          ....    0
 Multiplicity           Mult            ....    1
 Number of Electrons    NEL             ....  132
 Basis Dimension        Dim             ....  792
 Nuclear Repulsion      ENuc            ....   1193.4105252437 Eh

Convergence Acceleration:
 DIIS                   CNVDIIS         .... on
   Start iteration      DIISMaxIt       ....     0
   Startup error        DIISStart       ....  0.200000
   # of expansion vecs  DIISMaxEq       ....     5
   Bias factor          DIISBfac        ....   1.050
   Max. coefficient     DIISMaxC        ....  10.000
 Newton-Raphson         CNVNR           .... off
 SOSCF                  CNVSOSCF        .... on
   Start iteration      SOSCFMaxIt      ....   150
   Startup grad/error   SOSCFStart      ....  0.001000
 Level Shifting         CNVShift        .... on
   Level shift para.    LevelShift      ....    0.2500
   Turn off err/grad.   ShiftErr        ....    0.0000
 Zerner damping         CNVZerner       .... off
 Static damping         CNVDamp         .... on
   Fraction old density DampFac         ....    0.8500
   Max. Damping (<1)    DampMax         ....    0.9800
   Min. Damping (>=0)   DampMin         ....    0.0000
   Turn off err/grad.   DampErr         ....    0.0300
 Fernandez-Rico         CNVRico         .... off

SCF Procedure:
 Maximum # iterations   MaxIter         ....   125
 SCF integral mode      SCFMode         .... Direct
   Integral package                     .... LIBINT
 Reset frequency        DirectResetFreq ....    20
 Integral Threshold     Thresh          ....  2.500e-11 Eh
 Primitive CutOff       TCut            ....  2.500e-12 Eh

Convergence Tolerance:
 Convergence Check Mode ConvCheckMode   .... Total+1el-Energy
 Convergence forced     ConvForced      .... 1
 Energy Change          TolE            ....  1.000e-08 Eh
 1-El. energy change                    ....  1.000e-05 Eh
 Orbital Gradient       TolG            ....  1.000e-05
 Orbital Rotation angle TolX            ....  1.000e-05
 DIIS Error             TolErr          ....  5.000e-07


Diagonalization of the overlap matrix:
Smallest eigenvalue                        ... 2.613e-05
Time for diagonalization                   ...    2.518 sec
Threshold for overlap eigenvalues          ... 1.000e-08
Number of eigenvalues below threshold      ... 0
Time for construction of square roots      ...    0.866 sec
Total time needed                          ...    3.385 sec

-------------------
DFT GRID GENERATION
-------------------

General Integration Accuracy     IntAcc      ...  5.340
Radial Grid Type                 RadialGrid  ... Gauss-Chebyshev
Angular Grid (max. acc.)         AngularGrid ... Lebedev-590
Angular grid pruning method      GridPruning ... 3 (G Style)
Weight generation scheme         WeightScheme... Becke
Basis function cutoff            BFCut       ...    1.0000e-11
Integration weight cutoff        WCut        ...    1.0000e-14
Grids for H and He will be reduced by one unit

# of grid points (after initial pruning)     ... 494808 (   0.0 sec)
# of grid points (after weights+screening)   ... 437341 (   0.2 sec)
nearest neighbour list constructed           ...    0.0 sec
Grid point re-assignment to atoms done       ...    0.1 sec
Grid point division into batches done        ...    4.6 sec
Reduced shell lists constructed in    4.9 sec

Total number of grid points                  ...   437341
Total number of batches                      ...     6851
Average number of points per batch           ...       63
Average number of grid points per atom       ...    12148
Average number of shells per batch           ...   128.59 (44.65%)
Average number of basis functions per batch  ...   323.61 (40.86%)
Average number of large shells per batch     ...    82.57 (64.21%)
Average number of large basis fcns per batch ...   220.99 (68.29%)
Maximum spatial batch extension              ...   7.65, 11.66, 11.87 au
Average spatial batch extension              ...   0.03,  0.04,  0.04 au

Time for grid setup =    5.249 sec

------------------------------
INITIAL GUESS: MODEL POTENTIAL
------------------------------
Loading Hartree-Fock densities                     ... done
Calculating cut-offs                               ... done
Setting up the integral package                    ... done
Initializing the effective Hamiltonian             ... done
Starting the Coulomb interaction                   ... done (   0.1 sec)
Reading the grid                                   ... done
Mapping shells                                     ... done
Starting the XC term evaluation                    ... done (   0.2 sec)
Transforming the Hamiltonian                       ... done (   0.2 sec)
Diagonalizing the Hamiltonian                      ... done (   0.2 sec)
Back transforming the eigenvectors                 ... done (   0.0 sec)
Now organizing SCF variables                       ... done
                      ------------------
                      INITIAL GUESS DONE (   6.1 sec)
                      ------------------
--------------
SCF ITERATIONS
--------------
ITER       Energy         Delta-E        Max-DP      RMS-DP      [F,P]     Damp
               ***  Starting incremental Fock matrix formation  ***
  0   -794.8315361403   0.000000000000 0.05227113  0.00031158  0.3230204 0.8500
  1   -794.9820559310  -0.150519790704 0.06182774  0.00034342  0.2603088 0.8500
                               ***Turning on DIIS***
  2   -795.1009393451  -0.118883414091 0.05039060  0.00028638  0.2030174 0.8500
  3   -797.6487065078  -2.547767162741 0.02918283  0.00019022  0.1576313 0.8500
  4   -798.6825941939  -1.033887686069 0.01564691  0.00013110  0.1276579 0.8500
  5   -798.6812255732   0.001368620671 0.00896480  0.00010135  0.1070117 0.8500
  6   -798.3962259674   0.284999605760 0.00598750  0.00008362  0.0910045 0.8500
  7   -797.9255626101   0.470663357335 0.00511333  0.00007139  0.0777355 0.8500
  8   -797.5288225432   0.396740066898 0.00435553  0.00006107  0.0660992 0.8500
  9   -797.2202398941   0.308582649156 0.00370574  0.00005205  0.0560044 0.8500
 10   -796.9744713160   0.245768578019 0.00315225  0.00004432  0.0474093 0.8500
 11   -796.7721926652   0.202278650858 0.00268183  0.00003780  0.0401500 0.8500
 12   -796.6017800468   0.170412618353 0.00228208  0.00003229  0.0340209 0.8500
 13   -796.4569703074   0.144809739459 0.01294667  0.00018413  0.0288322 0.0000
 14   -795.6578112824   0.799159024967 0.00355286  0.00001620  0.0012985 0.0000
                      *** Initiating the SOSCF procedure ***
                           *** Shutting down DIIS ***
                      *** Re-Reading the Fockian *** 
                      *** Removing any level shift *** 
ITER      Energy       Delta-E        Grad      Rot      Max-DP    RMS-DP
 15   -795.66525269  -0.0074414067  0.000361  0.000361  0.001962  0.000009
               *** Restarting incremental Fock matrix formation ***
 16   -795.65972599   0.0055266971  0.000145  0.000258  0.001690  0.000007
 17   -795.65972752  -0.0000015275  0.000079  0.000329  0.001588  0.000007
 18   -795.65972805  -0.0000005293  0.000042  0.000061  0.000060  0.000001
 19   -795.65972813  -0.0000000772  0.000013  0.000032  0.000087  0.000000
 20   -795.65972813  -0.0000000078  0.000008  0.000047  0.000017  0.000000
 21   -795.65972814  -0.0000000028  0.000003  0.000013  0.000020  0.000000
                  ***Gradient check signals convergence***
              ***Rediagonalizing the Fockian in SOSCF/NRSCF***

               *****************************************************
               *                     SUCCESS                       *
               *           SCF CONVERGED AFTER  22 CYCLES          *
               *****************************************************


----------------
TOTAL SCF ENERGY
----------------

Total Energy       :         -795.65972814 Eh          -21651.00192 eV

Components:
Nuclear Repulsion  :         1193.41052524 Eh           32474.35136 eV
Electronic Energy  :        -1989.07025338 Eh          -54125.35327 eV
One Electron Energy:        -3451.12380109 Eh          -93909.85291 eV
Two Electron Energy:         1462.05354771 Eh           39784.49964 eV

Virial components:
Potential Energy   :        -1590.39674397 Eh          -43276.89556 eV
Kinetic Energy     :          794.73701583 Eh           21625.89364 eV
Virial Ratio       :            2.00116103


---------------
SCF CONVERGENCE
---------------

  Last Energy change         ...    1.5552e-10  Tolerance :   1.0000e-08
  Last MAX-Density change    ...    3.0567e-06  Tolerance :   1.0000e-07
  Last RMS-Density change    ...    3.7356e-08  Tolerance :   5.0000e-09
  Last Orbital Gradient      ...    1.2107e-06  Tolerance :   1.0000e-05
  Last Orbital Rotation      ...    4.7022e-06  Tolerance :   1.0000e-05

             **** THE GBW FILE WAS UPDATED (_o_1_alde1_2_ami4_2_opt_MP2.gbw) ****
             **** DENSITY FILE WAS UPDATED (_o_1_alde1_2_ami4_2_opt_MP2.scfp) ****
             **** ENERGY FILE WAS UPDATED (_o_1_alde1_2_ami4_2_opt_MP2.en.tmp) ****
             **** THE GBW FILE WAS UPDATED (_o_1_alde1_2_ami4_2_opt_MP2.gbw) ****
             **** DENSITY FILE WAS UPDATED (_o_1_alde1_2_ami4_2_opt_MP2.scfp) ****
----------------
ORBITAL ENERGIES
----------------

  NO   OCC          E(Eh)            E(eV) 
   0   2.0000     -20.556027      -559.3579 
   1   2.0000     -15.569276      -423.6616 
   2   2.0000     -15.563009      -423.4910 
   3   2.0000     -15.536082      -422.7583 
   4   2.0000     -15.534179      -422.7065 
   5   2.0000     -11.335944      -308.4667 
   6   2.0000     -11.295447      -307.3647 
   7   2.0000     -11.288364      -307.1720 
   8   2.0000     -11.270128      -306.6758 
   9   2.0000     -11.265975      -306.5628 
  10   2.0000     -11.261334      -306.4365 
  11   2.0000     -11.260660      -306.4181 
  12   2.0000     -11.259220      -306.3790 
  13   2.0000     -11.257841      -306.3414 
  14   2.0000     -11.256339      -306.3006 
  15   2.0000     -11.250651      -306.1458 
  16   2.0000     -11.250377      -306.1383 
  17   2.0000     -11.247937      -306.0719 
  18   2.0000      -1.390759       -37.8445 
  19   2.0000      -1.254774       -34.1441 
  20   2.0000      -1.248645       -33.9774 
  21   2.0000      -1.189179       -32.3592 
  22   2.0000      -1.176930       -32.0259 
  23   2.0000      -1.171346       -31.8739 
  24   2.0000      -1.072892       -29.1949 
  25   2.0000      -1.069421       -29.1004 
  26   2.0000      -0.995412       -27.0865 
  27   2.0000      -0.984542       -26.7907 
  28   2.0000      -0.910130       -24.7659 
  29   2.0000      -0.899223       -24.4691 
  30   2.0000      -0.875593       -23.8261 
  31   2.0000      -0.830620       -22.6023 
  32   2.0000      -0.800521       -21.7833 
  33   2.0000      -0.784877       -21.3576 
  34   2.0000      -0.756196       -20.5771 
  35   2.0000      -0.716918       -19.5083 
  36   2.0000      -0.698164       -18.9980 
  37   2.0000      -0.680539       -18.5184 
  38   2.0000      -0.674672       -18.3588 
  39   2.0000      -0.667032       -18.1509 
  40   2.0000      -0.656653       -17.8684 
  41   2.0000      -0.653186       -17.7741 
  42   2.0000      -0.640291       -17.4232 
  43   2.0000      -0.630805       -17.1651 
  44   2.0000      -0.609828       -16.5943 
  45   2.0000      -0.605071       -16.4648 
  46   2.0000      -0.601318       -16.3627 
  47   2.0000      -0.572750       -15.5853 
  48   2.0000      -0.567051       -15.4302 
  49   2.0000      -0.550799       -14.9880 
  50   2.0000      -0.545874       -14.8540 
  51   2.0000      -0.544024       -14.8036 
  52   2.0000      -0.531776       -14.4704 
  53   2.0000      -0.530530       -14.4365 
  54   2.0000      -0.521404       -14.1881 
  55   2.0000      -0.503883       -13.7114 
  56   2.0000      -0.497648       -13.5417 
  57   2.0000      -0.466657       -12.6984 
  58   2.0000      -0.433097       -11.7852 
  59   2.0000      -0.430418       -11.7123 
  60   2.0000      -0.421096       -11.4586 
  61   2.0000      -0.415722       -11.3124 
  62   2.0000      -0.393888       -10.7182 
  63   2.0000      -0.390851       -10.6356 
  64   2.0000      -0.354125        -9.6362 
  65   2.0000      -0.332413        -9.0454 
  66   0.0000       0.054968         1.4957 
  67   0.0000       0.064174         1.7463 
  68   0.0000       0.121884         3.3166 
  69   0.0000       0.133247         3.6258 
  70   0.0000       0.143159         3.8956 
  71   0.0000       0.147293         4.0080 
  72   0.0000       0.149210         4.0602 
  73   0.0000       0.164697         4.4816 
  74   0.0000       0.171144         4.6571 
  75   0.0000       0.178719         4.8632 
  76   0.0000       0.185029         5.0349 
  77   0.0000       0.189586         5.1589 
  78   0.0000       0.199233         5.4214 
  79   0.0000       0.205057         5.5799 
  80   0.0000       0.212392         5.7795 
  81   0.0000       0.217694         5.9238 
  82   0.0000       0.221010         6.0140 
  83   0.0000       0.223849         6.0912 
  84   0.0000       0.233051         6.3416 
  85   0.0000       0.237894         6.4734 
  86   0.0000       0.245767         6.6877 
  87   0.0000       0.273808         7.4507 
  88   0.0000       0.275238         7.4896 
  89   0.0000       0.297697         8.1008 
  90   0.0000       0.303041         8.2462 
  91   0.0000       0.308603         8.3975 
  92   0.0000       0.324435         8.8283 
  93   0.0000       0.327938         8.9236 
  94   0.0000       0.338996         9.2245 
  95   0.0000       0.348301         9.4778 
  96   0.0000       0.352795         9.6000 
  97   0.0000       0.358411         9.7529 
  98   0.0000       0.373495        10.1633 
  99   0.0000       0.385276        10.4839 
 100   0.0000       0.387422        10.5423 
 101   0.0000       0.402360        10.9488 
 102   0.0000       0.415052        11.2941 
 103   0.0000       0.425313        11.5734 
 104   0.0000       0.428269        11.6538 
 105   0.0000       0.437456        11.9038 
 106   0.0000       0.438722        11.9382 
 107   0.0000       0.442817        12.0497 
 108   0.0000       0.447615        12.1802 
 109   0.0000       0.450819        12.2674 
 110   0.0000       0.461731        12.5643 
 111   0.0000       0.477553        12.9949 
 112   0.0000       0.480111        13.0645 
 113   0.0000       0.485702        13.2166 
 114   0.0000       0.490062        13.3353 
 115   0.0000       0.495299        13.4778 
 116   0.0000       0.498873        13.5750 
 117   0.0000       0.504302        13.7228 
 118   0.0000       0.508186        13.8284 
 119   0.0000       0.513440        13.9714 
 120   0.0000       0.519000        14.1227 
 121   0.0000       0.527817        14.3626 
 122   0.0000       0.533377        14.5139 
 123   0.0000       0.543841        14.7987 
 124   0.0000       0.547518        14.8987 
 125   0.0000       0.552700        15.0397 
 126   0.0000       0.559653        15.2289 
 127   0.0000       0.564746        15.3675 
 128   0.0000       0.567564        15.4442 
 129   0.0000       0.574392        15.6300 
 130   0.0000       0.579567        15.7708 
 131   0.0000       0.584405        15.9025 
 132   0.0000       0.585953        15.9446 
 133   0.0000       0.590365        16.0646 
 134   0.0000       0.597024        16.2458 
 135   0.0000       0.602461        16.3938 
 136   0.0000       0.605793        16.4845 
 137   0.0000       0.607630        16.5345 
 138   0.0000       0.613111        16.6836 
 139   0.0000       0.621595        16.9145 
 140   0.0000       0.626122        17.0377 
 141   0.0000       0.628788        17.1102 
 142   0.0000       0.633993        17.2518 
 143   0.0000       0.636530        17.3208 
 144   0.0000       0.646100        17.5813 
 145   0.0000       0.651338        17.7238 
 146   0.0000       0.653807        17.7910 
 147   0.0000       0.655726        17.8432 
 148   0.0000       0.662743        18.0342 
 149   0.0000       0.675269        18.3750 
 150   0.0000       0.678681        18.4679 
 151   0.0000       0.683442        18.5974 
 152   0.0000       0.685746        18.6601 
 153   0.0000       0.698979        19.0202 
 154   0.0000       0.713162        19.4061 
 155   0.0000       0.717159        19.5149 
 156   0.0000       0.724224        19.7071 
 157   0.0000       0.725174        19.7330 
 158   0.0000       0.729854        19.8603 
 159   0.0000       0.738745        20.1023 
 160   0.0000       0.741470        20.1764 
 161   0.0000       0.749427        20.3929 
 162   0.0000       0.754179        20.5222 
 163   0.0000       0.759616        20.6702 
 164   0.0000       0.771466        20.9926 
 165   0.0000       0.774580        21.0774 
 166   0.0000       0.777497        21.1568 
 167   0.0000       0.781935        21.2775 
 168   0.0000       0.794461        21.6184 
 169   0.0000       0.798726        21.7344 
 170   0.0000       0.805947        21.9309 
 171   0.0000       0.813669        22.1411 
 172   0.0000       0.816957        22.2305 
 173   0.0000       0.819305        22.2944 
 174   0.0000       0.836185        22.7538 
 175   0.0000       0.847034        23.0490 
 176   0.0000       0.849785        23.1238 
 177   0.0000       0.861247        23.4357 
 178   0.0000       0.874887        23.8069 
 179   0.0000       0.883123        24.0310 
 180   0.0000       0.888191        24.1689 
 181   0.0000       0.892827        24.2951 
 182   0.0000       0.896768        24.4023 
 183   0.0000       0.908908        24.7326 
 184   0.0000       0.909953        24.7611 
 185   0.0000       0.918846        25.0031 
 186   0.0000       0.924171        25.1480 
 187   0.0000       0.925294        25.1785 
 188   0.0000       0.944510        25.7014 
 189   0.0000       0.957803        26.0631 
 190   0.0000       0.958944        26.0942 
 191   0.0000       0.968441        26.3526 
 192   0.0000       0.976819        26.5806 
 193   0.0000       0.979900        26.6644 
 194   0.0000       0.991669        26.9847 
 195   0.0000       0.998172        27.1616 
 196   0.0000       1.008140        27.4329 
 197   0.0000       1.008664        27.4471 
 198   0.0000       1.016981        27.6734 
 199   0.0000       1.024087        27.8668 
 200   0.0000       1.032834        28.1049 
 201   0.0000       1.037616        28.2350 
 202   0.0000       1.041683        28.3456 
 203   0.0000       1.050659        28.5899 
 204   0.0000       1.061023        28.8719 
 205   0.0000       1.070627        29.1332 
 206   0.0000       1.079859        29.3845 
 207   0.0000       1.087430        29.5905 
 208   0.0000       1.089515        29.6472 
 209   0.0000       1.098175        29.8828 
 210   0.0000       1.104586        30.0573 
 211   0.0000       1.121269        30.5113 
 212   0.0000       1.123148        30.5624 
 213   0.0000       1.129918        30.7466 
 214   0.0000       1.133660        30.8484 
 215   0.0000       1.146835        31.2070 
 216   0.0000       1.149844        31.2888 
 217   0.0000       1.161349        31.6019 
 218   0.0000       1.163497        31.6604 
 219   0.0000       1.166814        31.7506 
 220   0.0000       1.175557        31.9885 
 221   0.0000       1.181514        32.1506 
 222   0.0000       1.193455        32.4756 
 223   0.0000       1.199354        32.6361 
 224   0.0000       1.202551        32.7231 
 225   0.0000       1.212268        32.9875 
 226   0.0000       1.219098        33.1733 
 227   0.0000       1.226043        33.3623 
 228   0.0000       1.240862        33.7656 
 229   0.0000       1.249131        33.9906 
 230   0.0000       1.256940        34.2031 
 231   0.0000       1.264581        34.4110 
 232   0.0000       1.265925        34.4476 
 233   0.0000       1.274914        34.6922 
 234   0.0000       1.286242        35.0004 
 235   0.0000       1.289086        35.0778 
 236   0.0000       1.292103        35.1599 
 237   0.0000       1.302390        35.4398 
 238   0.0000       1.309178        35.6245 
 239   0.0000       1.319765        35.9126 
 240   0.0000       1.323003        36.0007 
 241   0.0000       1.332363        36.2555 
 242   0.0000       1.333543        36.2875 
 243   0.0000       1.339163        36.4405 
 244   0.0000       1.358824        36.9755 
 245   0.0000       1.364571        37.1319 
 246   0.0000       1.377173        37.4748 
 247   0.0000       1.379730        37.5444 
 248   0.0000       1.385562        37.7031 
 249   0.0000       1.388388        37.7799 
 250   0.0000       1.398755        38.0620 
 251   0.0000       1.404120        38.2081 
 252   0.0000       1.413961        38.4758 
 253   0.0000       1.427252        38.8375 
 254   0.0000       1.428595        38.8740 
 255   0.0000       1.439407        39.1682 
 256   0.0000       1.443728        39.2858 
 257   0.0000       1.445347        39.3299 
 258   0.0000       1.450571        39.4720 
 259   0.0000       1.463095        39.8128 
 260   0.0000       1.465910        39.8894 
 261   0.0000       1.473590        40.0984 
 262   0.0000       1.485701        40.4280 
 263   0.0000       1.492981        40.6261 
 264   0.0000       1.500219        40.8230 
 265   0.0000       1.508709        41.0541 
 266   0.0000       1.514325        41.2069 
 267   0.0000       1.515837        41.2480 
 268   0.0000       1.526775        41.5457 
 269   0.0000       1.531162        41.6650 
 270   0.0000       1.538521        41.8653 
 271   0.0000       1.542360        41.9698 
 272   0.0000       1.552263        42.2392 
 273   0.0000       1.559053        42.4240 
 274   0.0000       1.569820        42.7170 
 275   0.0000       1.577133        42.9160 
 276   0.0000       1.583500        43.0892 
 277   0.0000       1.590903        43.2907 
 278   0.0000       1.593816        43.3700 
 279   0.0000       1.607905        43.7533 
 280   0.0000       1.614800        43.9409 
 281   0.0000       1.617684        44.0194 
 282   0.0000       1.622285        44.1446 
 283   0.0000       1.631956        44.4078 
 284   0.0000       1.639070        44.6014 
 285   0.0000       1.649741        44.8917 
 286   0.0000       1.654704        45.0268 
 287   0.0000       1.660189        45.1761 
 288   0.0000       1.675137        45.5828 
 289   0.0000       1.681396        45.7531 
 290   0.0000       1.692829        46.0642 
 291   0.0000       1.700639        46.2767 
 292   0.0000       1.722894        46.8823 
 293   0.0000       1.759326        47.8737 
 294   0.0000       1.760076        47.8941 
 295   0.0000       1.767757        48.1031 
 296   0.0000       1.773570        48.2613 
 297   0.0000       1.791042        48.7367 
 298   0.0000       1.799050        48.9546 
 299   0.0000       1.808867        49.2218 
 300   0.0000       1.823048        49.6077 
 301   0.0000       1.830685        49.8155 
 302   0.0000       1.838861        50.0380 
 303   0.0000       1.846621        50.2491 
 304   0.0000       1.862341        50.6769 
 305   0.0000       1.873544        50.9817 
 306   0.0000       1.879826        51.1527 
 307   0.0000       1.881777        51.2058 
 308   0.0000       1.906559        51.8801 
 309   0.0000       1.916110        52.1400 
 310   0.0000       1.921018        52.2736 
 311   0.0000       1.934922        52.6519 
 312   0.0000       1.944133        52.9025 
 313   0.0000       1.974351        53.7248 
 314   0.0000       1.975326        53.7513 
 315   0.0000       1.991211        54.1836 
 316   0.0000       1.994545        54.2743 
 317   0.0000       1.999596        54.4118 
 318   0.0000       2.003429        54.5161 
 319   0.0000       2.013933        54.8019 
 320   0.0000       2.026386        55.1408 
 321   0.0000       2.038362        55.4666 
 322   0.0000       2.052468        55.8505 
 323   0.0000       2.081677        56.6453 
 324   0.0000       2.093516        56.9675 
 325   0.0000       2.130172        57.9649 
 326   0.0000       2.137186        58.1558 
 327   0.0000       2.169418        59.0329 
 328   0.0000       2.174330        59.1665 
 329   0.0000       2.197690        59.8022 
 330   0.0000       2.222517        60.4778 
 331   0.0000       2.242473        61.0208 
 332   0.0000       2.247958        61.1701 
 333   0.0000       2.249845        61.2214 
 334   0.0000       2.278653        62.0053 
 335   0.0000       2.323543        63.2268 
 336   0.0000       2.337157        63.5973 
 337   0.0000       2.349373        63.9297 
 338   0.0000       2.355735        64.1028 
 339   0.0000       2.365537        64.3695 
 340   0.0000       2.386578        64.9421 
 341   0.0000       2.444350        66.5141 
 342   0.0000       2.465910        67.1008 
 343   0.0000       2.479726        67.4768 
 344   0.0000       2.482413        67.5499 
 345   0.0000       2.532421        68.9107 
 346   0.0000       2.542120        69.1746 
 347   0.0000       2.545209        69.2587 
 348   0.0000       2.584370        70.3243 
 349   0.0000       2.600871        70.7733 
 350   0.0000       2.607756        70.9606 
 351   0.0000       2.615471        71.1706 
 352   0.0000       2.635961        71.7281 
 353   0.0000       2.637258        71.7634 
 354   0.0000       2.648149        72.0598 
 355   0.0000       2.654571        72.2346 
 356   0.0000       2.667132        72.5763 
 357   0.0000       2.673864        72.7595 
 358   0.0000       2.682988        73.0078 
 359   0.0000       2.688512        73.1581 
 360   0.0000       2.716921        73.9312 
 361   0.0000       2.734074        74.3979 
 362   0.0000       2.736508        74.4642 
 363   0.0000       2.745964        74.7215 
 364   0.0000       2.758837        75.0718 
 365   0.0000       2.769037        75.3493 
 366   0.0000       2.778130        75.5968 
 367   0.0000       2.781331        75.6839 
 368   0.0000       2.792440        75.9862 
 369   0.0000       2.799222        76.1707 
 370   0.0000       2.807229        76.3886 
 371   0.0000       2.816818        76.6495 
 372   0.0000       2.826035        76.9003 
 373   0.0000       2.829501        76.9946 
 374   0.0000       2.844026        77.3899 
 375   0.0000       2.850291        77.5604 
 376   0.0000       2.860510        77.8384 
 377   0.0000       2.864628        77.9505 
 378   0.0000       2.873701        78.1974 
 379   0.0000       2.876484        78.2731 
 380   0.0000       2.883545        78.4653 
 381   0.0000       2.897756        78.8520 
 382   0.0000       2.909604        79.1744 
 383   0.0000       2.914353        79.3036 
 384   0.0000       2.933474        79.8239 
 385   0.0000       2.947054        80.1934 
 386   0.0000       2.952667        80.3462 
 387   0.0000       2.956948        80.4626 
 388   0.0000       2.961822        80.5953 
 389   0.0000       2.964665        80.6726 
 390   0.0000       2.978302        81.0437 
 391   0.0000       2.987272        81.2878 
 392   0.0000       2.992157        81.4207 
 393   0.0000       2.998220        81.5857 
 394   0.0000       3.013483        82.0010 
 395   0.0000       3.021163        82.2100 
 396   0.0000       3.033966        82.5584 
 397   0.0000       3.037625        82.6580 
 398   0.0000       3.058154        83.2166 
 399   0.0000       3.076899        83.7267 
 400   0.0000       3.091422        84.1219 
 401   0.0000       3.100993        84.3823 
 402   0.0000       3.104937        84.4896 
 403   0.0000       3.114945        84.7620 
 404   0.0000       3.121769        84.9476 
 405   0.0000       3.127912        85.1148 
 406   0.0000       3.145400        85.5907 
 407   0.0000       3.150277        85.7234 
 408   0.0000       3.158897        85.9580 
 409   0.0000       3.170245        86.2668 
 410   0.0000       3.173857        86.3650 
 411   0.0000       3.180851        86.5554 
 412   0.0000       3.190685        86.8230 
 413   0.0000       3.202008        87.1311 
 414   0.0000       3.213762        87.4509 
 415   0.0000       3.217058        87.5406 
 416   0.0000       3.228041        87.8395 
 417   0.0000       3.229318        87.8742 
 418   0.0000       3.233378        87.9847 
 419   0.0000       3.238327        88.1194 
 420   0.0000       3.247768        88.3763 
 421   0.0000       3.252184        88.4964 
 422   0.0000       3.256375        88.6105 
 423   0.0000       3.262540        88.7782 
 424   0.0000       3.265342        88.8545 
 425   0.0000       3.270182        88.9862 
 426   0.0000       3.279701        89.2452 
 427   0.0000       3.285820        89.4117 
 428   0.0000       3.291150        89.5568 
 429   0.0000       3.297085        89.7182 
 430   0.0000       3.298540        89.7578 
 431   0.0000       3.303660        89.8971 
 432   0.0000       3.312952        90.1500 
 433   0.0000       3.319279        90.3222 
 434   0.0000       3.322071        90.3981 
 435   0.0000       3.331142        90.6450 
 436   0.0000       3.333987        90.7224 
 437   0.0000       3.340394        90.8967 
 438   0.0000       3.348955        91.1297 
 439   0.0000       3.356056        91.3229 
 440   0.0000       3.360212        91.4360 
 441   0.0000       3.367668        91.6389 
 442   0.0000       3.376034        91.8665 
 443   0.0000       3.378744        91.9403 
 444   0.0000       3.380528        91.9888 
 445   0.0000       3.391158        92.2781 
 446   0.0000       3.393542        92.3430 
 447   0.0000       3.395974        92.4092 
 448   0.0000       3.403206        92.6059 
 449   0.0000       3.412828        92.8678 
 450   0.0000       3.418332        93.0175 
 451   0.0000       3.423452        93.1569 
 452   0.0000       3.432377        93.3997 
 453   0.0000       3.439014        93.5803 
 454   0.0000       3.448414        93.8361 
 455   0.0000       3.455112        94.0184 
 456   0.0000       3.460802        94.1732 
 457   0.0000       3.464126        94.2637 
 458   0.0000       3.471654        94.4685 
 459   0.0000       3.477541        94.6287 
 460   0.0000       3.486865        94.8824 
 461   0.0000       3.492949        95.0480 
 462   0.0000       3.499992        95.2396 
 463   0.0000       3.503738        95.3416 
 464   0.0000       3.515281        95.6557 
 465   0.0000       3.522698        95.8575 
 466   0.0000       3.526140        95.9512 
 467   0.0000       3.530826        96.0787 
 468   0.0000       3.540506        96.3421 
 469   0.0000       3.543301        96.4181 
 470   0.0000       3.547394        96.5295 
 471   0.0000       3.559547        96.8602 
 472   0.0000       3.562377        96.9372 
 473   0.0000       3.564248        96.9881 
 474   0.0000       3.567398        97.0738 
 475   0.0000       3.572595        97.2153 
 476   0.0000       3.585924        97.5780 
 477   0.0000       3.591798        97.7378 
 478   0.0000       3.604816        98.0920 
 479   0.0000       3.615790        98.3907 
 480   0.0000       3.621399        98.5433 
 481   0.0000       3.627259        98.7027 
 482   0.0000       3.632266        98.8390 
 483   0.0000       3.640902        99.0740 
 484   0.0000       3.645683        99.2041 
 485   0.0000       3.652024        99.3766 
 486   0.0000       3.663925        99.7005 
 487   0.0000       3.675383       100.0123 
 488   0.0000       3.677228       100.0625 
 489   0.0000       3.687121       100.3317 
 490   0.0000       3.693160       100.4960 
 491   0.0000       3.698799       100.6494 
 492   0.0000       3.699527       100.6693 
 493   0.0000       3.708460       100.9123 
 494   0.0000       3.709281       100.9347 
 495   0.0000       3.722929       101.3060 
 496   0.0000       3.729874       101.4950 
 497   0.0000       3.736979       101.6884 
 498   0.0000       3.745577       101.9223 
 499   0.0000       3.747743       101.9813 
 500   0.0000       3.754538       102.1662 
 501   0.0000       3.757732       102.2531 
 502   0.0000       3.766744       102.4983 
 503   0.0000       3.772308       102.6497 
 504   0.0000       3.779292       102.8398 
 505   0.0000       3.784427       102.9795 
 506   0.0000       3.787808       103.0715 
 507   0.0000       3.790418       103.1425 
 508   0.0000       3.800094       103.4058 
 509   0.0000       3.808891       103.6452 
 510   0.0000       3.815083       103.8137 
 511   0.0000       3.824239       104.0628 
 512   0.0000       3.833906       104.3259 
 513   0.0000       3.844066       104.6023 
 514   0.0000       3.844797       104.6222 
 515   0.0000       3.850033       104.7647 
 516   0.0000       3.860737       105.0560 
 517   0.0000       3.869688       105.2996 
 518   0.0000       3.881513       105.6213 
 519   0.0000       3.886082       105.7457 
 520   0.0000       3.891376       105.8897 
 521   0.0000       3.899759       106.1178 
 522   0.0000       3.908946       106.3678 
 523   0.0000       3.917620       106.6039 
 524   0.0000       3.936153       107.1082 
 525   0.0000       3.950079       107.4871 
 526   0.0000       3.954758       107.6144 
 527   0.0000       3.963053       107.8402 
 528   0.0000       3.976243       108.1991 
 529   0.0000       3.980675       108.3197 
 530   0.0000       3.988459       108.5315 
 531   0.0000       3.994217       108.6882 
 532   0.0000       4.003188       108.9323 
 533   0.0000       4.011798       109.1666 
 534   0.0000       4.017487       109.3214 
 535   0.0000       4.023590       109.4874 
 536   0.0000       4.033799       109.7652 
 537   0.0000       4.037963       109.8785 
 538   0.0000       4.044071       110.0448 
 539   0.0000       4.049522       110.1931 
 540   0.0000       4.060243       110.4848 
 541   0.0000       4.064454       110.5994 
 542   0.0000       4.077746       110.9611 
 543   0.0000       4.081378       111.0599 
 544   0.0000       4.101610       111.6105 
 545   0.0000       4.103667       111.6665 
 546   0.0000       4.108810       111.8064 
 547   0.0000       4.115342       111.9841 
 548   0.0000       4.119138       112.0874 
 549   0.0000       4.132716       112.4569 
 550   0.0000       4.136420       112.5577 
 551   0.0000       4.141035       112.6833 
 552   0.0000       4.148441       112.8848 
 553   0.0000       4.162643       113.2713 
 554   0.0000       4.173525       113.5674 
 555   0.0000       4.178232       113.6955 
 556   0.0000       4.183634       113.8425 
 557   0.0000       4.193214       114.1031 
 558   0.0000       4.196253       114.1858 
 559   0.0000       4.213320       114.6503 
 560   0.0000       4.219778       114.8260 
 561   0.0000       4.223267       114.9209 
 562   0.0000       4.230479       115.1172 
 563   0.0000       4.233702       115.2049 
 564   0.0000       4.239099       115.3517 
 565   0.0000       4.248301       115.6022 
 566   0.0000       4.250154       115.6526 
 567   0.0000       4.265224       116.0626 
 568   0.0000       4.271685       116.2385 
 569   0.0000       4.284173       116.5783 
 570   0.0000       4.287766       116.6761 
 571   0.0000       4.291374       116.7742 
 572   0.0000       4.296232       116.9064 
 573   0.0000       4.298700       116.9736 
 574   0.0000       4.304680       117.1363 
 575   0.0000       4.321545       117.5952 
 576   0.0000       4.329288       117.8059 
 577   0.0000       4.332610       117.8963 
 578   0.0000       4.339298       118.0783 
 579   0.0000       4.342068       118.1537 
 580   0.0000       4.356651       118.5505 
 581   0.0000       4.362358       118.7058 
 582   0.0000       4.366386       118.8154 
 583   0.0000       4.374023       119.0232 
 584   0.0000       4.377884       119.1283 
 585   0.0000       4.392400       119.5233 
 586   0.0000       4.400386       119.7406 
 587   0.0000       4.409194       119.9803 
 588   0.0000       4.411904       120.0540 
 589   0.0000       4.423413       120.3672 
 590   0.0000       4.427765       120.4856 
 591   0.0000       4.434601       120.6716 
 592   0.0000       4.451825       121.1403 
 593   0.0000       4.455946       121.2525 
 594   0.0000       4.467353       121.5629 
 595   0.0000       4.471406       121.6731 
 596   0.0000       4.477495       121.8388 
 597   0.0000       4.485962       122.0692 
 598   0.0000       4.493065       122.2625 
 599   0.0000       4.514484       122.8453 
 600   0.0000       4.526854       123.1820 
 601   0.0000       4.530021       123.2681 
 602   0.0000       4.533652       123.3669 
 603   0.0000       4.539364       123.5224 
 604   0.0000       4.552762       123.8870 
 605   0.0000       4.565944       124.2456 
 606   0.0000       4.567290       124.2823 
 607   0.0000       4.579038       124.6019 
 608   0.0000       4.582462       124.6951 
 609   0.0000       4.595778       125.0575 
 610   0.0000       4.608418       125.4014 
 611   0.0000       4.613978       125.5527 
 612   0.0000       4.627299       125.9152 
 613   0.0000       4.633000       126.0703 
 614   0.0000       4.639744       126.2539 
 615   0.0000       4.645065       126.3987 
 616   0.0000       4.649067       126.5076 
 617   0.0000       4.657801       126.7452 
 618   0.0000       4.660555       126.8202 
 619   0.0000       4.666320       126.9770 
 620   0.0000       4.676786       127.2618 
 621   0.0000       4.690618       127.6382 
 622   0.0000       4.693824       127.7254 
 623   0.0000       4.708137       128.1149 
 624   0.0000       4.710583       128.1815 
 625   0.0000       4.716245       128.3355 
 626   0.0000       4.729945       128.7084 
 627   0.0000       4.744261       129.0979 
 628   0.0000       4.759588       129.5150 
 629   0.0000       4.767807       129.7386 
 630   0.0000       4.770884       129.8224 
 631   0.0000       4.776196       129.9669 
 632   0.0000       4.787622       130.2778 
 633   0.0000       4.796110       130.5088 
 634   0.0000       4.814400       131.0065 
 635   0.0000       4.822936       131.2388 
 636   0.0000       4.835198       131.5724 
 637   0.0000       4.854416       132.0954 
 638   0.0000       4.859020       132.2207 
 639   0.0000       4.865595       132.3996 
 640   0.0000       4.888224       133.0153 
 641   0.0000       4.904916       133.4696 
 642   0.0000       4.907429       133.5379 
 643   0.0000       4.920902       133.9046 
 644   0.0000       4.933097       134.2364 
 645   0.0000       4.953437       134.7899 
 646   0.0000       4.970530       135.2550 
 647   0.0000       4.984519       135.6357 
 648   0.0000       4.991628       135.8291 
 649   0.0000       5.023964       136.7090 
 650   0.0000       5.030418       136.8846 
 651   0.0000       5.038162       137.0953 
 652   0.0000       5.072426       138.0277 
 653   0.0000       5.088327       138.4604 
 654   0.0000       5.098066       138.7254 
 655   0.0000       5.115541       139.2010 
 656   0.0000       5.126533       139.5001 
 657   0.0000       5.145624       140.0195 
 658   0.0000       5.170985       140.7097 
 659   0.0000       5.180999       140.9822 
 660   0.0000       5.207317       141.6983 
 661   0.0000       5.214336       141.8893 
 662   0.0000       5.216448       141.9468 
 663   0.0000       5.218341       141.9983 
 664   0.0000       5.226768       142.2276 
 665   0.0000       5.237958       142.5321 
 666   0.0000       5.240674       142.6060 
 667   0.0000       5.243515       142.6833 
 668   0.0000       5.252003       142.9143 
 669   0.0000       5.259469       143.1174 
 670   0.0000       5.270888       143.4281 
 671   0.0000       5.285959       143.8382 
 672   0.0000       5.303794       144.3236 
 673   0.0000       5.310813       144.5146 
 674   0.0000       5.321954       144.8177 
 675   0.0000       5.335714       145.1922 
 676   0.0000       5.352377       145.6456 
 677   0.0000       5.362173       145.9122 
 678   0.0000       5.365346       145.9985 
 679   0.0000       5.378656       146.3607 
 680   0.0000       5.394063       146.7799 
 681   0.0000       5.402400       147.0068 
 682   0.0000       5.413614       147.3119 
 683   0.0000       5.433405       147.8505 
 684   0.0000       5.435738       147.9139 
 685   0.0000       5.441275       148.0646 
 686   0.0000       5.459875       148.5707 
 687   0.0000       5.465881       148.7342 
 688   0.0000       5.470399       148.8571 
 689   0.0000       5.479643       149.1087 
 690   0.0000       5.493539       149.4868 
 691   0.0000       5.503953       149.7702 
 692   0.0000       5.512764       150.0099 
 693   0.0000       5.527354       150.4069 
 694   0.0000       5.543197       150.8381 
 695   0.0000       5.563978       151.4035 
 696   0.0000       5.565743       151.4516 
 697   0.0000       5.595234       152.2541 
 698   0.0000       5.601297       152.4190 
 699   0.0000       5.608739       152.6215 
 700   0.0000       5.621910       152.9800 
 701   0.0000       5.649416       153.7284 
 702   0.0000       5.660153       154.0206 
 703   0.0000       5.669555       154.2764 
 704   0.0000       5.677395       154.4898 
 705   0.0000       5.683696       154.6612 
 706   0.0000       5.719501       155.6355 
 707   0.0000       5.730475       155.9341 
 708   0.0000       5.736336       156.0936 
 709   0.0000       5.757989       156.6828 
 710   0.0000       5.765926       156.8988 
 711   0.0000       5.775482       157.1589 
 712   0.0000       5.796381       157.7275 
 713   0.0000       5.816652       158.2792 
 714   0.0000       5.823896       158.4763 
 715   0.0000       5.827167       158.5653 
 716   0.0000       5.839284       158.8950 
 717   0.0000       5.843281       159.0038 
 718   0.0000       5.873367       159.8224 
 719   0.0000       5.876585       159.9100 
 720   0.0000       5.887477       160.2064 
 721   0.0000       5.895797       160.4328 
 722   0.0000       5.911554       160.8616 
 723   0.0000       5.921387       161.1291 
 724   0.0000       5.949289       161.8884 
 725   0.0000       5.958007       162.1256 
 726   0.0000       5.978777       162.6908 
 727   0.0000       6.000384       163.2787 
 728   0.0000       6.006259       163.4386 
 729   0.0000       6.051080       164.6583 
 730   0.0000       6.066093       165.0668 
 731   0.0000       6.098273       165.9425 
 732   0.0000       6.109912       166.2592 
 733   0.0000       6.112484       166.3291 
 734   0.0000       6.124759       166.6632 
 735   0.0000       6.159692       167.6137 
 736   0.0000       6.209230       168.9617 
 737   0.0000       6.219289       169.2355 
 738   0.0000       6.225797       169.4125 
 739   0.0000       6.246465       169.9750 
 740   0.0000       6.260521       170.3574 
 741   0.0000       6.269534       170.6027 
 742   0.0000       6.298352       171.3869 
 743   0.0000       6.311340       171.7403 
 744   0.0000       6.320666       171.9941 
 745   0.0000       6.333584       172.3456 
 746   0.0000       6.336629       172.4284 
 747   0.0000       6.347852       172.7338 
 748   0.0000       6.356607       172.9721 
 749   0.0000       6.413057       174.5081 
 750   0.0000       6.441903       175.2931 
 751   0.0000       6.446457       175.4170 
 752   0.0000       6.460596       175.8017 
 753   0.0000       6.522366       177.4826 
 754   0.0000       6.527260       177.6158 
 755   0.0000       6.574249       178.8944 
 756   0.0000       6.578718       179.0160 
 757   0.0000       6.613791       179.9704 
 758   0.0000       6.618804       180.1068 
 759   0.0000       6.651167       180.9875 
 760   0.0000       6.660361       181.2376 
 761   0.0000       6.678889       181.7418 
 762   0.0000       6.729292       183.1133 
 763   0.0000       6.789648       184.7557 
 764   0.0000       6.877758       187.1533 
 765   0.0000       6.884907       187.3478 
 766   0.0000       6.990804       190.2294 
 767   0.0000       7.177766       195.3169 
 768   0.0000       7.328559       199.4202 
 769   0.0000       7.332416       199.5252 
 770   0.0000       7.350337       200.0128 
 771   0.0000       7.487605       203.7481 
 772   0.0000       7.567611       205.9252 
 773   0.0000       7.623875       207.4562 
 774   0.0000       9.351994       254.4807 
 775   0.0000      11.599676       315.6432 
 776   0.0000      11.627619       316.4036 
 777   0.0000      11.958156       325.3980 
 778   0.0000      12.771158       347.5209 
 779   0.0000      12.817831       348.7909 
 780   0.0000      12.940046       352.1165 
 781   0.0000      13.039411       354.8204 
 782   0.0000      13.351557       363.3143 
 783   0.0000      13.545669       368.5964 
 784   0.0000      13.838808       376.5731 
 785   0.0000      13.923789       378.8856 
 786   0.0000      14.162495       385.3811 
 787   0.0000      14.530020       395.3819 
 788   0.0000      14.877160       404.8281 
 789   0.0000      15.002392       408.2358 
 790   0.0000      15.028203       408.9382 
 791   0.0000      16.343206       444.7212 

                    ********************************
                    * MULLIKEN POPULATION ANALYSIS *
                    ********************************

-----------------------
MULLIKEN ATOMIC CHARGES
-----------------------
   0 C :    0.071016
   1 C :    0.174020
   2 C :   -0.190716
   3 C :    0.148673
   4 H :    0.168002
   5 C :   -0.205962
   6 C :    0.153053
   7 H :    0.145394
   8 C :   -0.170993
   9 C :   -0.096300
  10 H :    0.195847
  11 C :   -0.092245
  12 O :   -0.355688
  13 C :   -0.044395
  14 C :   -0.051654
  15 N :   -0.252844
  16 N :   -0.363676
  17 C :   -0.049359
  18 C :   -0.033095
  19 N :   -0.389040
  20 N :   -0.249475
  21 H :    0.089720
  22 H :    0.141353
  23 H :    0.150335
  24 H :    0.130011
  25 H :    0.145933
  26 H :    0.088931
  27 H :    0.078431
  28 H :    0.088083
  29 H :    0.103092
  30 H :    0.058496
  31 H :    0.089388
  32 H :    0.085950
  33 H :    0.093842
  34 H :    0.089175
  35 H :    0.056697
Sum of atomic charges:   -0.0000000

--------------------------------
MULLIKEN REDUCED ORBITAL CHARGES
--------------------------------
  0 C s       :     3.089441  s :     3.089441
      pz      :     0.937066  p :     2.754357
      px      :     0.886958
      py      :     0.930333
      dz2     :     0.012524  d :     0.073496
      dxz     :     0.021616
      dyz     :     0.002226
      dx2y2   :     0.012202
      dxy     :     0.024928
      f0      :     0.000917  f :     0.011690
      f+1     :     0.001294
      f-1     :     0.001608
      f+2     :     0.002350
      f-2     :     0.001920
      f+3     :     0.001579
      f-3     :     0.002021
  1 C s       :     3.265764  s :     3.265764
      pz      :     0.730776  p :     2.356515
      px      :     0.896139
      py      :     0.729599
      dz2     :     0.050389  d :     0.186445
      dxz     :     0.020248
      dyz     :     0.025921
      dx2y2   :     0.062592
      dxy     :     0.027294
      f0      :     0.000969  f :     0.017256
      f+1     :     0.002038
      f-1     :     0.003271
      f+2     :     0.003520
      f-2     :     0.002511
[...]
      dx2y2   :     0.053787
      dxy     :     0.058659
      f0      :     0.001383  f :     0.016511
      f+1     :     0.002372
      f-1     :     0.001334
      f+2     :     0.003275
      f-2     :     0.001441
      f+3     :     0.002800
      f-3     :     0.003906
 16 N s       :     2.891394  s :     2.891394
      pz      :     1.226886  p :     3.613133
      px      :     1.213213
      py      :     1.173033
      dz2     :     0.011095  d :     0.156779
      dxz     :     0.040145
      dyz     :     0.045342
      dx2y2   :     0.017438
      dxy     :     0.042760
      f0      :     0.001665  f :     0.011517
      f+1     :     0.001490
      f-1     :     0.001463
      f+2     :     0.001124
      f-2     :     0.002221
      f+3     :     0.001678
      f-3     :     0.001876
 17 C s       :     2.670442  s :     2.670442
      pz      :     0.934421  p :     2.774695
      px      :     0.964511
      py      :     0.875764
      dz2     :     0.089480  d :     0.516987
      dxz     :     0.069392
      dyz     :     0.151404
      dx2y2   :     0.151569
      dxy     :     0.055143
      f0      :     0.006626  f :     0.057813
      f+1     :     0.006301
      f-1     :     0.012167
      f+2     :     0.008286
      f-2     :     0.007283
      f+3     :     0.008989
      f-3     :     0.008161
 18 C s       :     2.671929  s :     2.671929
      pz      :     0.954885  p :     2.789277
      px      :     0.848079
      py      :     0.986313
      dz2     :     0.076090  d :     0.518476
      dxz     :     0.124056
      dyz     :     0.104047
      dx2y2   :     0.119533
      dxy     :     0.094750
      f0      :     0.009102  f :     0.059626
      f+1     :     0.009766
      f-1     :     0.004259
      f+2     :     0.010353
      f-2     :     0.005888
      f+3     :     0.009127
      f-3     :     0.011131
 19 N s       :     2.891759  s :     2.891759
      pz      :     1.283858  p :     3.619717
      px      :     1.091842
      py      :     1.244017
      dz2     :     0.016236  d :     0.156063
      dxz     :     0.040259
      dyz     :     0.028998
      dx2y2   :     0.047003
      dxy     :     0.023567
      f0      :     0.001400  f :     0.011311
      f+1     :     0.001747
      f-1     :     0.001356
      f+2     :     0.001639
      f-2     :     0.000980
      f+3     :     0.002027
      f-3     :     0.002161
 20 N s       :     3.017245  s :     3.017245
      pz      :     1.194106  p :     3.530000
      px      :     1.101788
      py      :     1.234106
      dz2     :     0.025278  d :     0.213315
      dxz     :     0.051875
      dyz     :     0.019862
      dx2y2   :     0.060505
      dxy     :     0.055795
      f0      :     0.001079  f :     0.016524
      f+1     :     0.002436
      f-1     :     0.001032
      f+2     :     0.002589
      f-2     :     0.002859
      f+3     :     0.002618
      f-3     :     0.003911
 21 H s       :     0.878785  s :     0.878785
      pz      :     0.023335  p :     0.132498
      px      :     0.086644
      py      :     0.022520
      dz2     :     0.002704  d :     0.023626
      dxz     :     0.006352
      dyz     :     0.000219
      dx2y2   :     0.008046
      dxy     :     0.006304
 22 H s       :     0.779910  s :     0.779910
      pz      :     0.116963  p :     0.269391
      px      :     0.073348
      py      :     0.079080
      dz2     :     0.018675  d :     0.060397
      dxz     :     0.013362
      dyz     :     0.011411
      dx2y2   :     0.007940
      dxy     :     0.009009
 23 H s       :     0.779616  s :     0.779616
      pz      :     0.090785  p :     0.270739
      px      :     0.104429
      py      :     0.075525
      dz2     :     0.007882  d :     0.060548
      dxz     :     0.019303
      dyz     :     0.003385
      dx2y2   :     0.012496
      dxy     :     0.017482
 24 H s       :     0.781934  s :     0.781934
      pz      :     0.099165  p :     0.267994
      px      :     0.083846
      py      :     0.084984
      dz2     :     0.012871  d :     0.060266
      dxz     :     0.010383
      dyz     :     0.013427
      dx2y2   :     0.013482
      dxy     :     0.010102
 25 H s       :     0.780264  s :     0.780264
      pz      :     0.097102  p :     0.269327
      px      :     0.086459
      py      :     0.085766
      dz2     :     0.012226  d :     0.060597
      dxz     :     0.012056
      dyz     :     0.011840
      dx2y2   :     0.014364
      dxy     :     0.010111
 26 H s       :     0.865196  s :     0.865196
      pz      :     0.055813  p :     0.144227
      px      :     0.032943
      py      :     0.055470
      dz2     :     0.005558  d :     0.026300
      dxz     :     0.004418
      dyz     :     0.007203
      dx2y2   :     0.004711
      dxy     :     0.004410
 27 H s       :     0.863773  s :     0.863773
      pz      :     0.053962  p :     0.150011
      px      :     0.038069
      py      :     0.057981
      dz2     :     0.006263  d :     0.027616
      dxz     :     0.004290
      dyz     :     0.007383
      dx2y2   :     0.004885
      dxy     :     0.004796
 28 H s       :     0.852764  s :     0.852764
      pz      :     0.043033  p :     0.149031
      px      :     0.073567
      py      :     0.032431
      dz2     :     0.003091  d :     0.028356
      dxz     :     0.009207
      dyz     :     0.001142
      dx2y2   :     0.007394
      dxy     :     0.007522
 29 H s       :     0.850332  s :     0.850332
      pz      :     0.044290  p :     0.148208
      px      :     0.035852
      py      :     0.068065
      dz2     :     0.003837  d :     0.028149
      dxz     :     0.001795
      dyz     :     0.008544
      dx2y2   :     0.007146
      dxy     :     0.006828
 30 H s       :     0.863817  s :     0.863817
      pz      :     0.058169  p :     0.146102
      px      :     0.030007
      py      :     0.057926
      dz2     :     0.007883  d :     0.028159
      dxz     :     0.004508
      dyz     :     0.007172
      dx2y2   :     0.004580
      dxy     :     0.004015
 31 H s       :     0.865859  s :     0.865859
      pz      :     0.053206  p :     0.143291
      px      :     0.037344
      py      :     0.052740
      dz2     :     0.004805  d :     0.026062
      dxz     :     0.005203
      dyz     :     0.005971
      dx2y2   :     0.004897
      dxy     :     0.005187
 32 H s       :     0.854286  s :     0.854286
      pz      :     0.055268  p :     0.149006
      px      :     0.043462
      py      :     0.050276
      dz2     :     0.006538  d :     0.028462
      dxz     :     0.005611
      dyz     :     0.006539
      dx2y2   :     0.004348
      dxy     :     0.005425
 33 H s       :     0.851587  s :     0.851587
      pz      :     0.050976  p :     0.148779
      px      :     0.044205
      py      :     0.053599
      dz2     :     0.005251  d :     0.028329
      dxz     :     0.005119
      dyz     :     0.006485
      dx2y2   :     0.005491
      dxy     :     0.005984
 34 H s       :     0.855016  s :     0.855016
      pz      :     0.052342  p :     0.149492
      px      :     0.046864
      py      :     0.050286
      dz2     :     0.005439  d :     0.028301
      dxz     :     0.005632
      dyz     :     0.006833
      dx2y2   :     0.005145
      dxy     :     0.005252
 35 H s       :     0.864321  s :     0.864321
      pz      :     0.050729  p :     0.146014
      px      :     0.046526
      py      :     0.048759
      dz2     :     0.005886  d :     0.027684
      dxz     :     0.005530
      dyz     :     0.005704
      dx2y2   :     0.004876
      dxy     :     0.005689


                      *****************************
                      * MAYER POPULATION ANALYSIS *
                      *****************************

  NA   - Mulliken gross atomic population
  ZA   - Total nuclear charge
  QA   - Mulliken gross atomic charge
  VA   - Mayer's total valence
  BVA  - Mayer's bonded valence
  FA   - Mayer's free valence

  ATOM       NA         ZA         QA         VA         BVA        FA
  0 C      5.9290     6.0000     0.0710     3.4182     3.4182    -0.0000
  1 C      5.8260     6.0000     0.1740     4.0626     4.0626    -0.0000
  2 C      6.1907     6.0000    -0.1907     3.8989     3.8989     0.0000
  3 C      5.8513     6.0000     0.1487     3.6031     3.6031    -0.0000
  4 H      0.8320     1.0000     0.1680     1.0063     1.0063     0.0000
  5 C      6.2060     6.0000    -0.2060     3.9536     3.9536     0.0000
  6 C      5.8469     6.0000     0.1531     3.5725     3.5725    -0.0000
  7 H      0.8546     1.0000     0.1454     0.9872     0.9872     0.0000
  8 C      6.1710     6.0000    -0.1710     3.8796     3.8796    -0.0000
  9 C      6.0963     6.0000    -0.0963     4.0224     4.0224    -0.0000
 10 H      0.8042     1.0000     0.1958     1.0104     1.0104    -0.0000
 11 C      6.0922     6.0000    -0.0922     4.0355     4.0355    -0.0000
 12 O      8.3557     8.0000    -0.3557     2.1276     2.1276    -0.0000
 13 C      6.0444     6.0000    -0.0444     3.8617     3.8617    -0.0000
 14 C      6.0517     6.0000    -0.0517     3.9285     3.9285    -0.0000
 15 N      7.2528     7.0000    -0.2528     2.9936     2.9936    -0.0000
 16 N      7.3637     7.0000    -0.3637     3.0006     3.0006    -0.0000
 17 C      6.0494     6.0000    -0.0494     3.8974     3.8974    -0.0000
 18 C      6.0331     6.0000    -0.0331     3.8807     3.8807    -0.0000
 19 N      7.3890     7.0000    -0.3890     2.9552     2.9552    -0.0000
 20 N      7.2495     7.0000    -0.2495     2.9932     2.9932    -0.0000
 21 H      0.9103     1.0000     0.0897     0.9766     0.9766     0.0000
 22 H      0.8586     1.0000     0.1414     1.0079     1.0079    -0.0000
 23 H      0.8497     1.0000     0.1503     1.0098     1.0098     0.0000
 24 H      0.8700     1.0000     0.1300     1.0163     1.0163    -0.0000
 25 H      0.8541     1.0000     0.1459     1.0216     1.0216    -0.0000
 26 H      0.9111     1.0000     0.0889     1.0008     1.0008    -0.0000
 27 H      0.9216     1.0000     0.0784     0.9808     0.9808    -0.0000
 28 H      0.9119     1.0000     0.0881     0.9848     0.9848    -0.0000
 29 H      0.8969     1.0000     0.1031     0.9810     0.9810    -0.0000
 30 H      0.9415     1.0000     0.0585     0.9942     0.9942    -0.0000
 31 H      0.9106     1.0000     0.0894     0.9984     0.9984    -0.0000
 32 H      0.9141     1.0000     0.0859     0.9868     0.9868    -0.0000
 33 H      0.9062     1.0000     0.0938     0.9856     0.9856    -0.0000
 34 H      0.9108     1.0000     0.0892     0.9832     0.9832    -0.0000
 35 H      0.9433     1.0000     0.0567     0.9865     0.9865    -0.0000

  Mayer bond orders larger than 0.100000
B(  0-C ,  1-C ) :   0.9294 B(  0-C ,  2-C ) :   1.3439 B(  0-C ,  8-C ) :   1.2963 
B(  1-C , 12-O ) :   2.0956 B(  1-C , 21-H ) :   1.0208 B(  2-C ,  3-C ) :   1.3224 
B(  2-C ,  4-H ) :   0.9611 B(  3-C ,  5-C ) :   1.3804 B(  3-C , 11-C ) :   0.9894 
B(  5-C ,  6-C ) :   1.3498 B(  5-C ,  7-H ) :   0.9752 B(  6-C ,  8-C ) :   1.3352 
B(  6-C ,  9-C ) :   0.9844 B(  8-C , 10-H ) :   0.9480 B(  9-C , 20-N ) :   1.9951 
B(  9-C , 26-H ) :   0.9964 B( 11-C , 15-N ) :   2.0095 B( 11-C , 31-H ) :   0.9927 
B( 13-C , 14-C ) :   0.9561 B( 13-C , 15-N ) :   0.9524 B( 13-C , 34-H ) :   0.9717 
B( 13-C , 35-H ) :   0.9765 B( 14-C , 16-N ) :   1.0050 B( 14-C , 32-H ) :   0.9812 
B( 14-C , 33-H ) :   0.9874 B( 16-N , 24-H ) :   0.9999 B( 16-N , 25-H ) :   0.9948 
B( 17-C , 18-C ) :   0.9456 B( 17-C , 19-N ) :   0.9806 B( 17-C , 27-H ) :   0.9840 
B( 17-C , 28-H ) :   0.9831 B( 18-C , 20-N ) :   0.9597 B( 18-C , 29-H ) :   0.9830 
B( 18-C , 30-H ) :   0.9745 B( 19-N , 22-H ) :   0.9911 B( 19-N , 23-H ) :   0.9822 


-------
TIMINGS
-------

Total SCF time: 0 days 0 hours 3 min 23 sec 

Total time                  ....     203.827 sec
Sum of individual times     ....     194.570 sec  ( 95.5%)

Fock matrix formation       ....     172.441 sec  ( 84.6%)
Diagonalization             ....       8.755 sec  (  4.3%)
Density matrix formation    ....       0.248 sec  (  0.1%)
Population analysis         ....       0.449 sec  (  0.2%)
Initial guess               ....       0.818 sec  (  0.4%)
Orbital Transformation      ....       0.000 sec  (  0.0%)
Orbital Orthonormalization  ....       0.000 sec  (  0.0%)
DIIS solution               ....       3.780 sec  (  1.9%)
SOSCF solution              ....       2.830 sec  (  1.4%)


           ************************************************************
           *        Program running with 32 parallel MPI-processes    *
           *              working on a common directory               *
           ************************************************************

------------------------------------------------------------------------------
                                ORCA  MP2 
------------------------------------------------------------------------------

Freezing NCore=36 chemical core electrons

-------------
RI-MP2 ENERGY
-------------
Dimension of the basis                    ...  792
Memory devoted to MP2                     ... 3000 MB   
Data format for buffers                   ... DOUBLE
Compression type for matrix containers    ... UNCOMPRESSED
Overall scaling of the MP2 energy         ...   1.000e+00
Calculating two index integrals           ... done (    0.056 sec)
Cholesky decomposition of V**-1           ... done (    1.250 sec)

-----------------
RI-TRANSFORMATION (AUX index driven)
-----------------

Dimension of the orbital-basis         ... 792
Dimension of the aux-basis             ... 1998
Transformation of internal/external MOs...   18-  65 to   66- 791
Number Format for Storage              ... Double (8 Byte)
Integral mode                          ... Direct

First Phase: integral generation and transformation of MO indices
  Aux angular momentum 0               ... done (    0.182 sec)
  Aux angular momentum 1               ... done (    0.348 sec)
  Aux angular momentum 2               ... done (    0.381 sec)
  Aux angular momentum 3               ... done (    0.391 sec)
  Aux angular momentum 4               ... done (    0.161 sec)
Closing buffer VIA ( 0.52 GB; CompressionRatio= 1.00)
  Phase 1 completed in     2.527 sec
Second Phase: sorting and transformation of aux index

IA-Transformation
Memory available                       ... 2920 MB 
Max. # MO pairs treated in a batch     ... 2    
# of internal orbitals                 ... 48
# batches for internal orbitals        ... 1
Closing buffer IAV ( 0.02 GB; CompressionRatio= 1.00)
(ia|v) transformation done in     2.043 sec

  Phase 2 completed in     3.458 sec
RI-Integral transformation completed in     6.167 sec
Opening buffers                              ... done

Starting loop over batches of integrals:

Operator 0  - window                       ... ( 18- 65)x( 66-791)
Operator 0  - Memory available             ...  3000 MB
Operator 0  - Memory needed per MO         ...  11.1 MB
Operator 0  - Number of orbitals per batch ... 2
Operator 0  - Number of batches            ... 1

OPERATOR  0   PASS   0:  MOs    18 ...   19 +   20 ...   21 +   22 ...   23 +   24 ...   25
                            +   26 ...   27 +   28 ...   29 +   30 ...   31 +   32 ...   33
                            +   34 ...   35 +   36 ...   37 +   38 ...   39 +   40 ...   41
                            +   42 ...   43 +   44 ...   45 +   46 ...   47 +   48 ...   49
                            +   50 ...   51 +   52 ...   53 +   54 ...   55 +   56 ...   57
                            +   58 ...   59 +   60 ...   61 +   62 ...   63 +   64 ...   65
  Reading integrals       ... ok
Time spent in pair loops =     0.673 sec
Deleting buffer (Ka|jb)[aa] ...done

-----------------------------------------------
 RI-MP2 CORRELATION ENERGY:     -3.148350404 Eh
-----------------------------------------------


-------
TIMINGS
-------

Total time                :   27.969 sec
Integral trafo            :    6.170 sec ( 22.1%)
I/O of integrals          :    0.012 sec (  0.0%)
K(i,j) Operators          :    0.635 sec (  2.3%)
T(i,j) pair energies      :    0.014 sec (  0.0%)
V-calculation             :    0.056 sec (  0.2%)
V**(-1/2)                 :    1.250 sec (  4.5%)
Gamma(ia|P)               :    0.000 sec (  0.0%)
Gamma-Trafo               :    0.000 sec (  0.0%)
D(virtual)                :    0.000 sec (  0.0%)
D(internal)               :    0.000 sec (  0.0%)
W(virtual)                :    0.000 sec (  0.0%)
W(internal)               :    0.000 sec (  0.0%)
L(virtual)                :    0.000 sec (  0.0%)
L(internal)               :    0.000 sec (  0.0%)
G(D)                      :    0.000 sec (  0.0%)
G(Z)                      :    0.000 sec (  0.0%)
Z-Vector Solution         :    0.000 sec (  0.0%)
3-Index Derivative        :    0.000 sec (  0.0%)
2-Index Derivative        :    0.000 sec (  0.0%)
Separable Gradient        :    0.000 sec (  0.0%)


---------------------------------------
MP2 TOTAL ENERGY:     -798.808078540 Eh
---------------------------------------

-------------------------   --------------------
FINAL SINGLE POINT ENERGY      -798.808078540190
-------------------------   --------------------


                            ***************************************
                            *     ORCA property calculations      *
                            ***************************************


  WARNING: The energy has been calculated at the MP2 level but the densities
           used in the property calculations are still SCF densities
           MP2 response densities have not been calculated 
           use %mp2 Density relaxed end
           or  %mp2 Density unrelaxed end

                                    ---------------------
                                    Active property flags
                                    ---------------------
   (+) Dipole Moment


------------------------------------------------------------------------------
                       ORCA ELECTRIC PROPERTIES CALCULATION
------------------------------------------------------------------------------

Dipole Moment Calculation                       ... on
Quadrupole Moment Calculation                   ... off
Polarizability Calculation                      ... off
GBWName                                         ... _o_1_alde1_2_ami4_2_opt_MP2.gbw
Electron density file                           ... _o_1_alde1_2_ami4_2_opt_MP2.scfp
The origin for moment calculation is the CENTER OF MASS  = (-1.803302,  3.660339 -4.376178)

-------------
DIPOLE MOMENT
-------------
                                X             Y             Z
Electronic contribution:     -2.17689      -7.31327       6.35496
Nuclear contribution   :      2.63871       8.87391      -7.08148
                        -----------------------------------------
Total Dipole Moment    :      0.46182       1.56064      -0.72653
                        -----------------------------------------
Magnitude (a.u.)       :      1.78233
Magnitude (Debye)      :      4.53032



--------------------
Rotational spectrum 
--------------------
 
Rotational constants in cm-1:     0.022884     0.005077     0.004341 
Rotational constants in MHz :   686.052530   152.195360   130.142090 

 Dipole components along the rotational axes: 
x,y,z [a.u.] :    -0.111983    -1.697032    -0.533148 
x,y,z [Debye]:    -0.284637    -4.313511    -1.355156 

 

Timings for individual modules:

Sum of individual times         ...     1014.451 sec (=  16.908 min)
GTO integral calculation        ...      173.961 sec (=   2.899 min)  17.1 %
SCF iterations                  ...      472.743 sec (=   7.879 min)  46.6 %
MP2 module                      ...      367.748 sec (=   6.129 min)  36.3 %
                             ****ORCA TERMINATED NORMALLY****
TOTAL RUN TIME: 0 days 0 hours 19 minutes 41 seconds 274 msec
