Job execution start: Thu Mar 10 21:34:37 GMT 2022
Shared library path: /work/e05/e05/atarzia/orca_4_2_1_linux_x86-64_openmpi314:/work/e05/e05/atarzia/openmpi-3.1.4/lib:/opt/cray/pe/papi/6.0.0.6/lib64:/opt/cray/libfabric/1.11.0.4.71/lib64
Slurm Job ID is: 1234917
Slurm Job name is: o_1_alde1_3_ami4_1_opt_MP2
nid004375

                                 *****************
                                 * O   R   C   A *
                                 *****************

           --- An Ab Initio, DFT and Semiempirical electronic structure package ---

                  #######################################################
                  #                        -***-                        #
                  #          Department of theory and spectroscopy      #
                  #               Directorship: Frank Neese             #
                  #        Max Planck Institute fuer Kohlenforschung    #
                  #                Kaiser Wilhelm Platz 1               #
                  #                 D-45470 Muelheim/Ruhr               #
                  #                      Germany                        #
                  #                                                     #
                  #                  All rights reserved                #
                  #                        -***-                        #
                  #######################################################


                         Program Version 4.2.1 -  RELEASE  -


 With contributions from (in alphabetic order):
   Daniel Aravena         : Magnetic Suceptibility
   Michael Atanasov       : Ab Initio Ligand Field Theory (pilot matlab implementation)
   Alexander A. Auer      : GIAO ZORA, VPT2
   Ute Becker             : Parallelization
   Giovanni Bistoni       : ED, misc. LED, open-shell LED, HFLD
   Martin Brehm           : Molecular dynamics
   Dmytro Bykov           : SCF Hessian
   Vijay G. Chilkuri      : MRCI spin determinant printing, contributions to CSF-ICE
   Dipayan Datta          : RHF DLPNO-CCSD density
   Achintya Kumar Dutta   : EOM-CC, STEOM-CC
   Dmitry Ganyushin       : Spin-Orbit,Spin-Spin,Magnetic field MRCI
   Miquel Garcia          : C-PCM Hessian, Gaussian charge scheme
   Yang Guo               : DLPNO-NEVPT2, CIM, IAO-localization
   Andreas Hansen         : Spin unrestricted coupled pair/coupled cluster methods
   Benjamin Helmich-Paris : CASSCF linear response (MC-RPA)
   Lee Huntington         : MR-EOM, pCC
   Robert Izsak           : Overlap fitted RIJCOSX, COSX-SCS-MP3, EOM
   Christian Kollmar      : KDIIS, OOCD, Brueckner-CCSD(T), CCSD density
   Simone Kossmann        : Meta GGA functionals, TD-DFT gradient, OOMP2, MP2 Hessian
   Martin Krupicka        : AUTO-CI
   Lucas Lang             : DCDCAS
   Dagmar Lenk            : GEPOL surface, SMD
   Dimitrios Liakos       : Extrapolation schemes; Compound Job, initial MDCI parallelization
   Dimitrios Manganas     : Further ROCIS development; embedding schemes
   Dimitrios Pantazis     : SARC Basis sets
   Taras Petrenko         : DFT Hessian,TD-DFT gradient, ASA, ECA, R-Raman, ABS, FL, XAS/XES, NRVS
   Peter Pinski           : DLPNO-MP2, DLPNO-MP2 Gradient
   Christoph Reimann      : Effective Core Potentials
   Marius Retegan         : Local ZFS, SOC
   Christoph Riplinger    : Optimizer, TS searches, QM/MM, DLPNO-CCSD(T), (RO)-DLPNO pert. Triples
   Tobias Risthaus        : Range-separated hybrids, TD-DFT gradient, RPA, STAB
   Michael Roemelt        : Original ROCIS implementation
   Masaaki Saitow         : Open-shell DLPNO-CCSD energy and density
   Barbara Sandhoefer     : DKH picture change effects
   Avijit Sen             : IP-ROCIS
   Kantharuban Sivalingam : CASSCF convergence, NEVPT2, FIC-MRCI
   Bernardo de Souza      : ESD, SOC TD-DFT
   Georgi Stoychev        : AutoAux, RI-MP2 NMR
   Willem Van den Heuvel  : Paramagnetic NMR
   Boris Wezisla          : Elementary symmetry handling
   Frank Wennmohs         : Technical directorship


 We gratefully acknowledge several colleagues who have allowed us to
 interface, adapt or use parts of their codes:
   Stefan Grimme, W. Hujo, H. Kruse,             : VdW corrections, initial TS optimization,
                  C. Bannwarth                     DFT functionals, gCP, sTDA/sTD-DF
   Ed Valeev, F. Pavosevic, A. Kumar             : LibInt (2-el integral package), F12 methods
   Garnet Chan, S. Sharma, J. Yang, R. Olivares  : DMRG
   Ulf Ekstrom                                   : XCFun DFT Library
   Mihaly Kallay                                 : mrcc  (arbitrary order and MRCC methods)
   Andreas Klamt, Michael Diedenhofen            : otool_cosmo (COSMO solvation model)
   Jiri Pittner, Ondrej Demel                    : Mk-CCSD
   Frank Weinhold                                : gennbo (NPA and NBO analysis)
   Christopher J. Cramer and Donald G. Truhlar   : smd solvation model
   Lars Goerigk                                  : TD-DFT with DH, B97 family of functionals
   V. Asgeirsson, H. Jonsson                     : NEB implementation
   FAccTs GmbH                                   : IRC, NEB, NEB-TS, Multilevel, MM, QM/MM, CI optimization
   S Lehtola, MJT Oliveira, MAL Marques          : LibXC Library


 Your calculation uses the libint2 library for the computation of 2-el integrals
 For citations please refer to: http://libint.valeyev.net

 Your ORCA version has been built with support for libXC version: 4.2.3
 For citations please refer to: https://tddft.org/programs/libxc/

 This ORCA versions uses:
   CBLAS   interface :  Fast vector & matrix operations
   LAPACKE interface :  Fast linear algebra routines
   SCALAPACK package :  Parallel linear algebra routines




***************************************
The coordinates will be read from file: _o_1_alde1_3_ami4_1_opt_B97-3c.xyz
***************************************


----- Orbital basis set information -----
Your calculation utilizes the basis: cc-pVTZ 
       H, B-Ne : Obtained from the ccRepo (grant-hill.group.shef.ac.uk/ccrepo) Feb. 2017
                 T. H. Dunning, Jr., J. Chem. Phys. 90, 1007 (1989)
            He : Obtained from the ccRepo (grant-hill.group.shef.ac.uk/ccrepo) Feb. 2017
                 D. E. Woon, T. H. Dunning, Jr., J. Chem. Phys. 100, 2975 (1994)
  Li-Be, Na-Mg : Obtained from the ccRepo (grant-hill.group.shef.ac.uk/ccrepo) Feb. 2017
                 B. P. Prascher, D. E. Woon, K. A. Peterson, T. H. Dunning, Jr., A. K. Wilson, Theor. Chem. Acc. 128, 69 (2011)
         Al-Ar : Obtained from the ccRepo (grant-hill.group.shef.ac.uk/ccrepo) Feb. 2017
                 D. E. Woon, T. H. Dunning, Jr., J. Chem. Phys. 98, 1358 (1993)
            Ca : Obtained from the Peterson Research Group Website (tyr0.chem.wsu.edu/~kipeters) Feb. 2017
                 J. Koput, K. A. Peterson, J. Phys. Chem. 106, 9595 (2002)
         Sc-Zn : Obtained from the ccRepo (grant-hill.group.shef.ac.uk/ccrepo) Feb. 2017
                 N. B. Balabanov, K. A. Peterson, J. Chem. Phys. 123, 064107 (2005)
                 N. B. Balabanov, K. A. Peterson, J. Chem. Phys. 125, 074110 (2006)
         Ga-Kr : Obtained from the ccRepo (grant-hill.group.shef.ac.uk/ccrepo) Feb. 2017
                 A. K. Wilson, D. E. Woon, K. A. Peterson, T. H. Dunning, Jr., J. Chem. Phys. 110, 7667 (1999)
             Y : Obtained from the ccRepo (grant-hill.group.shef.ac.uk/ccrepo) Feb. 2017
                 K. A. Peterson, D. Figgen, M. Dolg, H. Stoll, J. Chem. Phys. 126, 124101 (2007)
        Ag, Au : Obtained from the Peterson Research Group Website (tyr0.chem.wsu.edu/~kipeters) Feb. 2017
                 K. A. Peterson, C. Puzzarini, Theor. Chem. Acc. 114, 283 (2005)

----- AuxC basis set information -----
Your calculation utilizes the auxiliary basis: cc-pVTZ/C 
  Obtained from the EMSL Basis Set Exchange (bse.pnl.gov) Feb. 2017
  H-He, B-F, Al-Ar, Ga-Kr : F. Weigend, A. Kohn, C. Hattig, J. Chem. Phys. 116, 3175 (2002)
             Li-Be, Na-Mg : C. Haettig, Phys. Chem. Chem. Phys. 7, 59 (2005)
                       Ne : C. Haettig, Phys. Chem. Chem. Phys. 7, 59 (2005)
                            F. Weigend, A. Kohn, C. Hattig, J. Chem. Phys. 116, 3175 (2002)
                    Sc-Zn : J. G. Hill, J. A. Platts, J. Chem. Phys. 128, 044104 (2008)

================================================================================
                                        WARNINGS
                       Please study these warnings very carefully!
================================================================================


WARNING: No MP2 level density has been requested!
         To caclulate MP2 level properties use
         %mp2 Density relaxed end
         or
         %mp2 Density unrelaxed end

WARNING: Post HF methods need fully converged wavefunctions
  ===> : Setting SCFConvForced true
         You can overwrite this default with %scf ConvForced false 


INFO   : the flag for use of LIBINT has been found!

================================================================================
                                       INPUT FILE
================================================================================
NAME = o_1_alde1_3_ami4_1_opt_MP2.in
|  1> ! RI-MP2 cc-pVTZ cc-pVTZ/C TIGHTSCF printbasis Grid6 NOFINALGRID SlowConv
|  2> 
|  3> %base "_o_1_alde1_3_ami4_1_opt_MP2"
|  4> %maxcore 3000
|  5> %pal
|  6>    nprocs 32
|  7> end
|  8> 
|  9> * xyzfile 0 1 _o_1_alde1_3_ami4_1_opt_B97-3c.xyz
| 10> 
| 11>                          ****END OF INPUT****
================================================================================

                       ****************************
                       * Single Point Calculation *
                       ****************************

---------------------------------
CARTESIAN COORDINATES (ANGSTROEM)
---------------------------------
  C     -1.201310    1.014760    0.247219
  C     -1.283056    0.456477    1.643795
  C     -2.349987    1.119745   -0.529131
  C     -2.299519    1.672774   -1.801005
  H     -3.282026    0.738535   -0.133457
  C     -1.086205    2.130628   -2.294775
  C      0.071497    2.040200   -1.535493
  H     -1.040122    2.556041   -3.286663
  C      0.006504    1.476732   -0.265488
  C      1.376894    2.500439   -2.126331
  H      0.908819    1.390485    0.329640
  C     -3.544583    1.819534   -2.630160
  C     -2.193678    0.692615    3.743584
  C     -2.822903   -0.575711    3.140426
  N     -1.691163    1.467514    2.610350
  N     -2.287883   -0.619243    1.773062
  C     -4.224765    2.353995   -4.849859
  C     -4.890469    3.266522   -3.804538
  N     -3.309209    1.520835   -4.059445
  N     -4.051652    3.184231   -2.610739
  C      2.236522    3.739826   -3.970187
  C      2.840437    2.325502   -3.891699
  N      1.230954    3.751589   -2.900396
  N      1.915841    1.538054   -3.077675
  H      1.317402    4.563040   -2.305192
  H      2.116206    2.610669   -1.321131
  H      1.146589    1.214058   -3.654013
  H     -1.887883   -1.519817    1.551847
  H     -0.285158    0.107282    1.943376
  H     -2.449483    1.999698    2.197558
  H     -3.433658    0.536521   -4.248693
  H     -3.258203    3.808628   -2.707058
  H     -4.328589    1.174456   -2.211313
  H     -3.913220   -0.506868    3.116889
  H     -2.566616   -1.463297    3.724690
  H     -1.354106    0.430303    4.389704
  H     -2.890427    1.283222    4.334162
  H     -3.664098    2.935306   -5.585826
  H     -4.966758    1.766715   -5.396673
  H     -5.887689    2.898079   -3.557784
  H     -4.993072    4.298526   -4.132022
  H      1.760171    3.917532   -4.937488
  H      3.005214    4.506501   -3.841339
  H      3.810287    2.353840   -3.392304
  H      2.986196    1.861781   -4.864721

----------------------------
CARTESIAN COORDINATES (A.U.)
----------------------------
  NO LB      ZA    FRAG     MASS         X           Y           Z
   0 C     6.0000    0    12.011   -2.270148    1.917618    0.467176
   1 C     6.0000    0    12.011   -2.424624    0.862617    3.106323
   2 C     6.0000    0    12.011   -4.440833    2.116011   -0.999912
   3 C     6.0000    0    12.011   -4.345461    3.161085   -3.403406
   4 H     1.0000    0     1.008   -6.202129    1.395629   -0.252197
   5 C     6.0000    0    12.011   -2.052629    4.026303   -4.336497
   6 C     6.0000    0    12.011    0.135110    3.855420   -2.901661
   7 H     1.0000    0     1.008   -1.965546    4.830217   -6.210894
   8 C     6.0000    0    12.011    0.012292    2.790620   -0.501700
   9 C     6.0000    0    12.011    2.601952    4.725146   -4.018183
  10 H     1.0000    0     1.008    1.717419    2.627636    0.622929
  11 C     6.0000    0    12.011   -6.698290    3.438420   -4.970282
  12 C     6.0000    0    12.011   -4.145451    1.308852    7.074349
  13 C     6.0000    0    12.011   -5.334514   -1.087937    5.934546
  14 N     7.0000    0    14.007   -3.195836    2.773199    4.932847
  15 N     7.0000    0    14.007   -4.323473   -1.170200    3.350602
  16 C     6.0000    0    12.011   -7.983648    4.448405   -9.164904
  17 C     6.0000    0    12.011   -9.241648    6.172832   -7.189534
  18 N     7.0000    0    14.007   -6.253498    2.873962   -7.671239
  19 N     7.0000    0    14.007   -7.656513    6.017325   -4.933583
  20 C     6.0000    0    12.011    4.226414    7.067247   -7.502567
  21 C     6.0000    0    12.011    5.367649    4.394561   -7.354245
  22 N     7.0000    0    14.007    2.326165    7.089475   -5.480954
  23 N     7.0000    0    14.007    3.620415    2.906500   -5.815963
  24 H     1.0000    0     1.008    2.489529    8.622896   -4.356181
  25 H     1.0000    0     1.008    3.999049    4.933449   -2.496575
  26 H     1.0000    0     1.008    2.166740    2.294237   -6.905085
  27 H     1.0000    0     1.008   -3.567582   -2.872038    2.932566
  28 H     1.0000    0     1.008   -0.538870    0.202733    3.672448
  29 H     1.0000    0     1.008   -4.628852    3.778882    4.152783
  30 H     1.0000    0     1.008   -6.488673    1.013878   -8.028867
  31 H     1.0000    0     1.008   -6.157112    7.197263   -5.115598
  32 H     1.0000    0     1.008   -8.179848    2.219400   -4.178776
  33 H     1.0000    0     1.008   -7.394914   -0.957841    5.890067
  34 H     1.0000    0     1.008   -4.850201   -2.765231    7.038643
  35 H     1.0000    0     1.008   -2.558890    0.813154    8.295338
  36 H     1.0000    0     1.008   -5.462115    2.424938    8.190379
  37 H     1.0000    0     1.008   -6.924141    5.546925  -10.555681
  38 H     1.0000    0     1.008   -9.385813    3.338608  -10.198235
  39 H     1.0000    0     1.008  -11.126120    5.476575   -6.723236
  40 H     1.0000    0     1.008   -9.435538    8.123036   -7.808390
  41 H     1.0000    0     1.008    3.326242    7.403063   -9.330499
  42 H     1.0000    0     1.008    5.679031    8.516053   -7.259078
  43 H     1.0000    0     1.008    7.200400    4.448113   -6.410525
  44 H     1.0000    0     1.008    5.643092    3.518256   -9.192991

--------------------------------
INTERNAL COORDINATES (ANGSTROEM)
--------------------------------
 C      0   0   0     0.000000000000     0.00000000     0.00000000
 C      1   0   0     1.506249433271     0.00000000     0.00000000
 C      1   2   0     1.390395487549   120.05696009     0.00000000
 C      3   1   2     1.387823161580   120.78123590   177.84553061
 H      3   1   2     1.081930556527   118.74354059   356.28918701
 C      4   3   1     1.387649200126   119.29985334   359.66734885
 C      6   4   3     1.387429284070   120.88750488     0.09723267
 H      6   4   3     1.080250946609   119.60133422   179.60052200
 C      7   6   4     1.390910764679   119.15022371     0.25650513
 C      7   6   4     1.504981831895   119.27392270   177.71602594
 H      9   7   6     1.084337193410   119.63485915   179.21500759
 C      4   3   1     1.503069967375   120.95320722   181.53802834
 C      2   1   3     2.300893090668   146.05657864   299.86534058
 C     13   2   1     1.538952805869    73.71371429   111.55511964
 N      2   1   3     1.457043513445   111.90560541   277.17159088
 N     14  13   2     1.468954031189   103.90597980   355.83101457
 C     12   4   3     2.382300994295   140.56984215   190.45485803
 C     17  12   4     1.539014357053    67.89325613   235.63038239
 N     17  12   4     1.468724115320    36.22751172    49.14345621
 N     12   4   3     1.455986599071   111.87879514   101.37422476
 C     10   7   6     2.382193616534   140.89344973    13.12836694
 C     21  10   7     1.539866311267    67.92720699   235.52345802
 N     21  10   7     1.468250516876    36.20255868    47.54362574
 N     10   7   6     1.456607545044   112.04234437   283.52852930
 H     23  21  10     1.010047025849   112.15914741   122.89746203
 H     10   7   6     1.098671981377   109.06462771   164.98882163
 H     24  10   7     1.014340817683   107.54992096    43.07226035
 H     16  14  13     1.009935619864   111.99774600   129.19617543
 H      2   1   3     1.098856808779   108.74019688   159.06884022
 H     15   2   1     1.014231590639   107.66964543    43.19221933
 H     19  17  12     1.010037924626   112.03539130   122.42915978
 H     20  12   4     1.014253093871   107.65644339    42.82498411
 H     12   4   3     1.098282358253   108.88007458   342.98962959
 H     14  13   2     1.092741386036   111.37549140   237.22212477
 H     14  13   2     1.093094501014   111.33707656   117.56207748
 H     13   2   1     1.091402259605   102.18974411   219.51181598
 H     13   2   1     1.087684233838   143.58704497     3.90949746
 H     17  12   4     1.092665748401   126.90079775   336.36741594
 H     17  12   4     1.092912623821   122.64723861   133.66309450
 H     18  17  12     1.091368371279   110.40377170   263.00944058
 H     18  17  12     1.087568443435   113.51076602   142.11401590
 H     21  10   7     1.092775944857   127.76666726   336.16574480
 H     21  10   7     1.093288232371   121.82591856   133.48934220
 H     22  21  10     1.091241348484   110.36712290   262.67342776
 H     22  21  10     1.087683342496   113.48682679   141.88811248

---------------------------
INTERNAL COORDINATES (A.U.)
---------------------------
 C      0   0   0     0.000000000000     0.00000000     0.00000000
 C      1   0   0     2.846398918257     0.00000000     0.00000000
 C      1   2   0     2.627466689307   120.05696009     0.00000000
 C      3   1   2     2.622605697699   120.78123590   177.84553061
 H      3   1   2     2.044552447758   118.74354059   356.28918701
 C      4   3   1     2.622276958192   119.29985334   359.66734885
 C      6   4   3     2.621861377074   120.88750488     0.09723267
 H      6   4   3     2.041378445000   119.60133422   179.60052200
 C      7   6   4     2.628440421965   119.15022371     0.25650513
 C      7   6   4     2.844003498808   119.27392270   177.71602594
 H      9   7   6     2.049100332370   119.63485915   179.21500759
 C      4   3   1     2.840390598461   120.95320722   181.53802834
 C      2   1   3     4.348057804795   146.05657864   299.86534058
 C     13   2   1     2.908199336122    73.71371429   111.55511964
 N      2   1   3     2.753413205617   111.90560541   277.17159088
 N     14  13   2     2.775920822267   103.90597980   355.83101457
 C     12   4   3     4.501896447786   140.56984215   190.45485803
 C     17  12   4     2.908315651003    67.89325613   235.63038239
 N     17  12   4     2.775486344240    36.22751172    49.14345621
 N     12   4   3     2.751415926904   111.87879514   101.37422476
 C     10   7   6     4.501693533225   140.89344973    13.12836694
 C     21  10   7     2.909925611147    67.92720699   235.52345802
 N     21  10   7     2.774591372884    36.20255868    47.54362574
 N     10   7   6     2.752589344736   112.04234437   283.52852930
 H     23  21  10     1.908712261237   112.15914741   122.89746203
 H     10   7   6     2.076189155814   109.06462771   164.98882163
 H     24  10   7     1.916826351879   107.54992096    43.07226035
 H     16  14  13     1.908501734435   111.99774600   129.19617543
 H      2   1   3     2.076538428986   108.74019688   159.06884022
 H     15   2   1     1.916619942679   107.66964543    43.19221933
 H     19  17  12     1.908695062418   112.03539130   122.42915978
 H     20  12   4     1.916660577899   107.65644339    42.82498411
 H     12   4   3     2.075452874815   108.88007458   342.98962959
 H     14  13   2     2.064981954810   111.37549140   237.22212477
 H     14  13   2     2.065649245411   111.33707656   117.56207748
 H     13   2   1     2.062451372597   102.18974411   219.51181598
 H     13   2   1     2.055425322138   143.58704497     3.90949746
 H     17  12   4     2.064839020395   126.90079775   336.36741594
 H     17  12   4     2.065305547327   122.64723861   133.66309450
 H     18  17  12     2.062387332942   110.40377170   263.00944058
 H     18  17  12     2.055206509987   113.51076602   142.11401590
 H     21  10   7     2.065047261516   127.76666726   336.16574480
 H     21  10   7     2.066015344620   121.82591856   133.48934220
 H     22  21  10     2.062147294646   110.36712290   262.67342776
 H     22  21  10     2.055423637745   113.48682679   141.88811248

---------------------
BASIS SET INFORMATION
---------------------
There are 3 groups of distinct atoms

 Group   1 Type C   : 18s5p2d1f contracted to 4s3p2d1f pattern {8811/311/11/1}
 Group   2 Type H   : 5s2p1d contracted to 3s2p1d pattern {311/11/1}
 Group   3 Type N   : 18s5p2d1f contracted to 4s3p2d1f pattern {8811/311/11/1}

Atom   0C    basis set group =>   1
Atom   1C    basis set group =>   1
Atom   2C    basis set group =>   1
Atom   3C    basis set group =>   1
Atom   4H    basis set group =>   2
Atom   5C    basis set group =>   1
Atom   6C    basis set group =>   1
Atom   7H    basis set group =>   2
Atom   8C    basis set group =>   1
Atom   9C    basis set group =>   1
Atom  10H    basis set group =>   2
Atom  11C    basis set group =>   1
Atom  12C    basis set group =>   1
Atom  13C    basis set group =>   1
Atom  14N    basis set group =>   3
Atom  15N    basis set group =>   3
Atom  16C    basis set group =>   1
Atom  17C    basis set group =>   1
Atom  18N    basis set group =>   3
Atom  19N    basis set group =>   3
Atom  20C    basis set group =>   1
Atom  21C    basis set group =>   1
Atom  22N    basis set group =>   3
Atom  23N    basis set group =>   3
Atom  24H    basis set group =>   2
Atom  25H    basis set group =>   2
Atom  26H    basis set group =>   2
Atom  27H    basis set group =>   2
Atom  28H    basis set group =>   2
Atom  29H    basis set group =>   2
Atom  30H    basis set group =>   2
Atom  31H    basis set group =>   2
Atom  32H    basis set group =>   2
Atom  33H    basis set group =>   2
Atom  34H    basis set group =>   2
Atom  35H    basis set group =>   2
Atom  36H    basis set group =>   2
Atom  37H    basis set group =>   2
Atom  38H    basis set group =>   2
Atom  39H    basis set group =>   2
Atom  40H    basis set group =>   2
Atom  41H    basis set group =>   2
Atom  42H    basis set group =>   2
Atom  43H    basis set group =>   2
Atom  44H    basis set group =>   2

-------------------------
BASIS SET IN INPUT FORMAT
-------------------------

 # Basis set for element : H 
 NewGTO H 
 S 3 
   1      33.8700000000      0.0254948632
   2       5.0950000000      0.1903627659
   3       1.1590000000      0.8521620222
 S 1 
   1       0.3258000000      1.0000000000
 S 1 
   1       0.1027000000      1.0000000000
 P 1 
   1       1.4070000000      1.0000000000
 P 1 
   1       0.3880000000      1.0000000000
 D 1 
   1       1.0570000000      1.0000000000
  end;

 # Basis set for element : C 
 NewGTO C 
 S 8 
   1    8236.0000000000      0.0005424302
   2    1235.0000000000      0.0041964279
   3     280.8000000000      0.0215409141
   4      79.2700000000      0.0836149496
   5      25.5900000000      0.2398716189
   6       8.9970000000      0.4437518201
   7       3.3190000000      0.3535796965
   8       0.3643000000     -0.0091763661
 S 8 
   1    8236.0000000000     -0.0001963922
   2    1235.0000000000     -0.0015259503
   3     280.8000000000     -0.0078904490
   4      79.2700000000     -0.0315148705
   5      25.5900000000     -0.0969100083
   6       8.9970000000     -0.2205415263
   7       3.3190000000     -0.2960691129
   8       0.3643000000      1.0405034329
 S 1 
   1       0.9059000000      1.0000000000
 S 1 
   1       0.1285000000      1.0000000000
 P 3 
   1      18.7100000000      0.0394263872
   2       4.1330000000      0.2440889849
   3       1.2000000000      0.8154920089
 P 1 
   1       0.3827000000      1.0000000000
 P 1 
   1       0.1209000000      1.0000000000
 D 1 
   1       1.0970000000      1.0000000000
 D 1 
   1       0.3180000000      1.0000000000
 F 1 
   1       0.7610000000      1.0000000000
  end;

 # Basis set for element : N 
 NewGTO N 
 S 8 
   1   11420.0000000000      0.0005349809
   2    1712.0000000000      0.0041376631
   3     389.3000000000      0.0212509149
   4     110.0000000000      0.0825762988
   5      35.5700000000      0.2384132727
   6      12.5400000000      0.4434316661
   7       4.6440000000      0.3554319088
   8       0.5118000000     -0.0087029018
 S 8 
   1   11420.0000000000     -0.0001987770
   2    1712.0000000000     -0.0015470035
   3     389.3000000000     -0.0079925633
   4     110.0000000000     -0.0320255651
   5      35.5700000000     -0.0991102048
   6      12.5400000000     -0.2282927747
   7       4.6440000000     -0.2981827627
   8       0.5118000000      1.0370005182
 S 1 
   1       1.2930000000      1.0000000000
 S 1 
   1       0.1787000000      1.0000000000
 P 3 
   1      26.6300000000      0.0398072123
   2       5.9480000000      0.2490026605
   3       1.7420000000      0.8104797267
 P 1 
   1       0.5550000000      1.0000000000
 P 1 
   1       0.1725000000      1.0000000000
 D 1 
   1       1.6540000000      1.0000000000
 D 1 
   1       0.4690000000      1.0000000000
 F 1 
   1       1.0930000000      1.0000000000
  end;

---------------------------------
AUXILIARY/C BASIS SET INFORMATION
---------------------------------
There are 3 groups of distinct atoms

 Group   1 Type C   : 8s6p5d3f1g contracted to 8s6p5d3f1g pattern {11111111/111111/11111/111/1}
 Group   2 Type H   : 4s3p2d1f contracted to 4s3p2d1f pattern {1111/111/11/1}
 Group   3 Type N   : 8s6p5d3f1g contracted to 8s6p5d3f1g pattern {11111111/111111/11111/111/1}

Atom   0C    basis set group =>   1
Atom   1C    basis set group =>   1
Atom   2C    basis set group =>   1
Atom   3C    basis set group =>   1
Atom   4H    basis set group =>   2
Atom   5C    basis set group =>   1
Atom   6C    basis set group =>   1
Atom   7H    basis set group =>   2
Atom   8C    basis set group =>   1
Atom   9C    basis set group =>   1
Atom  10H    basis set group =>   2
Atom  11C    basis set group =>   1
Atom  12C    basis set group =>   1
Atom  13C    basis set group =>   1
Atom  14N    basis set group =>   3
Atom  15N    basis set group =>   3
Atom  16C    basis set group =>   1
Atom  17C    basis set group =>   1
Atom  18N    basis set group =>   3
Atom  19N    basis set group =>   3
Atom  20C    basis set group =>   1
Atom  21C    basis set group =>   1
Atom  22N    basis set group =>   3
Atom  23N    basis set group =>   3
Atom  24H    basis set group =>   2
Atom  25H    basis set group =>   2
Atom  26H    basis set group =>   2
Atom  27H    basis set group =>   2
Atom  28H    basis set group =>   2
Atom  29H    basis set group =>   2
Atom  30H    basis set group =>   2
Atom  31H    basis set group =>   2
Atom  32H    basis set group =>   2
Atom  33H    basis set group =>   2
Atom  34H    basis set group =>   2
Atom  35H    basis set group =>   2
Atom  36H    basis set group =>   2
Atom  37H    basis set group =>   2
Atom  38H    basis set group =>   2
Atom  39H    basis set group =>   2
Atom  40H    basis set group =>   2
Atom  41H    basis set group =>   2
Atom  42H    basis set group =>   2
Atom  43H    basis set group =>   2
Atom  44H    basis set group =>   2

-------------------------------------
AUXILIARY/C BASIS SET IN INPUT FORMAT
-------------------------------------

 # Auxiliary/C basis set for element : H 
 NewAuxCGTO H 
 S 1 
   1       8.5128275910      1.0000000000
 S 1 
   1       1.8730891166      1.0000000000
 S 1 
   1       0.5261842694      1.0000000000
 S 1 
   1       0.2897398994      1.0000000000
 P 1 
   1       2.3725491635      1.0000000000
 P 1 
   1       1.1804084468      1.0000000000
 P 1 
   1       0.6038220424      1.0000000000
 D 1 
   1       1.8096373189      1.0000000000
 D 1 
   1       1.1439726055      1.0000000000
 F 1 
   1       1.8063060576      1.0000000000
  end;

 # Auxiliary/C basis set for element : C 
 NewAuxCGTO C 
 S 1 
   1     280.5566118800      1.0000000000
 S 1 
   1      60.2302471910      1.0000000000
 S 1 
   1      22.1166508240      1.0000000000
 S 1 
   1       6.8620932896      1.0000000000
 S 1 
   1       1.5622549539      1.0000000000
 S 1 
   1       0.9124504549      1.0000000000
 S 1 
   1       0.5027491704      1.0000000000
 S 1 
   1       0.2158234875      1.0000000000
 P 1 
   1      24.2318651760      1.0000000000
 P 1 
   1       6.4764514185      1.0000000000
 P 1 
   1       2.1290884677      1.0000000000
 P 1 
   1       1.0375639746      1.0000000000
 P 1 
   1       0.5494127505      1.0000000000
 P 1 
   1       0.2815265223      1.0000000000
 D 1 
   1       9.7189810815      1.0000000000
 D 1 
   1       3.0351475003      1.0000000000
 D 1 
   1       1.4677737562      1.0000000000
 D 1 
   1       0.5737082791      1.0000000000
 D 1 
   1       0.2905558967      1.0000000000
 F 1 
   1       2.2756201303      1.0000000000
 F 1 
   1       1.1968898852      1.0000000000
 F 1 
   1       0.5415748722      1.0000000000
 G 1 
   1       1.2166101638      1.0000000000
  end;

 # Auxiliary/C basis set for element : N 
 NewAuxCGTO N 
 S 1 
   1     287.5092694700      1.0000000000
 S 1 
   1      64.2760308980      1.0000000000
 S 1 
   1      21.6819240160      1.0000000000
 S 1 
   1       7.9068743193      1.0000000000
 S 1 
   1       2.4319673913      1.0000000000
 S 1 
   1       1.2226681474      1.0000000000
 S 1 
   1       0.7667482736      1.0000000000
 S 1 
   1       0.3115884699      1.0000000000
 P 1 
   1      34.9650273710      1.0000000000
 P 1 
   1      10.3238966480      1.0000000000
 P 1 
   1       2.8981582643      1.0000000000
 P 1 
   1       1.4077404555      1.0000000000
 P 1 
   1       0.8508338654      1.0000000000
 P 1 
   1       0.3735327414      1.0000000000
 D 1 
   1      13.9086370890      1.0000000000
 D 1 
   1       4.5847232531      1.0000000000
 D 1 
   1       2.2101848651      1.0000000000
 D 1 
   1       0.8376830121      1.0000000000
 D 1 
   1       0.4194837561      1.0000000000
 F 1 
   1       3.4730665788      1.0000000000
 F 1 
   1       1.5589463548      1.0000000000
 F 1 
   1       0.8467763824      1.0000000000
 G 1 
   1       1.7764066281      1.0000000000
  end;



           ************************************************************
           *        Program running with 32 parallel MPI-processes    *
           *              working on a common directory               *
           ************************************************************
------------------------------------------------------------------------------
                           ORCA GTO INTEGRAL CALCULATION
------------------------------------------------------------------------------

                         BASIS SET STATISTICS AND STARTUP INFO

 # of primitive gaussian shells          ...  738
 # of primitive gaussian functions       ... 1434
 # of contracted shells                  ...  354
 # of contracted basis functions         ...  966
 Highest angular momentum                ...    3
 Maximum contraction depth               ...    8
 Integral package used                   ... LIBINT
 Integral threshhold            Thresh   ...  2.500e-11
 Primitive cut-off              TCut     ...  2.500e-12


------------------------------ INTEGRAL EVALUATION ----------------------------


 * One electron integrals 
 Pre-screening matrix                    ... done
 Shell pair data                         ... done (   0.015 sec)



           ************************************************************
           *        Program running with 32 parallel MPI-processes    *
           *              working on a common directory               *
           ************************************************************
-------------------------------------------------------------------------------
                                 ORCA SCF
-------------------------------------------------------------------------------

------------
SCF SETTINGS
------------
Hamiltonian:
 Ab initio Hamiltonian  Method          .... Hartree-Fock(GTOs)


General Settings:
 Integral files         IntName         .... _o_1_alde1_3_ami4_1_opt_MP2
 Hartree-Fock type      HFTyp           .... RHF
 Total Charge           Charge          ....    0
 Multiplicity           Mult            ....    1
 Number of Electrons    NEL             ....  156
 Basis Dimension        Dim             ....  966
 Nuclear Repulsion      ENuc            ....   1703.5224757816 Eh

Convergence Acceleration:
 DIIS                   CNVDIIS         .... on
   Start iteration      DIISMaxIt       ....     0
   Startup error        DIISStart       ....  0.200000
   # of expansion vecs  DIISMaxEq       ....     5
   Bias factor          DIISBfac        ....   1.050
   Max. coefficient     DIISMaxC        ....  10.000
 Newton-Raphson         CNVNR           .... off
 SOSCF                  CNVSOSCF        .... on
   Start iteration      SOSCFMaxIt      ....   150
   Startup grad/error   SOSCFStart      ....  0.001000
 Level Shifting         CNVShift        .... on
   Level shift para.    LevelShift      ....    0.2500
   Turn off err/grad.   ShiftErr        ....    0.0000
 Zerner damping         CNVZerner       .... off
 Static damping         CNVDamp         .... on
   Fraction old density DampFac         ....    0.8500
   Max. Damping (<1)    DampMax         ....    0.9800
   Min. Damping (>=0)   DampMin         ....    0.0000
   Turn off err/grad.   DampErr         ....    0.0300
 Fernandez-Rico         CNVRico         .... off

SCF Procedure:
 Maximum # iterations   MaxIter         ....   125
 SCF integral mode      SCFMode         .... Direct
   Integral package                     .... LIBINT
 Reset frequency        DirectResetFreq ....    20
 Integral Threshold     Thresh          ....  2.500e-11 Eh
 Primitive CutOff       TCut            ....  2.500e-12 Eh

Convergence Tolerance:
 Convergence Check Mode ConvCheckMode   .... Total+1el-Energy
 Convergence forced     ConvForced      .... 1
 Energy Change          TolE            ....  1.000e-08 Eh
 1-El. energy change                    ....  1.000e-05 Eh
 Orbital Gradient       TolG            ....  1.000e-05
 Orbital Rotation angle TolX            ....  1.000e-05
 DIIS Error             TolErr          ....  5.000e-07


Diagonalization of the overlap matrix:
Smallest eigenvalue                        ... 2.274e-05
Time for diagonalization                   ...    5.234 sec
Threshold for overlap eigenvalues          ... 1.000e-08
Number of eigenvalues below threshold      ... 0
Time for construction of square roots      ...    0.227 sec
Total time needed                          ...    5.463 sec

-------------------
DFT GRID GENERATION
-------------------

General Integration Accuracy     IntAcc      ...  5.340
Radial Grid Type                 RadialGrid  ... Gauss-Chebyshev
Angular Grid (max. acc.)         AngularGrid ... Lebedev-590
Angular grid pruning method      GridPruning ... 3 (G Style)
Weight generation scheme         WeightScheme... Becke
Basis function cutoff            BFCut       ...    1.0000e-11
Integration weight cutoff        WCut        ...    1.0000e-14
Grids for H and He will be reduced by one unit

# of grid points (after initial pruning)     ... 609960 (   0.0 sec)
# of grid points (after weights+screening)   ... 523978 (   0.3 sec)
nearest neighbour list constructed           ...    0.0 sec
Grid point re-assignment to atoms done       ...    0.1 sec
Grid point division into batches done        ...    5.3 sec
Reduced shell lists constructed in    5.6 sec

Total number of grid points                  ...   523978
Total number of batches                      ...     8209
Average number of points per batch           ...       63
Average number of grid points per atom       ...    11644
Average number of shells per batch           ...   182.26 (51.49%)
Average number of basis functions per batch  ...   452.62 (46.85%)
Average number of large shells per batch     ...   116.38 (63.85%)
Average number of large basis fcns per batch ...   301.23 (66.55%)
Maximum spatial batch extension              ...   5.30, 18.59, 11.92 au
Average spatial batch extension              ...   0.03,  0.03,  0.03 au

Time for grid setup =    6.111 sec

------------------------------
INITIAL GUESS: MODEL POTENTIAL
------------------------------
Loading Hartree-Fock densities                     ... done
Calculating cut-offs                               ... done
Setting up the integral package                    ... done
Initializing the effective Hamiltonian             ... done
Starting the Coulomb interaction                   ... done (   0.1 sec)
Reading the grid                                   ... done
Mapping shells                                     ... done
Starting the XC term evaluation                    ... done (   0.3 sec)
Transforming the Hamiltonian                       ... done (   0.4 sec)
Diagonalizing the Hamiltonian                      ... done (   0.4 sec)
Back transforming the eigenvectors                 ... done (   0.0 sec)
Now organizing SCF variables                       ... done
                      ------------------
                      INITIAL GUESS DONE (   7.5 sec)
                      ------------------
--------------
SCF ITERATIONS
--------------
ITER       Energy         Delta-E        Max-DP      RMS-DP      [F,P]     Damp
               ***  Starting incremental Fock matrix formation  ***
  0   -907.9993852314   0.000000000000 0.03175303  0.00026888  0.2561872 0.8500
  1   -908.1678311107  -0.168445879301 0.04049955  0.00030028  0.2096722 0.8500
                               ***Turning on DIIS***
  2   -908.3021538442  -0.134322733455 0.03316906  0.00025314  0.1665818 0.8500
  3   -911.7163959852  -3.414242140978 0.01702229  0.00016910  0.1320151 0.8500
  4   -913.1041421635  -1.387746178324 0.00820806  0.00011800  0.1084776 0.8500
  5   -913.0444945829   0.059647580617 0.00706896  0.00009312  0.0917051 0.8500
  6   -912.6213446244   0.423149958454 0.00606061  0.00007826  0.0783591 0.8500
  7   -911.9513084119   0.670036212508 0.00518175  0.00006772  0.0671247 0.8500
  8   -911.4229367288   0.528371683098 0.00441690  0.00005854  0.0572212 0.8500
  9   -911.0261739181   0.396762810683 0.00375825  0.00005028  0.0486200 0.8500
 10   -910.7086587313   0.317515186794 0.00319617  0.00004303  0.0412852 0.8500
 11   -910.4418100981   0.266848633230 0.00271835  0.00003680  0.0350695 0.8500
 12   -910.2129521925   0.228857905599 0.01541700  0.00020992  0.0297983 0.0000
                      *** Initiating the SOSCF procedure ***
                           *** Shutting down DIIS ***
                      *** Re-Reading the Fockian *** 
                      *** Removing any level shift *** 
ITER      Energy       Delta-E        Grad      Rot      Max-DP    RMS-DP
 13   -908.93901079   1.2739414037  0.000278  0.000278  0.002430  0.000014
               *** Restarting incremental Fock matrix formation ***
 14   -908.94149708  -0.0024862951  0.000115  0.000156  0.001252  0.000008
 15   -908.94150160  -0.0000045159  0.000047  0.000114  0.001190  0.000007
 16   -908.94150237  -0.0000007727  0.000023  0.000040  0.000165  0.000001
 17   -908.94150245  -0.0000000755  0.000010  0.000021  0.000011  0.000000
 18   -908.94150245  -0.0000000031  0.000009  0.000029  0.000022  0.000000
                  ***Gradient check signals convergence***
              ***Rediagonalizing the Fockian in SOSCF/NRSCF***

               *****************************************************
               *                     SUCCESS                       *
               *           SCF CONVERGED AFTER  19 CYCLES          *
               *****************************************************


----------------
TOTAL SCF ENERGY
----------------

Total Energy       :         -908.94150243 Eh          -24733.55571 eV

Components:
Nuclear Repulsion  :         1703.52247578 Eh           46355.20322 eV
Electronic Energy  :        -2612.46397821 Eh          -71088.75893 eV
One Electron Energy:        -4622.65955146 Eh         -125788.96138 eV
Two Electron Energy:         2010.19557325 Eh           54700.20245 eV

Virial components:
Potential Energy   :        -1816.92101515 Eh          -49440.93435 eV
Kinetic Energy     :          907.97951272 Eh           24707.37864 eV
Virial Ratio       :            2.00105948


---------------
SCF CONVERGENCE
---------------

  Last Energy change         ...    1.9681e-08  Tolerance :   1.0000e-08
  Last MAX-Density change    ...    8.7885e-06  Tolerance :   1.0000e-07
  Last RMS-Density change    ...    6.6332e-08  Tolerance :   5.0000e-09
  Last Orbital Gradient      ...    1.9712e-06  Tolerance :   1.0000e-05
  Last Orbital Rotation      ...    1.0659e-05  Tolerance :   1.0000e-05

             **** THE GBW FILE WAS UPDATED (_o_1_alde1_3_ami4_1_opt_MP2.gbw) ****
             **** DENSITY FILE WAS UPDATED (_o_1_alde1_3_ami4_1_opt_MP2.scfp) ****
             **** ENERGY FILE WAS UPDATED (_o_1_alde1_3_ami4_1_opt_MP2.en.tmp) ****
             **** THE GBW FILE WAS UPDATED (_o_1_alde1_3_ami4_1_opt_MP2.gbw) ****
             **** DENSITY FILE WAS UPDATED (_o_1_alde1_3_ami4_1_opt_MP2.scfp) ****
----------------
ORBITAL ENERGIES
----------------

  NO   OCC          E(Eh)            E(eV) 
   0   2.0000     -15.537904      -422.8079 
   1   2.0000     -15.537177      -422.7881 
   2   2.0000     -15.536947      -422.7818 
   3   2.0000     -15.534357      -422.7114 
   4   2.0000     -15.533236      -422.6809 
   5   2.0000     -15.532984      -422.6740 
   6   2.0000     -11.278000      -306.8900 
   7   2.0000     -11.277027      -306.8635 
   8   2.0000     -11.275841      -306.8312 
   9   2.0000     -11.244176      -305.9696 
  10   2.0000     -11.243606      -305.9541 
  11   2.0000     -11.243366      -305.9476 
  12   2.0000     -11.243314      -305.9461 
  13   2.0000     -11.242547      -305.9253 
  14   2.0000     -11.242319      -305.9190 
  15   2.0000     -11.223940      -305.4189 
  16   2.0000     -11.223041      -305.3945 
  17   2.0000     -11.221602      -305.3553 
  18   2.0000     -11.219466      -305.2972 
  19   2.0000     -11.214453      -305.1608 
  20   2.0000     -11.210929      -305.0649 
  21   2.0000      -1.266525       -34.4639 
  22   2.0000      -1.264958       -34.4213 
  23   2.0000      -1.264251       -34.4020 
  24   2.0000      -1.147236       -31.2179 
  25   2.0000      -1.131411       -30.7873 
  26   2.0000      -1.130448       -30.7611 
  27   2.0000      -1.130409       -30.7600 
  28   2.0000      -1.045700       -28.4549 
  29   2.0000      -1.045470       -28.4487 
  30   2.0000      -0.990121       -26.9426 
  31   2.0000      -0.966945       -26.3119 
  32   2.0000      -0.962609       -26.1939 
  33   2.0000      -0.865830       -23.5604 
  34   2.0000      -0.852034       -23.1850 
  35   2.0000      -0.837801       -22.7977 
  36   2.0000      -0.818055       -22.2604 
  37   2.0000      -0.817664       -22.2498 
  38   2.0000      -0.816227       -22.2107 
  39   2.0000      -0.780774       -21.2459 
  40   2.0000      -0.764367       -20.7995 
  41   2.0000      -0.708782       -19.2869 
  42   2.0000      -0.695306       -18.9202 
  43   2.0000      -0.683301       -18.5936 
  44   2.0000      -0.679273       -18.4840 
  45   2.0000      -0.662070       -18.0158 
  46   2.0000      -0.657966       -17.9042 
  47   2.0000      -0.654066       -17.7981 
  48   2.0000      -0.630038       -17.1442 
  49   2.0000      -0.597940       -16.2708 
  50   2.0000      -0.595676       -16.2092 
  51   2.0000      -0.582684       -15.8556 
  52   2.0000      -0.578972       -15.7546 
  53   2.0000      -0.575764       -15.6673 
  54   2.0000      -0.570309       -15.5189 
  55   2.0000      -0.544359       -14.8128 
  56   2.0000      -0.539675       -14.6853 
  57   2.0000      -0.538702       -14.6588 
  58   2.0000      -0.536720       -14.6049 
  59   2.0000      -0.536425       -14.5969 
  60   2.0000      -0.524465       -14.2714 
  61   2.0000      -0.521199       -14.1825 
  62   2.0000      -0.519864       -14.1462 
  63   2.0000      -0.518594       -14.1117 
  64   2.0000      -0.490931       -13.3589 
  65   2.0000      -0.489837       -13.3291 
  66   2.0000      -0.489396       -13.3171 
  67   2.0000      -0.472100       -12.8465 
  68   2.0000      -0.467199       -12.7131 
  69   2.0000      -0.464037       -12.6271 
  70   2.0000      -0.387460       -10.5433 
  71   2.0000      -0.386538       -10.5182 
  72   2.0000      -0.385859       -10.4998 
  73   2.0000      -0.369153       -10.0452 
  74   2.0000      -0.366724        -9.9791 
  75   2.0000      -0.364924        -9.9301 
  76   2.0000      -0.318998        -8.6804 
  77   2.0000      -0.313905        -8.5418 
  78   0.0000       0.132158         3.5962 
  79   0.0000       0.134216         3.6522 
  80   0.0000       0.135573         3.6891 
  81   0.0000       0.142031         3.8648 
  82   0.0000       0.143071         3.8932 
  83   0.0000       0.158380         4.3097 
  84   0.0000       0.158962         4.3256 
  85   0.0000       0.163284         4.4432 
  86   0.0000       0.175100         4.7647 
  87   0.0000       0.180034         4.8990 
  88   0.0000       0.181709         4.9446 
  89   0.0000       0.190308         5.1786 
  90   0.0000       0.194805         5.3009 
  91   0.0000       0.198774         5.4089 
  92   0.0000       0.200762         5.4630 
  93   0.0000       0.213180         5.8009 
  94   0.0000       0.216632         5.8949 
  95   0.0000       0.220164         5.9910 
  96   0.0000       0.223565         6.0835 
  97   0.0000       0.226885         6.1739 
  98   0.0000       0.239429         6.5152 
  99   0.0000       0.249124         6.7790 
 100   0.0000       0.260839         7.0978 
 101   0.0000       0.272722         7.4212 
 102   0.0000       0.297041         8.0829 
 103   0.0000       0.297871         8.1055 
 104   0.0000       0.301926         8.2158 
 105   0.0000       0.304656         8.2901 
 106   0.0000       0.307426         8.3655 
 107   0.0000       0.312574         8.5056 
 108   0.0000       0.327313         8.9066 
 109   0.0000       0.333253         9.0683 
 110   0.0000       0.339837         9.2474 
 111   0.0000       0.345474         9.4008 
 112   0.0000       0.350553         9.5390 
 113   0.0000       0.361827         9.8458 
 114   0.0000       0.366730         9.9792 
 115   0.0000       0.369198        10.0464 
 116   0.0000       0.382582        10.4106 
 117   0.0000       0.393396        10.7048 
 118   0.0000       0.394113        10.7244 
 119   0.0000       0.396774        10.7968 
 120   0.0000       0.398292        10.8381 
 121   0.0000       0.403497        10.9797 
 122   0.0000       0.405835        11.0433 
 123   0.0000       0.417332        11.3562 
 124   0.0000       0.423520        11.5246 
 125   0.0000       0.430751        11.7213 
 126   0.0000       0.442433        12.0392 
 127   0.0000       0.453873        12.3505 
 128   0.0000       0.458603        12.4792 
 129   0.0000       0.470080        12.7915 
 130   0.0000       0.472628        12.8609 
 131   0.0000       0.480930        13.0868 
 132   0.0000       0.485177        13.2023 
 133   0.0000       0.489372        13.3165 
 134   0.0000       0.501296        13.6410 
 135   0.0000       0.513192        13.9647 
 136   0.0000       0.516835        14.0638 
 137   0.0000       0.525030        14.2868 
 138   0.0000       0.527860        14.3638 
 139   0.0000       0.536390        14.5959 
 140   0.0000       0.539198        14.6723 
 141   0.0000       0.545647        14.8478 
 142   0.0000       0.548607        14.9284 
 143   0.0000       0.555918        15.1273 
 144   0.0000       0.559313        15.2197 
 145   0.0000       0.561146        15.2695 
 146   0.0000       0.565757        15.3950 
 147   0.0000       0.570131        15.5141 
 148   0.0000       0.576679        15.6922 
 149   0.0000       0.579443        15.7675 
 150   0.0000       0.581565        15.8252 
 151   0.0000       0.582217        15.8429 
 152   0.0000       0.589054        16.0290 
 153   0.0000       0.592191        16.1143 
 154   0.0000       0.595354        16.2004 
 155   0.0000       0.597097        16.2478 
 156   0.0000       0.600669        16.3450 
 157   0.0000       0.602757        16.4019 
 158   0.0000       0.603911        16.4332 
 159   0.0000       0.605918        16.4879 
 160   0.0000       0.616451        16.7745 
 161   0.0000       0.622229        16.9317 
 162   0.0000       0.622503        16.9392 
 163   0.0000       0.627059        17.0631 
 164   0.0000       0.630420        17.1546 
 165   0.0000       0.638029        17.3617 
 166   0.0000       0.642020        17.4703 
 167   0.0000       0.644810        17.5462 
 168   0.0000       0.645736        17.5714 
 169   0.0000       0.646938        17.6041 
 170   0.0000       0.651147        17.7186 
 171   0.0000       0.654646        17.8138 
 172   0.0000       0.660287        17.9673 
 173   0.0000       0.661182        17.9917 
 174   0.0000       0.668603        18.1936 
 175   0.0000       0.673494        18.3267 
 176   0.0000       0.680283        18.5114 
 177   0.0000       0.684220        18.6186 
 178   0.0000       0.688502        18.7351 
 179   0.0000       0.689935        18.7741 
 180   0.0000       0.695170        18.9165 
 181   0.0000       0.705675        19.2024 
 182   0.0000       0.706012        19.2116 
 183   0.0000       0.711780        19.3685 
 184   0.0000       0.717308        19.5189 
 185   0.0000       0.719790        19.5865 
 186   0.0000       0.725539        19.7429 
 187   0.0000       0.732770        19.9397 
 188   0.0000       0.733790        19.9674 
 189   0.0000       0.743161        20.2224 
 190   0.0000       0.751429        20.4474 
 191   0.0000       0.756776        20.5929 
 192   0.0000       0.760440        20.6926 
 193   0.0000       0.761490        20.7212 
 194   0.0000       0.764442        20.8015 
 195   0.0000       0.769020        20.9261 
 196   0.0000       0.779578        21.2134 
 197   0.0000       0.784943        21.3594 
 198   0.0000       0.800815        21.7913 
 199   0.0000       0.809093        22.0165 
 200   0.0000       0.814693        22.1689 
 201   0.0000       0.819667        22.3043 
 202   0.0000       0.824115        22.4253 
 203   0.0000       0.827796        22.5255 
 204   0.0000       0.834332        22.7033 
 205   0.0000       0.841737        22.9048 
 206   0.0000       0.842726        22.9317 
 207   0.0000       0.847956        23.0740 
 208   0.0000       0.854312        23.2470 
 209   0.0000       0.861080        23.4312 
 210   0.0000       0.869273        23.6541 
 211   0.0000       0.877166        23.8689 
 212   0.0000       0.882968        24.0268 
 213   0.0000       0.887451        24.1488 
 214   0.0000       0.912068        24.8186 
 215   0.0000       0.923020        25.1167 
 216   0.0000       0.926672        25.2160 
 217   0.0000       0.944161        25.6919 
 218   0.0000       0.948082        25.7986 
 219   0.0000       0.955409        25.9980 
 220   0.0000       0.959574        26.1113 
 221   0.0000       0.970751        26.4155 
 222   0.0000       0.985378        26.8135 
 223   0.0000       0.990298        26.9474 
 224   0.0000       0.993862        27.0444 
 225   0.0000       1.003022        27.2936 
 226   0.0000       1.005775        27.3685 
 227   0.0000       1.015075        27.6216 
 228   0.0000       1.019384        27.7388 
 229   0.0000       1.025981        27.9184 
 230   0.0000       1.031175        28.0597 
 231   0.0000       1.035039        28.1648 
 232   0.0000       1.041478        28.3401 
 233   0.0000       1.047219        28.4963 
 234   0.0000       1.053928        28.6788 
 235   0.0000       1.070557        29.1313 
 236   0.0000       1.084136        29.5008 
 237   0.0000       1.087021        29.5794 
 238   0.0000       1.096927        29.8489 
 239   0.0000       1.104958        30.0674 
 240   0.0000       1.115016        30.3411 
 241   0.0000       1.116573        30.3835 
 242   0.0000       1.127458        30.6797 
 243   0.0000       1.134828        30.8802 
 244   0.0000       1.136898        30.9366 
 245   0.0000       1.142195        31.0807 
 246   0.0000       1.151277        31.3278 
 247   0.0000       1.155057        31.4307 
 248   0.0000       1.158621        31.5277 
 249   0.0000       1.161975        31.6190 
 250   0.0000       1.163396        31.6576 
 251   0.0000       1.170421        31.8488 
 252   0.0000       1.175706        31.9926 
 253   0.0000       1.181657        32.1545 
 254   0.0000       1.183045        32.1923 
 255   0.0000       1.184660        32.2362 
 256   0.0000       1.191799        32.4305 
 257   0.0000       1.193818        32.4854 
 258   0.0000       1.198377        32.6095 
 259   0.0000       1.203612        32.7519 
 260   0.0000       1.205463        32.8023 
 261   0.0000       1.211951        32.9789 
 262   0.0000       1.218215        33.1493 
 263   0.0000       1.224342        33.3160 
 264   0.0000       1.232539        33.5391 
 265   0.0000       1.241353        33.7789 
 266   0.0000       1.242894        33.8209 
 267   0.0000       1.252665        34.0867 
 268   0.0000       1.254978        34.1497 
 269   0.0000       1.256535        34.1921 
 270   0.0000       1.265091        34.4249 
 271   0.0000       1.266718        34.4692 
 272   0.0000       1.269428        34.5429 
 273   0.0000       1.283829        34.9348 
 274   0.0000       1.295441        35.2508 
 275   0.0000       1.299151        35.3517 
 276   0.0000       1.300172        35.3795 
 277   0.0000       1.307180        35.5702 
 278   0.0000       1.314773        35.7768 
 279   0.0000       1.321086        35.9486 
 280   0.0000       1.324657        36.0457 
 281   0.0000       1.326038        36.0833 
 282   0.0000       1.327597        36.1258 
 283   0.0000       1.337666        36.3998 
 284   0.0000       1.339361        36.4459 
 285   0.0000       1.351578        36.7783 
 286   0.0000       1.356281        36.9063 
 287   0.0000       1.359387        36.9908 
 288   0.0000       1.362355        37.0716 
 289   0.0000       1.365725        37.1633 
 290   0.0000       1.367575        37.2136 
 291   0.0000       1.373580        37.3770 
 292   0.0000       1.379624        37.5415 
 293   0.0000       1.391648        37.8687 
 294   0.0000       1.395393        37.9706 
 295   0.0000       1.407331        38.2954 
 296   0.0000       1.410548        38.3830 
 297   0.0000       1.418170        38.5904 
 298   0.0000       1.424373        38.7592 
 299   0.0000       1.429899        38.9095 
 300   0.0000       1.435975        39.0749 
 301   0.0000       1.444599        39.3095 
 302   0.0000       1.454307        39.5737 
 303   0.0000       1.461582        39.7717 
 304   0.0000       1.464572        39.8530 
 305   0.0000       1.481043        40.3012 
 306   0.0000       1.483699        40.3735 
 307   0.0000       1.495323        40.6898 
 308   0.0000       1.500781        40.8383 
 309   0.0000       1.504386        40.9364 
 310   0.0000       1.508916        41.0597 
 311   0.0000       1.513130        41.1744 
 312   0.0000       1.516151        41.2566 
 313   0.0000       1.523681        41.4615 
 314   0.0000       1.535814        41.7916 
 315   0.0000       1.537398        41.8347 
 316   0.0000       1.538797        41.8728 
 317   0.0000       1.548216        42.1291 
 318   0.0000       1.551542        42.2196 
 319   0.0000       1.553859        42.2827 
 320   0.0000       1.556689        42.3597 
 321   0.0000       1.562214        42.5100 
 322   0.0000       1.567420        42.6517 
 323   0.0000       1.573534        42.8180 
 324   0.0000       1.577534        42.9269 
 325   0.0000       1.583105        43.0785 
 326   0.0000       1.592721        43.3402 
 327   0.0000       1.603404        43.6308 
 328   0.0000       1.611450        43.8498 
 329   0.0000       1.615343        43.9557 
 330   0.0000       1.617091        44.0033 
 331   0.0000       1.622657        44.1547 
 332   0.0000       1.627249        44.2797 
 333   0.0000       1.630460        44.3671 
 334   0.0000       1.633684        44.4548 
 335   0.0000       1.641974        44.6804 
 336   0.0000       1.648057        44.8459 
 337   0.0000       1.651900        44.9505 
 338   0.0000       1.667660        45.3793 
 339   0.0000       1.671617        45.4870 
 340   0.0000       1.674635        45.5691 
 341   0.0000       1.684023        45.8246 
 342   0.0000       1.688657        45.9507 
 343   0.0000       1.697325        46.1866 
 344   0.0000       1.700911        46.2841 
 345   0.0000       1.710329        46.5404 
 346   0.0000       1.723252        46.8921 
 347   0.0000       1.727832        47.0167 
 348   0.0000       1.748273        47.5729 
 349   0.0000       1.754445        47.7409 
 350   0.0000       1.758719        47.8572 
 351   0.0000       1.762267        47.9537 
 352   0.0000       1.763347        47.9831 
 353   0.0000       1.771211        48.1971 
 354   0.0000       1.774682        48.2915 
 355   0.0000       1.777378        48.3649 
 356   0.0000       1.785914        48.5972 
 357   0.0000       1.793239        48.7965 
 358   0.0000       1.802168        49.0395 
 359   0.0000       1.803433        49.0739 
 360   0.0000       1.817372        49.4532 
 361   0.0000       1.819400        49.5084 
 362   0.0000       1.821869        49.5756 
 363   0.0000       1.835381        49.9432 
 364   0.0000       1.837639        50.0047 
 365   0.0000       1.846650        50.2499 
 366   0.0000       1.855880        50.5011 
 367   0.0000       1.872031        50.9406 
 368   0.0000       1.884678        51.2847 
 369   0.0000       1.888924        51.4002 
 370   0.0000       1.901960        51.7550 
 371   0.0000       1.914490        52.0959 
 372   0.0000       1.929846        52.5138 
 373   0.0000       1.937222        52.7145 
 374   0.0000       1.945326        52.9350 
 375   0.0000       1.971578        53.6494 
 376   0.0000       1.974409        53.7264 
 377   0.0000       1.985323        54.0234 
 378   0.0000       1.991448        54.1901 
 379   0.0000       1.998206        54.3740 
 380   0.0000       2.004052        54.5330 
 381   0.0000       2.015544        54.8458 
 382   0.0000       2.024277        55.0834 
 383   0.0000       2.025842        55.1260 
 384   0.0000       2.031949        55.2921 
 385   0.0000       2.052988        55.8646 
 386   0.0000       2.073260        56.4163 
 387   0.0000       2.075978        56.4902 
 388   0.0000       2.086042        56.7641 
 389   0.0000       2.088818        56.8396 
 390   0.0000       2.091394        56.9097 
 391   0.0000       2.100336        57.1530 
 392   0.0000       2.106251        57.3140 
 393   0.0000       2.119597        57.6772 
 394   0.0000       2.136735        58.1435 
 395   0.0000       2.141303        58.2678 
 396   0.0000       2.154726        58.6331 
 397   0.0000       2.166109        58.9428 
 398   0.0000       2.172685        59.1218 
 399   0.0000       2.193353        59.6842 
 400   0.0000       2.225236        60.5518 
 401   0.0000       2.234100        60.7930 
 402   0.0000       2.253226        61.3134 
 403   0.0000       2.257400        61.4270 
 404   0.0000       2.275523        61.9201 
 405   0.0000       2.286990        62.2322 
 406   0.0000       2.293515        62.4097 
 407   0.0000       2.301059        62.6150 
 408   0.0000       2.318757        63.0966 
 409   0.0000       2.348992        63.9193 
 410   0.0000       2.371787        64.5396 
 411   0.0000       2.448738        66.6335 
 412   0.0000       2.473272        67.3012 
 413   0.0000       2.505040        68.1656 
 414   0.0000       2.542322        69.1801 
 415   0.0000       2.600777        70.7707 
 416   0.0000       2.611833        71.0716 
 417   0.0000       2.623465        71.3881 
 418   0.0000       2.628708        71.5308 
 419   0.0000       2.650363        72.1200 
 420   0.0000       2.669273        72.6346 
 421   0.0000       2.677985        72.8717 
 422   0.0000       2.687454        73.1293 
 423   0.0000       2.693535        73.2948 
 424   0.0000       2.702610        73.5418 
 425   0.0000       2.708879        73.7123 
 426   0.0000       2.718592        73.9767 
 427   0.0000       2.725544        74.1658 
 428   0.0000       2.730444        74.2992 
 429   0.0000       2.751260        74.8656 
 430   0.0000       2.755425        74.9789 
 431   0.0000       2.761760        75.1513 
 432   0.0000       2.782765        75.7229 
 433   0.0000       2.794333        76.0377 
 434   0.0000       2.803897        76.2979 
 435   0.0000       2.805155        76.3321 
 436   0.0000       2.814585        76.5887 
 437   0.0000       2.830656        77.0261 
 438   0.0000       2.836770        77.1924 
 439   0.0000       2.845008        77.4166 
 440   0.0000       2.850954        77.5784 
 441   0.0000       2.856524        77.7300 
 442   0.0000       2.864472        77.9462 
 443   0.0000       2.872194        78.1564 
 444   0.0000       2.874564        78.2209 
 445   0.0000       2.879150        78.3457 
 446   0.0000       2.885786        78.5262 
 447   0.0000       2.888971        78.6129 
 448   0.0000       2.893976        78.7491 
 449   0.0000       2.904534        79.0364 
 450   0.0000       2.914597        79.3102 
 451   0.0000       2.920807        79.4792 
 452   0.0000       2.925383        79.6037 
 453   0.0000       2.932364        79.7937 
 454   0.0000       2.937659        79.9378 
 455   0.0000       2.940829        80.0240 
 456   0.0000       2.946039        80.1658 
 457   0.0000       2.954000        80.3824 
 458   0.0000       2.962471        80.6129 
 459   0.0000       2.970549        80.8328 
 460   0.0000       2.974900        80.9511 
 461   0.0000       2.981699        81.1362 
 462   0.0000       2.987526        81.2947 
 463   0.0000       2.999398        81.6178 
 464   0.0000       3.007519        81.8388 
 465   0.0000       3.019857        82.1745 
 466   0.0000       3.027397        82.3797 
 467   0.0000       3.029675        82.4416 
 468   0.0000       3.036128        82.6172 
 469   0.0000       3.044914        82.8563 
 470   0.0000       3.053853        83.0996 
 471   0.0000       3.062272        83.3287 
 472   0.0000       3.071948        83.5920 
 473   0.0000       3.088469        84.0415 
 474   0.0000       3.092967        84.1639 
 475   0.0000       3.100617        84.3721 
 476   0.0000       3.108816        84.5952 
 477   0.0000       3.114625        84.7533 
 478   0.0000       3.118905        84.8697 
 479   0.0000       3.123590        84.9972 
 480   0.0000       3.131250        85.2056 
 481   0.0000       3.133827        85.2758 
 482   0.0000       3.138624        85.4063 
 483   0.0000       3.143917        85.5503 
 484   0.0000       3.149325        85.6975 
 485   0.0000       3.154392        85.8354 
 486   0.0000       3.160327        85.9969 
 487   0.0000       3.177621        86.4675 
 488   0.0000       3.181480        86.5725 
 489   0.0000       3.186778        86.7166 
 490   0.0000       3.191528        86.8459 
 491   0.0000       3.203502        87.1717 
 492   0.0000       3.211023        87.3764 
 493   0.0000       3.213659        87.4481 
 494   0.0000       3.221128        87.6513 
 495   0.0000       3.234908        88.0263 
 496   0.0000       3.241949        88.2179 
 497   0.0000       3.243893        88.2708 
 498   0.0000       3.252070        88.4933 
 499   0.0000       3.256630        88.6174 
 500   0.0000       3.260742        88.7293 
 501   0.0000       3.269460        88.9665 
 502   0.0000       3.272167        89.0402 
 503   0.0000       3.275624        89.1343 
 504   0.0000       3.278604        89.2154 
 505   0.0000       3.282299        89.3159 
 506   0.0000       3.286544        89.4314 
 507   0.0000       3.290368        89.5355 
 508   0.0000       3.294811        89.6564 
 509   0.0000       3.298681        89.7617 
 510   0.0000       3.300229        89.8038 
 511   0.0000       3.306386        89.9713 
 512   0.0000       3.310215        90.0755 
 513   0.0000       3.311399        90.1077 
 514   0.0000       3.315572        90.2213 
 515   0.0000       3.326581        90.5209 
 516   0.0000       3.331713        90.6605 
 517   0.0000       3.335167        90.7545 
 518   0.0000       3.338894        90.8559 
 519   0.0000       3.348771        91.1247 
 520   0.0000       3.355904        91.3188 
 521   0.0000       3.356602        91.3378 
 522   0.0000       3.359973        91.4295 
 523   0.0000       3.369766        91.6960 
 524   0.0000       3.372800        91.7786 
 525   0.0000       3.377772        91.9138 
 526   0.0000       3.379106        91.9501 
 527   0.0000       3.388021        92.1927 
 528   0.0000       3.394338        92.3646 
 529   0.0000       3.399909        92.5162 
 530   0.0000       3.403919        92.6253 
 531   0.0000       3.407247        92.7159 
 532   0.0000       3.409685        92.7822 
 533   0.0000       3.415171        92.9315 
 534   0.0000       3.428028        93.2814 
 535   0.0000       3.432942        93.4151 
 536   0.0000       3.436845        93.5213 
 537   0.0000       3.442902        93.6861 
 538   0.0000       3.449652        93.8698 
 539   0.0000       3.453159        93.9652 
 540   0.0000       3.459119        94.1274 
 541   0.0000       3.462507        94.2196 
 542   0.0000       3.466763        94.3354 
 543   0.0000       3.471049        94.4520 
 544   0.0000       3.478285        94.6490 
 545   0.0000       3.480659        94.7136 
 546   0.0000       3.493819        95.0717 
 547   0.0000       3.499449        95.2249 
 548   0.0000       3.502022        95.2949 
 549   0.0000       3.515650        95.6657 
 550   0.0000       3.518230        95.7359 
 551   0.0000       3.521873        95.8350 
 552   0.0000       3.526746        95.9676 
 553   0.0000       3.527625        95.9916 
 554   0.0000       3.533624        96.1548 
 555   0.0000       3.539710        96.3204 
 556   0.0000       3.544919        96.4622 
 557   0.0000       3.548158        96.5503 
 558   0.0000       3.558293        96.8261 
 559   0.0000       3.563184        96.9592 
 560   0.0000       3.566254        97.0427 
 561   0.0000       3.573488        97.2396 
 562   0.0000       3.575992        97.3077 
 563   0.0000       3.587066        97.6090 
 564   0.0000       3.596255        97.8591 
 565   0.0000       3.610006        98.2332 
 566   0.0000       3.617522        98.4378 
 567   0.0000       3.621238        98.5389 
 568   0.0000       3.624782        98.6353 
 569   0.0000       3.632945        98.8574 
 570   0.0000       3.642070        99.1058 
 571   0.0000       3.648178        99.2720 
 572   0.0000       3.653725        99.4229 
 573   0.0000       3.660698        99.6126 
 574   0.0000       3.668620        99.8282 
 575   0.0000       3.674485        99.9878 
 576   0.0000       3.678323       100.0923 
 577   0.0000       3.685944       100.2996 
 578   0.0000       3.690126       100.4134 
 579   0.0000       3.691009       100.4375 
 580   0.0000       3.695252       100.5529 
 581   0.0000       3.703814       100.7859 
 582   0.0000       3.706049       100.8467 
 583   0.0000       3.707517       100.8867 
 584   0.0000       3.714378       101.0734 
 585   0.0000       3.720516       101.2404 
 586   0.0000       3.722633       101.2980 
 587   0.0000       3.728247       101.4508 
 588   0.0000       3.733809       101.6021 
 589   0.0000       3.746452       101.9461 
 590   0.0000       3.749958       102.0416 
 591   0.0000       3.752042       102.0983 
 592   0.0000       3.757862       102.2566 
 593   0.0000       3.768602       102.5489 
 594   0.0000       3.770161       102.5913 
 595   0.0000       3.776233       102.7565 
 596   0.0000       3.777294       102.7854 
 597   0.0000       3.780539       102.8737 
 598   0.0000       3.789444       103.1160 
 599   0.0000       3.802845       103.4807 
 600   0.0000       3.804191       103.5173 
 601   0.0000       3.808482       103.6341 
 602   0.0000       3.813365       103.7669 
 603   0.0000       3.819441       103.9323 
 604   0.0000       3.826196       104.1161 
 605   0.0000       3.835612       104.3723 
 606   0.0000       3.837670       104.4283 
 607   0.0000       3.844565       104.6159 
 608   0.0000       3.846285       104.6627 
 609   0.0000       3.850761       104.7845 
 610   0.0000       3.852593       104.8344 
 611   0.0000       3.862760       105.1111 
 612   0.0000       3.865589       105.1880 
 613   0.0000       3.870704       105.3272 
 614   0.0000       3.881464       105.6200 
 615   0.0000       3.882743       105.6548 
 616   0.0000       3.888528       105.8122 
 617   0.0000       3.890719       105.8719 
 618   0.0000       3.896994       106.0426 
 619   0.0000       3.901239       106.1581 
 620   0.0000       3.910912       106.4213 
 621   0.0000       3.911910       106.4485 
 622   0.0000       3.925679       106.8231 
 623   0.0000       3.936980       107.1307 
 624   0.0000       3.942847       107.2903 
 625   0.0000       3.950355       107.4946 
 626   0.0000       3.954853       107.6170 
 627   0.0000       3.959605       107.7463 
 628   0.0000       3.963860       107.8621 
 629   0.0000       3.967610       107.9642 
 630   0.0000       3.977076       108.2217 
 631   0.0000       3.979755       108.2946 
 632   0.0000       3.981961       108.3547 
 633   0.0000       3.990761       108.5941 
 634   0.0000       4.000388       108.8561 
 635   0.0000       4.003804       108.9490 
 636   0.0000       4.009518       109.1045 
 637   0.0000       4.013545       109.2141 
 638   0.0000       4.019259       109.3696 
 639   0.0000       4.022341       109.4535 
 640   0.0000       4.024123       109.5020 
 641   0.0000       4.041025       109.9619 
 642   0.0000       4.045873       110.0938 
 643   0.0000       4.054248       110.3217 
 644   0.0000       4.060342       110.4875 
 645   0.0000       4.067107       110.6716 
 646   0.0000       4.075728       110.9062 
 647   0.0000       4.083708       111.1234 
 648   0.0000       4.088231       111.2464 
 649   0.0000       4.093392       111.3869 
 650   0.0000       4.099802       111.5613 
 651   0.0000       4.104687       111.6942 
 652   0.0000       4.106620       111.7468 
 653   0.0000       4.117992       112.0562 
 654   0.0000       4.133962       112.4908 
 655   0.0000       4.138141       112.6045 
 656   0.0000       4.147107       112.8485 
 657   0.0000       4.154475       113.0490 
 658   0.0000       4.159274       113.1796 
 659   0.0000       4.164015       113.3086 
 660   0.0000       4.171404       113.5097 
 661   0.0000       4.171746       113.5190 
 662   0.0000       4.173374       113.5633 
 663   0.0000       4.184300       113.8606 
 664   0.0000       4.191439       114.0549 
 665   0.0000       4.196504       114.1927 
 666   0.0000       4.203076       114.3715 
 667   0.0000       4.205887       114.4480 
 668   0.0000       4.215770       114.7169 
 669   0.0000       4.219275       114.8123 
 670   0.0000       4.220805       114.8539 
 671   0.0000       4.235161       115.2446 
 672   0.0000       4.239180       115.3539 
 673   0.0000       4.246105       115.5424 
 674   0.0000       4.251969       115.7020 
 675   0.0000       4.253492       115.7434 
 676   0.0000       4.257744       115.8591 
 677   0.0000       4.261958       115.9738 
 678   0.0000       4.269764       116.1862 
 679   0.0000       4.275836       116.3514 
 680   0.0000       4.284597       116.5898 
 681   0.0000       4.297516       116.9414 
 682   0.0000       4.304042       117.1189 
 683   0.0000       4.306540       117.1869 
 684   0.0000       4.311882       117.3323 
 685   0.0000       4.314496       117.4034 
 686   0.0000       4.318608       117.5153 
 687   0.0000       4.321100       117.5831 
 688   0.0000       4.325962       117.7154 
 689   0.0000       4.326242       117.7230 
 690   0.0000       4.331551       117.8675 
 691   0.0000       4.334228       117.9403 
 692   0.0000       4.344146       118.2102 
 693   0.0000       4.346367       118.2707 
 694   0.0000       4.352237       118.4304 
 695   0.0000       4.357164       118.5645 
 696   0.0000       4.360042       118.6428 
 697   0.0000       4.366131       118.8085 
 698   0.0000       4.369310       118.8950 
 699   0.0000       4.375935       119.0752 
 700   0.0000       4.385530       119.3363 
 701   0.0000       4.392494       119.5258 
 702   0.0000       4.396884       119.6453 
 703   0.0000       4.406466       119.9060 
 704   0.0000       4.411675       120.0478 
 705   0.0000       4.415134       120.1419 
 706   0.0000       4.425242       120.4170 
 707   0.0000       4.435818       120.7048 
 708   0.0000       4.439545       120.8062 
 709   0.0000       4.443690       120.9190 
 710   0.0000       4.450388       121.1012 
 711   0.0000       4.455582       121.2426 
 712   0.0000       4.458036       121.3093 
 713   0.0000       4.471444       121.6742 
 714   0.0000       4.475064       121.7727 
 715   0.0000       4.480095       121.9096 
 716   0.0000       4.485728       122.0629 
 717   0.0000       4.491209       122.2120 
 718   0.0000       4.495843       122.3381 
 719   0.0000       4.502787       122.5271 
 720   0.0000       4.504574       122.5757 
 721   0.0000       4.510998       122.7505 
 722   0.0000       4.512195       122.7831 
 723   0.0000       4.520362       123.0053 
 724   0.0000       4.524809       123.1263 
 725   0.0000       4.533828       123.3717 
 726   0.0000       4.537206       123.4637 
 727   0.0000       4.542868       123.6177 
 728   0.0000       4.549363       123.7945 
 729   0.0000       4.562237       124.1448 
 730   0.0000       4.568302       124.3098 
 731   0.0000       4.573474       124.4506 
 732   0.0000       4.575386       124.5026 
 733   0.0000       4.580958       124.6542 
 734   0.0000       4.586232       124.7977 
 735   0.0000       4.593978       125.0085 
 736   0.0000       4.597347       125.1002 
 737   0.0000       4.603472       125.2668 
 738   0.0000       4.621496       125.7573 
 739   0.0000       4.626743       125.9001 
 740   0.0000       4.630549       126.0036 
 741   0.0000       4.641293       126.2960 
 742   0.0000       4.651639       126.5775 
 743   0.0000       4.657082       126.7256 
 744   0.0000       4.658956       126.7766 
 745   0.0000       4.667921       127.0206 
 746   0.0000       4.676972       127.2669 
 747   0.0000       4.680180       127.3542 
 748   0.0000       4.686714       127.5320 
 749   0.0000       4.696592       127.8008 
 750   0.0000       4.698721       127.8587 
 751   0.0000       4.705621       128.0464 
 752   0.0000       4.716885       128.3530 
 753   0.0000       4.721491       128.4783 
 754   0.0000       4.735841       128.8688 
 755   0.0000       4.744493       129.1042 
 756   0.0000       4.755609       129.4067 
 757   0.0000       4.761334       129.5625 
 758   0.0000       4.770833       129.8210 
 759   0.0000       4.776941       129.9872 
 760   0.0000       4.784760       130.1999 
 761   0.0000       4.792494       130.4104 
 762   0.0000       4.810846       130.9098 
 763   0.0000       4.823797       131.2622 
 764   0.0000       4.826921       131.3472 
 765   0.0000       4.829852       131.4269 
 766   0.0000       4.837780       131.6427 
 767   0.0000       4.848048       131.9221 
 768   0.0000       4.856522       132.1527 
 769   0.0000       4.868913       132.4899 
 770   0.0000       4.888908       133.0339 
 771   0.0000       4.900422       133.3473 
 772   0.0000       4.911148       133.6391 
 773   0.0000       4.915316       133.7525 
 774   0.0000       4.925505       134.0298 
 775   0.0000       4.936087       134.3177 
 776   0.0000       4.943268       134.5132 
 777   0.0000       4.950864       134.7199 
 778   0.0000       4.962947       135.0487 
 779   0.0000       4.975792       135.3982 
 780   0.0000       4.990388       135.7954 
 781   0.0000       4.992428       135.8509 
 782   0.0000       5.007994       136.2745 
 783   0.0000       5.016567       136.5077 
 784   0.0000       5.030216       136.8791 
 785   0.0000       5.039114       137.1213 
 786   0.0000       5.052612       137.4886 
 787   0.0000       5.059447       137.6746 
 788   0.0000       5.066452       137.8652 
 789   0.0000       5.081015       138.2614 
 790   0.0000       5.098133       138.7272 
 791   0.0000       5.103329       138.8686 
 792   0.0000       5.109648       139.0406 
 793   0.0000       5.117595       139.2568 
 794   0.0000       5.132900       139.6733 
 795   0.0000       5.142653       139.9387 
 796   0.0000       5.156479       140.3149 
 797   0.0000       5.184640       141.0812 
 798   0.0000       5.188758       141.1933 
 799   0.0000       5.199924       141.4971 
 800   0.0000       5.200885       141.5233 
 801   0.0000       5.207335       141.6988 
 802   0.0000       5.215890       141.9316 
 803   0.0000       5.230237       142.3220 
 804   0.0000       5.249313       142.8411 
 805   0.0000       5.256898       143.0475 
 806   0.0000       5.259005       143.1048 
 807   0.0000       5.267177       143.3272 
 808   0.0000       5.272786       143.4798 
 809   0.0000       5.279336       143.6580 
 810   0.0000       5.283397       143.7685 
 811   0.0000       5.286981       143.8661 
 812   0.0000       5.296542       144.1262 
 813   0.0000       5.302827       144.2973 
 814   0.0000       5.308677       144.4564 
 815   0.0000       5.316598       144.6720 
 816   0.0000       5.318679       144.7286 
 817   0.0000       5.325688       144.9193 
 818   0.0000       5.339304       145.2898 
 819   0.0000       5.343562       145.4057 
 820   0.0000       5.351413       145.6194 
 821   0.0000       5.357700       145.7904 
 822   0.0000       5.366891       146.0405 
 823   0.0000       5.380312       146.4057 
 824   0.0000       5.384688       146.5248 
 825   0.0000       5.391470       146.7094 
 826   0.0000       5.394721       146.7978 
 827   0.0000       5.412015       147.2684 
 828   0.0000       5.412480       147.2811 
 829   0.0000       5.446497       148.2067 
 830   0.0000       5.458185       148.5248 
 831   0.0000       5.466326       148.7463 
 832   0.0000       5.474417       148.9665 
 833   0.0000       5.479361       149.1010 
 834   0.0000       5.480789       149.1399 
 835   0.0000       5.484154       149.2314 
 836   0.0000       5.504917       149.7964 
 837   0.0000       5.506545       149.8407 
[...]
      px      :     0.095542
      py      :     0.094877
      dz2     :     0.011333  d :     0.062191
      dxz     :     0.009204
      dyz     :     0.015259
      dx2y2   :     0.010794
      dxy     :     0.015601
 25 H s       :     0.859858  s :     0.859858
      pz      :     0.057422  p :     0.144523
      px      :     0.055703
      py      :     0.031398
      dz2     :     0.007429  d :     0.027900
      dxz     :     0.007959
      dyz     :     0.005084
      dx2y2   :     0.004243
      dxy     :     0.003185
 26 H s       :     0.775977  s :     0.775977
      pz      :     0.084118  p :     0.271022
      px      :     0.102723
      py      :     0.084181
      dz2     :     0.010790  d :     0.062027
      dxz     :     0.015859
      dyz     :     0.008713
      dx2y2   :     0.013143
      dxy     :     0.013521
 27 H s       :     0.782994  s :     0.782994
      pz      :     0.076470  p :     0.276075
      px      :     0.093081
      py      :     0.106525
      dz2     :     0.007468  d :     0.062245
      dxz     :     0.003489
      dyz     :     0.017215
      dx2y2   :     0.015244
      dxy     :     0.018830
 28 H s       :     0.859281  s :     0.859281
      pz      :     0.036712  p :     0.144836
      px      :     0.072942
      py      :     0.035183
      dz2     :     0.003831  d :     0.027923
      dxz     :     0.007440
      dyz     :     0.001638
      dx2y2   :     0.007232
      dxy     :     0.007783
 29 H s       :     0.776179  s :     0.776179
      pz      :     0.066556  p :     0.271025
      px      :     0.120310
      py      :     0.084159
      dz2     :     0.008350  d :     0.062011
      dxz     :     0.012390
      dyz     :     0.008095
      dx2y2   :     0.019905
      dxy     :     0.013272
 30 H s       :     0.783714  s :     0.783714
      pz      :     0.059044  p :     0.276084
      px      :     0.099314
      py      :     0.117726
      dz2     :     0.006259  d :     0.062222
      dxz     :     0.000898
      dyz     :     0.016694
      dx2y2   :     0.014096
      dxy     :     0.024275
 31 H s       :     0.775962  s :     0.775962
      pz      :     0.085854  p :     0.271095
      px      :     0.108318
      py      :     0.076922
      dz2     :     0.004970  d :     0.062025
      dxz     :     0.014960
      dyz     :     0.008174
      dx2y2   :     0.019062
      dxy     :     0.014859
 32 H s       :     0.859036  s :     0.859036
      pz      :     0.040044  p :     0.144529
      px      :     0.058483
      py      :     0.046002
      dz2     :     0.004601  d :     0.027968
      dxz     :     0.005273
      dyz     :     0.003806
      dx2y2   :     0.007804
      dxy     :     0.006483
 33 H s       :     0.863753  s :     0.863753
      pz      :     0.032362  p :     0.150245
      px      :     0.077529
      py      :     0.040354
      dz2     :     0.002605  d :     0.027751
      dxz     :     0.008008
      dyz     :     0.000143
      dx2y2   :     0.007519
      dxy     :     0.009476
 34 H s       :     0.862314  s :     0.862314
      pz      :     0.046209  p :     0.151363
      px      :     0.040748
      py      :     0.064406
      dz2     :     0.005370  d :     0.027788
      dxz     :     0.002865
      dyz     :     0.007162
      dx2y2   :     0.006522
      dxy     :     0.005869
 35 H s       :     0.856568  s :     0.856568
      pz      :     0.048614  p :     0.149045
      px      :     0.061085
      py      :     0.039346
      dz2     :     0.005865  d :     0.028112
      dxz     :     0.007627
      dyz     :     0.003818
      dx2y2   :     0.004740
      dxy     :     0.006062
 36 H s       :     0.855162  s :     0.855162
      pz      :     0.047702  p :     0.149638
      px      :     0.054062
      py      :     0.047874
      dz2     :     0.005461  d :     0.028219
      dxz     :     0.005892
      dyz     :     0.005249
      dx2y2   :     0.006030
      dxy     :     0.005587
 37 H s       :     0.863812  s :     0.863812
      pz      :     0.055359  p :     0.150283
      px      :     0.046044
      py      :     0.048880
      dz2     :     0.006920  d :     0.027766
      dxz     :     0.005954
      dyz     :     0.006071
      dx2y2   :     0.003897
      dxy     :     0.004922
 38 H s       :     0.862527  s :     0.862527
      pz      :     0.047733  p :     0.151458
      px      :     0.056356
      py      :     0.047370
      dz2     :     0.004871  d :     0.027803
      dxz     :     0.006140
      dyz     :     0.005091
      dx2y2   :     0.005688
      dxy     :     0.006013
 39 H s       :     0.856640  s :     0.856640
      pz      :     0.035734  p :     0.149033
      px      :     0.069295
      py      :     0.044004
      dz2     :     0.002836  d :     0.028123
      dxz     :     0.007707
      dyz     :     0.001433
      dx2y2   :     0.008471
      dxy     :     0.007676
 40 H s       :     0.855439  s :     0.855439
      pz      :     0.038188  p :     0.149663
      px      :     0.038390
      py      :     0.073085
      dz2     :     0.003303  d :     0.028227
      dxz     :     0.001290
      dyz     :     0.008173
      dx2y2   :     0.006778
      dxy     :     0.008684
 41 H s       :     0.863793  s :     0.863793
      pz      :     0.066433  p :     0.150250
      px      :     0.042520
      py      :     0.041297
      dz2     :     0.008881  d :     0.027747
      dxz     :     0.007774
      dyz     :     0.007173
      dx2y2   :     0.001517
      dxy     :     0.002402
 42 H s       :     0.862768  s :     0.862768
      pz      :     0.035923  p :     0.151447
      px      :     0.057191
      py      :     0.058333
      dz2     :     0.002729  d :     0.027774
      dxz     :     0.005042
      dyz     :     0.003603
      dx2y2   :     0.009031
      dxy     :     0.007369
 43 H s       :     0.856659  s :     0.856659
      pz      :     0.045007  p :     0.149137
      px      :     0.067065
      py      :     0.037065
      dz2     :     0.005024  d :     0.028137
      dxz     :     0.007569
      dyz     :     0.001841
      dx2y2   :     0.006379
      dxy     :     0.007323
 44 H s       :     0.855457  s :     0.855457
      pz      :     0.067684  p :     0.149683
      px      :     0.038339
      py      :     0.043660
      dz2     :     0.008865  d :     0.028221
      dxz     :     0.008146
      dyz     :     0.007556
      dx2y2   :     0.001770
      dxy     :     0.001885


                      *****************************
                      * MAYER POPULATION ANALYSIS *
                      *****************************

  NA   - Mulliken gross atomic population
  ZA   - Total nuclear charge
  QA   - Mulliken gross atomic charge
  VA   - Mayer's total valence
  BVA  - Mayer's bonded valence
  FA   - Mayer's free valence

  ATOM       NA         ZA         QA         VA         BVA        FA
  0 C      5.8889     6.0000     0.1111     3.6790     3.6790     0.0000
  1 C      5.9444     6.0000     0.0556     4.0683     4.0683     0.0000
  2 C      6.2430     6.0000    -0.2430     3.9353     3.9353    -0.0000
  3 C      5.9207     6.0000     0.0793     3.6892     3.6892    -0.0000
  4 H      0.8450     1.0000     0.1550     1.0190     1.0190    -0.0000
  5 C      6.2063     6.0000    -0.2063     3.9123     3.9123    -0.0000
  6 C      5.9017     6.0000     0.0983     3.6824     3.6824    -0.0000
  7 H      0.8350     1.0000     0.1650     1.0358     1.0358     0.0000
  8 C      6.2632     6.0000    -0.2632     3.9713     3.9713     0.0000
  9 C      5.9532     6.0000     0.0468     4.0720     4.0720    -0.0000
 10 H      0.8663     1.0000     0.1337     0.9939     0.9939     0.0000
 11 C      5.9535     6.0000     0.0465     4.0742     4.0742    -0.0000
 12 C      6.1057     6.0000    -0.1057     3.9331     3.9331    -0.0000
 13 C      6.0926     6.0000    -0.0926     3.8920     3.8920    -0.0000
 14 N      7.2547     7.0000    -0.2547     2.9684     2.9684    -0.0000
 15 N      7.2756     7.0000    -0.2756     2.9516     2.9516    -0.0000
 16 C      6.0922     6.0000    -0.0922     3.8918     3.8918     0.0000
 17 C      6.1053     6.0000    -0.1053     3.9336     3.9336    -0.0000
 18 N      7.2755     7.0000    -0.2755     2.9436     2.9436    -0.0000
 19 N      7.2560     7.0000    -0.2560     2.9714     2.9714    -0.0000
 20 C      6.0924     6.0000    -0.0924     3.8901     3.8901    -0.0000
 21 C      6.1057     6.0000    -0.1057     3.9338     3.9338    -0.0000
 22 N      7.2750     7.0000    -0.2750     2.9449     2.9449    -0.0000
 23 N      7.2552     7.0000    -0.2552     2.9712     2.9712    -0.0000
 24 H      0.8899     1.0000     0.1101     1.0283     1.0283    -0.0000
 25 H      0.9109     1.0000     0.0891     0.9894     0.9894    -0.0000
 26 H      0.8892     1.0000     0.1108     1.0406     1.0406    -0.0000
 27 H      0.8897     1.0000     0.1103     1.0281     1.0281     0.0000
 28 H      0.9105     1.0000     0.0895     0.9872     0.9872     0.0000
 29 H      0.8905     1.0000     0.1095     1.0396     1.0396    -0.0000
 30 H      0.8908     1.0000     0.1092     1.0285     1.0285    -0.0000
 31 H      0.8894     1.0000     0.1106     1.0407     1.0407    -0.0000
 32 H      0.9098     1.0000     0.0902     0.9903     0.9903    -0.0000
 33 H      0.9187     1.0000     0.0813     0.9699     0.9699    -0.0000
 34 H      0.9139     1.0000     0.0861     0.9769     0.9769    -0.0000
 35 H      0.9165     1.0000     0.0835     0.9774     0.9774    -0.0000
 36 H      0.8904     1.0000     0.1096     0.9831     0.9831    -0.0000
 37 H      0.9192     1.0000     0.0808     0.9698     0.9698     0.0000
 38 H      0.9144     1.0000     0.0856     0.9772     0.9772     0.0000
 39 H      0.9171     1.0000     0.0829     0.9772     0.9772    -0.0000
 40 H      0.8911     1.0000     0.1089     0.9833     0.9833    -0.0000
 41 H      0.9188     1.0000     0.0812     0.9701     0.9701     0.0000
 42 H      0.9145     1.0000     0.0855     0.9766     0.9766    -0.0000
 43 H      0.9166     1.0000     0.0834     0.9771     0.9771    -0.0000
 44 H      0.8912     1.0000     0.1088     0.9832     0.9832    -0.0000

  Mayer bond orders larger than 0.100000
B(  0-C ,  1-C ) :   1.0136 B(  0-C ,  2-C ) :   1.3419 B(  0-C ,  8-C ) :   1.3885 
B(  1-C , 14-N ) :   1.0220 B(  1-C , 15-N ) :   1.0060 B(  1-C , 28-H ) :   0.9955 
B(  2-C ,  3-C ) :   1.3839 B(  2-C ,  4-H ) :   0.9548 B(  3-C ,  5-C ) :   1.3473 
B(  3-C , 11-C ) :   1.0161 B(  5-C ,  6-C ) :   1.3553 B(  5-C ,  7-H ) :   0.9448 
B(  6-C ,  8-C ) :   1.3739 B(  6-C ,  9-C ) :   1.0120 B(  8-C , 10-H ) :   0.9717 
B(  9-C , 22-N ) :   1.0057 B(  9-C , 23-N ) :   1.0223 B(  9-C , 25-H ) :   0.9973 
B( 11-C , 18-N ) :   1.0043 B( 11-C , 19-N ) :   1.0226 B( 11-C , 32-H ) :   0.9964 
B( 12-C , 13-C ) :   0.9442 B( 12-C , 14-N ) :   0.9972 B( 12-C , 35-H ) :   0.9865 
B( 12-C , 36-H ) :   0.9939 B( 13-C , 15-N ) :   0.9940 B( 13-C , 33-H ) :   0.9804 
B( 13-C , 34-H ) :   0.9845 B( 14-N , 29-H ) :   0.9933 B( 15-N , 27-H ) :   0.9906 
B( 16-C , 17-C ) :   0.9448 B( 16-C , 18-N ) :   0.9940 B( 16-C , 37-H ) :   0.9800 
B( 16-C , 38-H ) :   0.9849 B( 17-C , 19-N ) :   0.9977 B( 17-C , 39-H ) :   0.9865 
B( 17-C , 40-H ) :   0.9939 B( 18-N , 30-H ) :   0.9910 B( 19-N , 31-H ) :   0.9942 
B( 20-C , 21-C ) :   0.9438 B( 20-C , 22-N ) :   0.9933 B( 20-C , 41-H ) :   0.9803 
B( 20-C , 42-H ) :   0.9848 B( 21-C , 23-N ) :   0.9974 B( 21-C , 43-H ) :   0.9869 
B( 21-C , 44-H ) :   0.9940 B( 22-N , 24-H ) :   0.9906 B( 23-N , 26-H ) :   0.9943 


-------
TIMINGS
-------

Total SCF time: 0 days 0 hours 5 min 52 sec 

Total time                  ....     352.787 sec
Sum of individual times     ....     345.401 sec  ( 97.9%)

Fock matrix formation       ....     312.796 sec  ( 88.7%)
Diagonalization             ....      13.673 sec  (  3.9%)
Density matrix formation    ....       0.325 sec  (  0.1%)
Population analysis         ....       0.798 sec  (  0.2%)
Initial guess               ....       1.348 sec  (  0.4%)
Orbital Transformation      ....       0.000 sec  (  0.0%)
Orbital Orthonormalization  ....       0.000 sec  (  0.0%)
DIIS solution               ....       5.886 sec  (  1.7%)
SOSCF solution              ....       4.463 sec  (  1.3%)


           ************************************************************
           *        Program running with 32 parallel MPI-processes    *
           *              working on a common directory               *
           ************************************************************

------------------------------------------------------------------------------
                                ORCA  MP2 
------------------------------------------------------------------------------

Freezing NCore=42 chemical core electrons

-------------
RI-MP2 ENERGY
-------------
Dimension of the basis                    ...  966
Memory devoted to MP2                     ... 3000 MB   
Data format for buffers                   ... DOUBLE
Compression type for matrix containers    ... UNCOMPRESSED
Overall scaling of the MP2 energy         ...   1.000e+00
Calculating two index integrals           ... done (    0.083 sec)
Cholesky decomposition of V**-1           ... done (    1.455 sec)

-----------------
RI-TRANSFORMATION (AUX index driven)
-----------------

Dimension of the orbital-basis         ... 966
Dimension of the aux-basis             ... 2421
Transformation of internal/external MOs...   21-  77 to   78- 965
Number Format for Storage              ... Double (8 Byte)
Integral mode                          ... Direct

First Phase: integral generation and transformation of MO indices
  Aux angular momentum 0               ... done (    0.362 sec)
  Aux angular momentum 1               ... done (    0.731 sec)
  Aux angular momentum 2               ... done (    0.853 sec)
  Aux angular momentum 3               ... done (    0.699 sec)
  Aux angular momentum 4               ... done (    0.297 sec)
Closing buffer VIA ( 0.91 GB; CompressionRatio= 1.00)
  Phase 1 completed in     4.092 sec
Second Phase: sorting and transformation of aux index

IA-Transformation
Memory available                       ... 2881 MB 
Max. # MO pairs treated in a batch     ... 2    
# of internal orbitals                 ... 57
# batches for internal orbitals        ... 1
Closing buffer IAV ( 0.03 GB; CompressionRatio= 1.00)
(ia|v) transformation done in     2.404 sec

  Phase 2 completed in     4.331 sec
RI-Integral transformation completed in     8.433 sec
Opening buffers                              ... done

Starting loop over batches of integrals:

Operator 0  - window                       ... ( 21- 77)x( 78-965)
Operator 0  - Memory available             ...  3000 MB
Operator 0  - Memory needed per MO         ...  16.4 MB
Operator 0  - Number of orbitals per batch ... 2
Operator 0  - Number of batches            ... 1

OPERATOR  0   PASS   0:  MOs    21 ...   22 +   23 ...   24 +   25 ...   26 +   27 ...   28
                            +   29 ...   30 +   31 ...   32 +   33 ...   34 +   35 ...   36
                            +   37 ...   38 +   39 ...   40 +   41 ...   42 +   43 ...   44
                            +   45 ...   46 +   47 ...   48 +   49 ...   50 +   51 ...   52
                            +   53 ...   54 +   55 ...   56 +   57 ...   58 +   59 ...   60
                            +   61 ...   62 +   63 ...   64 +   65 ...   66 +   67 ...   68
                            +   69 ...   70 +   71 ...   72 +   73 ...   74 +   75 ...   76
                            +   77 ...   77
  Reading integrals       ... ok
Time spent in pair loops =     1.173 sec
Deleting buffer (Ka|jb)[aa] ...done

-----------------------------------------------
 RI-MP2 CORRELATION ENERGY:     -3.709052285 Eh
-----------------------------------------------


-------
TIMINGS
-------

Total time                :   53.073 sec
Integral trafo            :    8.437 sec ( 15.9%)
I/O of integrals          :    0.018 sec (  0.0%)
K(i,j) Operators          :    1.128 sec (  2.1%)
T(i,j) pair energies      :    0.010 sec (  0.0%)
V-calculation             :    0.083 sec (  0.2%)
V**(-1/2)                 :    1.455 sec (  2.7%)
Gamma(ia|P)               :    0.000 sec (  0.0%)
Gamma-Trafo               :    0.000 sec (  0.0%)
D(virtual)                :    0.000 sec (  0.0%)
D(internal)               :    0.000 sec (  0.0%)
W(virtual)                :    0.000 sec (  0.0%)
W(internal)               :    0.000 sec (  0.0%)
L(virtual)                :    0.000 sec (  0.0%)
L(internal)               :    0.000 sec (  0.0%)
G(D)                      :    0.000 sec (  0.0%)
G(Z)                      :    0.000 sec (  0.0%)
Z-Vector Solution         :    0.000 sec (  0.0%)
3-Index Derivative        :    0.000 sec (  0.0%)
2-Index Derivative        :    0.000 sec (  0.0%)
Separable Gradient        :    0.000 sec (  0.0%)


---------------------------------------
MP2 TOTAL ENERGY:     -912.650554716 Eh
---------------------------------------

-------------------------   --------------------
FINAL SINGLE POINT ENERGY      -912.650554716148
-------------------------   --------------------


                            ***************************************
                            *     ORCA property calculations      *
                            ***************************************


  WARNING: The energy has been calculated at the MP2 level but the densities
           used in the property calculations are still SCF densities
           MP2 response densities have not been calculated 
           use %mp2 Density relaxed end
           or  %mp2 Density unrelaxed end

                                    ---------------------
                                    Active property flags
                                    ---------------------
   (+) Dipole Moment


------------------------------------------------------------------------------
                       ORCA ELECTRIC PROPERTIES CALCULATION
------------------------------------------------------------------------------

Dipole Moment Calculation                       ... on
Quadrupole Moment Calculation                   ... off
Polarizability Calculation                      ... off
GBWName                                         ... _o_1_alde1_3_ami4_1_opt_MP2.gbw
Electron density file                           ... _o_1_alde1_3_ami4_1_opt_MP2.scfp
The origin for moment calculation is the CENTER OF MASS  = (-2.494950,  3.331154 -2.472360)

-------------
DIPOLE MOMENT
-------------
                                X             Y             Z
Electronic contribution:      1.28283      -1.25512       2.16208
Nuclear contribution   :     -1.37472       1.08481      -2.43048
                        -----------------------------------------
Total Dipole Moment    :     -0.09189      -0.17031      -0.26840
                        -----------------------------------------
Magnitude (a.u.)       :      0.33090
Magnitude (Debye)      :      0.84107



--------------------
Rotational spectrum 
--------------------
 
Rotational constants in cm-1:     0.010854     0.006822     0.004573 
Rotational constants in MHz :   325.395748   204.528937   137.102824 

 Dipole components along the rotational axes: 
x,y,z [a.u.] :    -0.146085    -0.165352    -0.246596 
x,y,z [Debye]:    -0.371318    -0.420292    -0.626797 

 

Timings for individual modules:

Sum of individual times         ...      759.058 sec (=  12.651 min)
GTO integral calculation        ...       95.250 sec (=   1.587 min)  12.5 %
SCF iterations                  ...      474.717 sec (=   7.912 min)  62.5 %
MP2 module                      ...      189.092 sec (=   3.152 min)  24.9 %
                             ****ORCA TERMINATED NORMALLY****
TOTAL RUN TIME: 0 days 0 hours 14 minutes 14 seconds 917 msec
