Job execution start: Sat Nov  6 15:31:17 GMT 2021
Shared library path: /work/e05/e05/atarzia/orca_4_2_1_linux_x86-64_openmpi314:/work/e05/e05/atarzia/openmpi-3.1.4/lib:/opt/cray/pe/papi/6.0.0.4/lib64:/opt/cray/libfabric/1.11.0.0.233/lib64
Slurm Job ID is: 621509
Slurm Job name is: o_1_alde1_2_ami3_2_opt_B97-3c
nid001290

                                 *****************
                                 * O   R   C   A *
                                 *****************

           --- An Ab Initio, DFT and Semiempirical electronic structure package ---

                  #######################################################
                  #                        -***-                        #
                  #          Department of theory and spectroscopy      #
                  #               Directorship: Frank Neese             #
                  #        Max Planck Institute fuer Kohlenforschung    #
                  #                Kaiser Wilhelm Platz 1               #
                  #                 D-45470 Muelheim/Ruhr               #
                  #                      Germany                        #
                  #                                                     #
                  #                  All rights reserved                #
                  #                        -***-                        #
                  #######################################################


                         Program Version 4.2.1 -  RELEASE  -


 With contributions from (in alphabetic order):
   Daniel Aravena         : Magnetic Suceptibility
   Michael Atanasov       : Ab Initio Ligand Field Theory (pilot matlab implementation)
   Alexander A. Auer      : GIAO ZORA, VPT2
   Ute Becker             : Parallelization
   Giovanni Bistoni       : ED, misc. LED, open-shell LED, HFLD
   Martin Brehm           : Molecular dynamics
   Dmytro Bykov           : SCF Hessian
   Vijay G. Chilkuri      : MRCI spin determinant printing, contributions to CSF-ICE
   Dipayan Datta          : RHF DLPNO-CCSD density
   Achintya Kumar Dutta   : EOM-CC, STEOM-CC
   Dmitry Ganyushin       : Spin-Orbit,Spin-Spin,Magnetic field MRCI
   Miquel Garcia          : C-PCM Hessian, Gaussian charge scheme
   Yang Guo               : DLPNO-NEVPT2, CIM, IAO-localization
   Andreas Hansen         : Spin unrestricted coupled pair/coupled cluster methods
   Benjamin Helmich-Paris : CASSCF linear response (MC-RPA)
   Lee Huntington         : MR-EOM, pCC
   Robert Izsak           : Overlap fitted RIJCOSX, COSX-SCS-MP3, EOM
   Christian Kollmar      : KDIIS, OOCD, Brueckner-CCSD(T), CCSD density
   Simone Kossmann        : Meta GGA functionals, TD-DFT gradient, OOMP2, MP2 Hessian
   Martin Krupicka        : AUTO-CI
   Lucas Lang             : DCDCAS
   Dagmar Lenk            : GEPOL surface, SMD
   Dimitrios Liakos       : Extrapolation schemes; Compound Job, initial MDCI parallelization
   Dimitrios Manganas     : Further ROCIS development; embedding schemes
   Dimitrios Pantazis     : SARC Basis sets
   Taras Petrenko         : DFT Hessian,TD-DFT gradient, ASA, ECA, R-Raman, ABS, FL, XAS/XES, NRVS
   Peter Pinski           : DLPNO-MP2, DLPNO-MP2 Gradient
   Christoph Reimann      : Effective Core Potentials
   Marius Retegan         : Local ZFS, SOC
   Christoph Riplinger    : Optimizer, TS searches, QM/MM, DLPNO-CCSD(T), (RO)-DLPNO pert. Triples
   Tobias Risthaus        : Range-separated hybrids, TD-DFT gradient, RPA, STAB
   Michael Roemelt        : Original ROCIS implementation
   Masaaki Saitow         : Open-shell DLPNO-CCSD energy and density
   Barbara Sandhoefer     : DKH picture change effects
   Avijit Sen             : IP-ROCIS
   Kantharuban Sivalingam : CASSCF convergence, NEVPT2, FIC-MRCI
   Bernardo de Souza      : ESD, SOC TD-DFT
   Georgi Stoychev        : AutoAux, RI-MP2 NMR
   Willem Van den Heuvel  : Paramagnetic NMR
   Boris Wezisla          : Elementary symmetry handling
   Frank Wennmohs         : Technical directorship


 We gratefully acknowledge several colleagues who have allowed us to
 interface, adapt or use parts of their codes:
   Stefan Grimme, W. Hujo, H. Kruse,             : VdW corrections, initial TS optimization,
                  C. Bannwarth                     DFT functionals, gCP, sTDA/sTD-DF
   Ed Valeev, F. Pavosevic, A. Kumar             : LibInt (2-el integral package), F12 methods
   Garnet Chan, S. Sharma, J. Yang, R. Olivares  : DMRG
   Ulf Ekstrom                                   : XCFun DFT Library
   Mihaly Kallay                                 : mrcc  (arbitrary order and MRCC methods)
   Andreas Klamt, Michael Diedenhofen            : otool_cosmo (COSMO solvation model)
   Jiri Pittner, Ondrej Demel                    : Mk-CCSD
   Frank Weinhold                                : gennbo (NPA and NBO analysis)
   Christopher J. Cramer and Donald G. Truhlar   : smd solvation model
   Lars Goerigk                                  : TD-DFT with DH, B97 family of functionals
   V. Asgeirsson, H. Jonsson                     : NEB implementation
   FAccTs GmbH                                   : IRC, NEB, NEB-TS, Multilevel, MM, QM/MM, CI optimization
   S Lehtola, MJT Oliveira, MAL Marques          : LibXC Library


 Your calculation uses the libint2 library for the computation of 2-el integrals
 For citations please refer to: http://libint.valeyev.net

 Your ORCA version has been built with support for libXC version: 4.2.3
 For citations please refer to: https://tddft.org/programs/libxc/

 This ORCA versions uses:
   CBLAS   interface :  Fast vector & matrix operations
   LAPACKE interface :  Fast linear algebra routines
   SCALAPACK package :  Parallel linear algebra routines




***************************************
The coordinates will be read from file: o_1_alde1_2_ami3_2_opt.xyz
***************************************


Your calculation utilizes the atom-pairwise dispersion correction
with the Becke-Johnson damping scheme (D3BJ)
Cite in your paper:
S.Grimme, S.Ehrlich, L.Goerigk, J Comput Chem, (2011), 32, 1456–1465 
S.Grimme, J.Antony, S.Ehrlich and H.Krieg, J.Chem.Phys., 132, (2010), 154104 
   

Your calculation employs the composite approach B97-3c by Grimme and coworkers.
For the correct reference, please check the publication list of the Grimme group:
http://www.thch.uni-bonn.de/tc/index.php?section=publikationen&subsection=grimme#2017
   

XCFun DFT library Copyright 2009-2010 Ulf Ekstrom and contributors.
See http://admol.org/xcfun for more information. This is free soft-
ware; see the source code for copying conditions. There is ABSOLUTELY
NO WARRANTY; not even for MERCHANTABILITY or FITNESS FOR A PARTICULAR
PURPOSE. For details see the documentation. Scientific users of this 
library should cite U. Ekstrom, L. Visscher, R. Bast, A. J. Thorvald-
sen and K. Ruud; J.Chem.Theor.Comp. 2010, DOI: 10.1021/ct100117s
XCFun Version 0.99 
----- Orbital basis set information -----
Your calculation utilizes the basis: def2-mTZVP
----- AuxJ basis set information -----
Your calculation utilizes the basis: def2-mTZVP/J
================================================================================
                                        WARNINGS
                       Please study these warnings very carefully!
================================================================================


WARNING: Geometry Optimization
  ===> : Switching off AutoStart
         For restart on a previous wavefunction, please use MOREAD

INFO   : the flag for use of LIBINT has been found!

================================================================================
                                       INPUT FILE
================================================================================
NAME = o_1_alde1_2_ami3_2_opt_B97-3c.in
|  1> ! DFT COPT B97-3c TightSCF printbasis  Grid6 NOFINALGRID SlowConv 
|  2> 
|  3> %base "_o_1_alde1_2_ami3_2_opt_B97-3c"
|  4> %maxcore 3000
|  5> %scf
|  6>    MaxIter 2000
|  7> end
|  8> %pal
|  9>    nprocs 32
| 10> end
| 11> 
| 12> * xyzfile 0 1 o_1_alde1_2_ami3_2_opt.xyz
| 13> # * xyzfile 0 1 _o_1_alde1_2_ami3_2_opt_B97-3c.xyz
| 14> 
| 15>                          ****END OF INPUT****
================================================================================

                       *****************************
                       * Geometry Optimization Run *
                       *****************************

Geometry optimization settings:
Update method            Update   .... BFGS
Choice of coordinates    CoordSys .... Cartesian
Initial Hessian          InHess   .... Unit Matrix

Convergence Tolerances:
Energy Change            TolE     ....  5.0000e-06 Eh
Max. Gradient            TolMAXG  ....  3.0000e-04 Eh/bohr
RMS Gradient             TolRMSG  ....  1.0000e-04 Eh/bohr
Max. Displacement        TolMAXD  ....  4.0000e-03 bohr
RMS Displacement         TolRMSD  ....  2.0000e-03 bohr
Strict Convergence                ....  False
------------------------------------------------------------------------------
                        ORCA OPTIMIZATION COORDINATE SETUP
------------------------------------------------------------------------------

The optimization will be done in cartesian displacement coordinates
Initial hessian                         ....done
Number of atoms                         .... 56
Number of degrees of freedom            .... 168

         *************************************************************
         *                GEOMETRY OPTIMIZATION CYCLE   1            *
         *************************************************************
---------------------------------
CARTESIAN COORDINATES (ANGSTROEM)
---------------------------------
  C     -1.309100    0.986600   -2.073800
  C     -1.628000   -0.209700   -1.280000
  C     -2.326400    1.673600   -2.732700
  C     -2.039100    2.808300   -3.486200
  H     -3.345300    1.327000   -2.660700
  C     -0.719700    3.247600   -3.573300
  C      0.307600    2.569800   -2.920400
  H     -0.488800    4.128600   -4.157100
  C      0.004300    1.436400   -2.169600
  C      1.681700    3.044100   -3.023800
  H      0.809100    0.921200   -1.668200
  C     -3.101300    3.530200   -4.175800
  O     -2.727400   -0.676500   -1.132800
  C     -5.330800    3.863700   -4.795200
  C     -6.289400    4.440100   -3.730000
  N     -4.298100    3.143900   -4.121400
  H     -4.929500    4.714400   -5.377100
  C     -6.061400    2.902500   -5.742000
  N     -7.153500    5.427200   -4.354600
  H     -5.677100    4.986100   -2.999300
  C     -7.017200    3.301500   -2.998600
  C     -6.760700    1.789900   -4.969400
  C     -7.747600    2.376100   -3.966600
  C      4.796900    1.866400   -3.311500
  C      3.969000    2.931500   -2.559400
  N      6.058500    2.453700   -3.727600
  H      4.253200    1.619900   -4.233700
  C      4.916900    0.589700   -2.464200
  N      2.627800    2.453200   -2.438900
  H      4.021300    3.867000   -3.146500
  C      4.529800    3.185100   -1.154100
  C      5.494000    0.874600   -1.081200
  C      4.622700    1.891500   -0.353000
  H     -0.740900   -0.673400   -0.803200
  H      6.575100    1.794200   -4.299300
  H      6.630600    2.672100   -2.919400
  H     -7.776700    4.980300   -5.018100
  H     -7.728700    5.876500   -3.650200
  H     -8.531100    2.925200   -4.497300
  H     -8.233000    1.573800   -3.407300
  H     -6.009800    1.207100   -4.435100
  H     -7.279100    1.128100   -5.666700
  H     -6.785600    3.470700   -6.329200
  H     -5.332500    2.474900   -6.434100
  H     -6.273300    2.725500   -2.447200
  H     -7.721500    3.729600   -2.279400
  H     -2.790500    4.424100   -4.740500
  H      1.836400    3.944000   -3.640100
  H      3.619300    1.482500   -0.229500
  H      5.033800    2.100700    0.637000
  H      5.515200    3.645400   -1.246800
  H      3.876500    3.894800   -0.641600
  H      5.542200   -0.135000   -2.993600
  H      3.918800    0.163900   -2.354800
  H      6.514100    1.259700   -1.169400
  H      5.544700   -0.053700   -0.508300

----------------------------
CARTESIAN COORDINATES (A.U.)
----------------------------
  NO LB      ZA    FRAG     MASS         X           Y           Z
   0 C     6.0000    0    12.011   -2.473840    1.864404   -3.918914
   1 C     6.0000    0    12.011   -3.076474   -0.396276   -2.418849
   2 C     6.0000    0    12.011   -4.396259    3.162646   -5.164055
   3 C     6.0000    0    12.011   -3.853341    5.306918   -6.587963
   4 H     1.0000    0     1.008   -6.321701    2.507667   -5.027994
   5 C     6.0000    0    12.011   -1.360036    6.137075   -6.752558
   6 C     6.0000    0    12.011    0.581280    4.856218   -5.518756
   7 H     1.0000    0     1.008   -0.923698    7.801923   -7.855781
   8 C     6.0000    0    12.011    0.008126    2.714403   -4.099950
   9 C     6.0000    0    12.011    3.177952    5.752515   -5.714154
  10 H     1.0000    0     1.008    1.528977    1.740816   -3.152441
  11 C     6.0000    0    12.011   -5.860608    6.671111   -7.891118
  12 O     8.0000    0    15.999   -5.154039   -1.278400   -2.140682
  13 C     6.0000    0    12.011  -10.073752    7.301335   -9.061615
  14 C     6.0000    0    12.011  -11.885244    8.390573   -7.048678
  15 N     7.0000    0    14.007   -8.122232    5.941110   -7.788317
  16 H     1.0000    0     1.008   -9.315405    8.908925  -10.161246
  17 C     6.0000    0    12.011  -11.454386    5.484930  -10.850807
  18 N     7.0000    0    14.007  -13.518156   10.255922   -8.229001
  19 H     1.0000    0     1.008  -10.728164    9.422363   -5.667856
  20 C     6.0000    0    12.011  -13.260586    6.238931   -5.666533
  21 C     6.0000    0    12.011  -12.775871    3.382421   -9.390805
  22 C     6.0000    0    12.011  -14.640842    4.490178   -7.495788
  23 C     6.0000    0    12.011    9.064827    3.526985   -6.257828
  24 C     6.0000    0    12.011    7.500323    5.539732   -4.836565
  25 N     7.0000    0    14.007   11.448906    4.636821   -7.044143
  26 H     1.0000    0     1.008    8.037383    3.061167   -8.000534
  27 C     6.0000    0    12.011    9.291594    1.114372   -4.656663
  28 N     7.0000    0    14.007    4.965822    4.635876   -4.608853
  29 H     1.0000    0     1.008    7.599156    7.307571   -5.946023
  30 C     6.0000    0    12.011    8.560081    6.018967   -2.180933
  31 C     6.0000    0    12.011   10.382155    1.652754   -2.043172
  32 C     6.0000    0    12.011    8.735637    3.574417   -0.667073
  33 H     1.0000    0     1.008   -1.400098   -1.272542   -1.517828
  34 H     1.0000    0     1.008   12.425138    3.390547   -8.124500
  35 H     1.0000    0     1.008   12.530018    5.049537   -5.516866
  36 H     1.0000    0     1.008  -14.695833    9.411403   -9.482835
  37 H     1.0000    0     1.008  -14.605126   11.104976   -6.897878
  38 H     1.0000    0     1.008  -16.121443    5.527827   -8.498665
  39 H     1.0000    0     1.008  -15.558115    2.974051   -6.438864
  40 H     1.0000    0     1.008  -11.356876    2.281088   -8.381124
  41 H     1.0000    0     1.008  -13.755506    2.131800  -10.708511
  42 H     1.0000    0     1.008  -12.822926    6.558672  -11.960455
  43 H     1.0000    0     1.008  -10.076965    4.676883  -12.158687
  44 H     1.0000    0     1.008  -11.854819    5.150449   -4.624538
  45 H     1.0000    0     1.008  -14.591520    7.047923   -4.307442
  46 H     1.0000    0     1.008   -5.273281    8.360337   -8.958247
  47 H     1.0000    0     1.008    3.470293    7.453080   -6.878792
  48 H     1.0000    0     1.008    6.839486    2.801519   -0.433692
  49 H     1.0000    0     1.008    9.512503    3.969748    1.203756
  50 H     1.0000    0     1.008   10.422218    6.888808   -2.356111
  51 H     1.0000    0     1.008    7.325523    7.360105   -1.212448
  52 H     1.0000    0     1.008   10.473240   -0.255113   -5.657084
  53 H     1.0000    0     1.008    7.405459    0.309726   -4.449927
  54 H     1.0000    0     1.008   12.309865    2.380488   -2.209846
  55 H     1.0000    0     1.008   10.477964   -0.101478   -0.960548

--------------------------------
INTERNAL COORDINATES (ANGSTROEM)
--------------------------------
 C      0   0   0     0.000000000000     0.00000000     0.00000000
 C      1   0   0     1.470696889233     0.00000000     0.00000000
 C      1   2   0     1.393204041051   119.87046121     0.00000000
 C      3   1   2     1.392065957489   120.47989831   179.92306817
 H      3   1   2     1.078643949596   119.98179361   359.93685715
 C      4   3   1     1.393336736041   119.09536801     0.03646806
 C      6   4   3     1.393210874204   121.03431781     0.00000000
 H      6   4   3     1.081803239966   119.51239246   179.99522156
 C      1   2   3     1.391588028118   120.31351221   179.96944311
 C      7   6   4     1.457327300231   120.24274351   179.96961083
 H      9   1   2     1.079136710524   121.16989497     0.00000000
 C      4   3   1     1.457723090988   120.62010585   180.05979924
 O      2   1   3     1.203432773361   125.42454337   359.88835843
 C     12   4   3     2.337851334024   152.98408511   359.68490412
 C     14  12   4     1.544604143462   117.54014149    75.45796545
 N     12   4   3     1.258776107972   121.35727037   359.28619264
 H     14  12   4     1.106046920343    84.43932226   182.33217500
 C     14  12   4     1.534311585044   121.88600545   291.59264994
 N     15  14  12     1.452983269002   109.03508805   138.43535485
 H     15  14  12     1.098612661496   107.35246677    23.73775568
 C     15  14  12     1.536570453966   110.22415477   265.86156612
 C     18  14  12     1.524404805162   111.27973952    90.53398706
 C     22  18  14     1.524207954972   110.47330746    57.77135009
 C     10   7   6     3.342786206146   140.36643484   218.65495969
 C     24  10   7     1.544509899612    38.33494705   223.16736124
 N     24  10   7     1.452478936164   133.76083800   162.03588746
 H     24  10   7     1.098555770091    71.94535208    66.54002667
 C     24  10   7     1.536971105779   108.53985038   322.64380006
 N     10   7   6     1.259514203969   121.50858895   179.69027126
 H     25  24  10     1.105704277825   107.42991270   267.41813058
 C     25  24  10     1.534170032949   111.35218914   147.86457214
 C     28  24  10     1.525418440953   111.97527619   264.14109209
 C     32  28  24     1.524311169020   109.96640503    57.89770395
 H      2   1   3     1.108739076609   113.50398898   179.91621095
 H     26  24  10     1.014227144184   109.93618211   220.47849383
 H     26  24  10     1.013994186374   110.41481561   101.94148517
 H     19  15  14     1.014066122104   110.32537306    66.91595919
 H     19  15  14     1.014349491053   109.85467480   185.28317910
 H     23  22  18     1.094086628197   109.72873486    62.90138494
 H     23  22  18     1.091840162295   110.01509703   180.84355499
 H     22  18  14     1.090405034838   108.81613253   297.88386590
 H     22  18  14     1.092220257091   109.65771544   179.45768445
 H     18  14  12     1.091842809199   108.76529858   212.32969117
 H     18  14  12     1.092309196153   108.57105703   329.36883514
 H     21  15  14     1.090506840877   107.99696993    64.90003170
 H     21  15  14     1.093872360013   109.14278959   182.39489128
 H     12   4   3     1.102061677040   116.01381739   179.31516819
 H     10   7   6     1.101625067798   115.97410652   359.72226966
 H     33  32  28     1.090570864272   109.25786378    61.15433496
 H     33  32  28     1.092184897350   110.22198116   180.15702953
 H     31  25  24     1.091550521048   108.77828674    66.49657648
 H     31  25  24     1.092305465518   108.57544071   183.56116502
 H     28  24  10     1.093825644241   109.15729039   141.76495419
 H     28  24  10     1.090631748117   107.94774167    24.32126991
 H     32  28  24     1.093931103863   110.20856389   296.86981855
 H     32  28  24     1.092028291758   109.53837205   178.97377900

---------------------------
INTERNAL COORDINATES (A.U.)
---------------------------
 C      0   0   0     0.000000000000     0.00000000     0.00000000
 C      1   0   0     2.779214346661     0.00000000     0.00000000
 C      1   2   0     2.632774086258   119.87046121     0.00000000
 C      3   1   2     2.630623420009   120.47989831   179.92306817
 H      3   1   2     2.038341660748   119.98179361   359.93685715
 C      4   3   1     2.633024843448   119.09536801     0.03646806
 C      6   4   3     2.632786999046   121.03431781     0.00000000
 H      6   4   3     2.044311854324   119.51239246   179.99522156
 C      1   2   3     2.629720264386   120.31351221   179.96944311
 C      7   6   4     2.753949484924   120.24274351   179.96961083
 H      9   1   2     2.039272843951   121.16989497     0.00000000
 C      4   3   1     2.754697421061   120.62010585   180.05979924
 O      2   1   3     2.274158362238   125.42454337   359.88835843
 C     12   4   3     4.417898763129   152.98408511   359.68490412
 C     14  12   4     2.918878816463   117.54014149    75.45796545
 N     12   4   3     2.378742107990   121.35727037   359.28619264
 H     14  12   4     2.090125770715    84.43932226   182.33217500
 C     14  12   4     2.899428699836   121.88600545   291.59264994
 N     15  14  12     2.745740455584   109.03508805   138.43535485
 H     15  14  12     2.076077057486   107.35246677    23.73775568
 C     15  14  12     2.903697343470   110.22415477   265.86156612
 C     18  14  12     2.880707598989   111.27973952    90.53398706
 C     22  18  14     2.880335606041   110.47330746    57.77135009
 C     10   7   6     6.316950453866   140.36643484   218.65495969
 C     24  10   7     2.918700721397    38.33494705   223.16736124
 N     24  10   7     2.744787404639   133.76083800   162.03588746
 H     24  10   7     2.075969548311    71.94535208    66.54002667
 C     24  10   7     2.904454465673   108.53985038   322.64380006
 N     10   7   6     2.380136907285   121.50858895   179.69027126
 H     25  24  10     2.089478270194   107.42991270   267.41813058
 C     25  24  10     2.899161205143   111.35218914   147.86457214
 C     28  24  10     2.882623093035   111.97527619   264.14109209
 C     32  28  24     2.880530652326   109.96640503    57.89770395
 H      2   1   3     2.095213208768   113.50398898   179.91621095
 H     26  24  10     1.916611540097   109.93618211   220.47849383
 H     26  24  10     1.916171313635   110.41481561   101.94148517
 H     19  15  14     1.916307252465   110.32537306    66.91595919
 H     19  15  14     1.916842742173   109.85467480   185.28317910
 H     23  22  18     2.067524094078   109.72873486    62.90138494
 H     23  22  18     2.063278888753   110.01509703   180.84355499
 H     22  18  14     2.060566890893   108.81613253   297.88386590
 H     22  18  14     2.063997163823   109.65771544   179.45768445
 H     18  14  12     2.063283890678   108.76529858   212.32969117
 H     18  14  12     2.064165234292   108.57105703   329.36883514
 H     21  15  14     2.060759276426   107.99696993    64.90003170
 H     21  15  14     2.067119185890   109.14278959   182.39489128
 H     12   4   3     2.082594752295   116.01381739   179.31516819
 H     10   7   6     2.081769680400   115.97410652   359.72226966
 H     33  32  28     2.060880263109   109.25786378    61.15433496
 H     33  32  28     2.063930343597   110.22198116   180.15702953
 H     31  25  24     2.062731546120   108.77828674    66.49657648
 H     31  25  24     2.064158184414   108.57544071   183.56116502
 H     28  24  10     2.067030905876   109.15729039   141.76495419
 H     28  24  10     2.060995316900   107.94774167    24.32126991
 H     32  28  24     2.067230195680   110.20856389   296.86981855
 H     32  28  24     2.063634401917   109.53837205   178.97377900

---------------------
BASIS SET INFORMATION
---------------------
There are 4 groups of distinct atoms

 Group   1 Type C   : 11s6p1d contracted to 5s3p1d pattern {62111/411/1}
 Group   2 Type H   : 5s contracted to 3s pattern {311}
 Group   3 Type O   : 11s6p2d contracted to 5s3p2d pattern {62111/411/11}
 Group   4 Type N   : 11s6p1d contracted to 5s3p1d pattern {62111/411/1}

Atom   0C    basis set group =>   1
Atom   1C    basis set group =>   1
Atom   2C    basis set group =>   1
Atom   3C    basis set group =>   1
Atom   4H    basis set group =>   2
Atom   5C    basis set group =>   1
Atom   6C    basis set group =>   1
Atom   7H    basis set group =>   2
Atom   8C    basis set group =>   1
Atom   9C    basis set group =>   1
Atom  10H    basis set group =>   2
Atom  11C    basis set group =>   1
Atom  12O    basis set group =>   3
Atom  13C    basis set group =>   1
Atom  14C    basis set group =>   1
Atom  15N    basis set group =>   4
Atom  16H    basis set group =>   2
Atom  17C    basis set group =>   1
Atom  18N    basis set group =>   4
Atom  19H    basis set group =>   2
Atom  20C    basis set group =>   1
Atom  21C    basis set group =>   1
Atom  22C    basis set group =>   1
Atom  23C    basis set group =>   1
Atom  24C    basis set group =>   1
Atom  25N    basis set group =>   4
Atom  26H    basis set group =>   2
Atom  27C    basis set group =>   1
Atom  28N    basis set group =>   4
Atom  29H    basis set group =>   2
Atom  30C    basis set group =>   1
Atom  31C    basis set group =>   1
Atom  32C    basis set group =>   1
Atom  33H    basis set group =>   2
Atom  34H    basis set group =>   2
Atom  35H    basis set group =>   2
Atom  36H    basis set group =>   2
Atom  37H    basis set group =>   2
Atom  38H    basis set group =>   2
Atom  39H    basis set group =>   2
Atom  40H    basis set group =>   2
Atom  41H    basis set group =>   2
Atom  42H    basis set group =>   2
Atom  43H    basis set group =>   2
Atom  44H    basis set group =>   2
Atom  45H    basis set group =>   2
Atom  46H    basis set group =>   2
Atom  47H    basis set group =>   2
Atom  48H    basis set group =>   2
Atom  49H    basis set group =>   2
Atom  50H    basis set group =>   2
Atom  51H    basis set group =>   2
Atom  52H    basis set group =>   2
Atom  53H    basis set group =>   2
Atom  54H    basis set group =>   2
Atom  55H    basis set group =>   2

-------------------------
BASIS SET IN INPUT FORMAT
-------------------------

 # Basis set for element : H 
 NewGTO H 
 S 3 
   1      34.0613410000      0.0254393072
   2       5.1235746000      0.1900859489
   3       1.1646626000      0.8524411301
 S 1 
   1       0.3272304100      1.0000000000
 S 1 
   1       0.1030724100      1.0000000000
  end;

 # Basis set for element : C 
 NewGTO C 
 S 6 
   1   13575.3496820000      0.0006064549
   2    2035.2333680000      0.0046979088
   3     463.2256235900      0.0243324776
   4     131.2001959800      0.0973999683
   5      42.8530158910      0.3019558425
   6      15.5841857660      0.6623360915
 S 2 
   1       6.2067138508      0.6559530854
   2       2.5764896527      0.3758563329
 S 1 
   1       0.5769633942      1.0000000000
 S 1 
   1       0.2297283136      1.0000000000
 S 1 
   1       0.0951644400      1.0000000000
 P 4 
   1      34.6972322440      0.0113272200
   2       7.9582622826      0.0761696592
   3       2.3780826883      0.3019225220
   4       0.8143320818      0.7278502735
 P 1 
   1       0.2888754725      1.0000000000
 P 1 
   1       0.1005682367      1.0000000000
 D 1 
   1       0.8000000000      1.0000000000
  end;

 # Basis set for element : N 
 NewGTO N 
 S 6 
   1   19730.8006470000      0.0005862639
   2    2957.8958745000      0.0045428821
   3     673.2213359500      0.0235584136
   4     190.6824949400      0.0947091933
   5      62.2954418980      0.2971978492
   6      22.6541611820      0.6691624689
 S 2 
   1       8.9791477428      0.6459668363
   2       3.6863002370      0.3870057440
 S 1 
   1       0.8466007680      1.0000000000
 S 1 
   1       0.3364713377      1.0000000000
 S 1 
   1       0.1364765367      1.0000000000
 P 4 
   1      49.2003805100      0.0114488252
   2      11.3467905370      0.0784223379
   3       3.4273972411      0.3081809474
   4       1.1785525134      0.7202719637
 P 1 
   1       0.4164220497      1.0000000000
 P 1 
   1       0.1426082601      1.0000000000
 D 1 
   1       0.8000000000      1.0000000000
  end;

 # Basis set for element : O 
 NewGTO O 
 S 6 
   1   27032.3826310000      0.0005722733
   2    4052.3871392000      0.0044353233
   3     922.3272271000      0.0230201076
   4     261.2407098900      0.0928224906
   5      85.3546413510      0.2937850002
   6      31.0350352450      0.6740160450
 S 2 
   1      12.2608607280      0.6383993702
   2       4.9987076005      0.3953458713
 S 1 
   1       1.1703108158      1.0000000000
 S 1 
   1       0.4647474099      1.0000000000
 S 1 
   1       0.1850453636      1.0000000000
 P 4 
   1      63.2749548010      0.0120183321
   2      14.6270493790      0.0830054217
   3       4.4501223456      0.3199174393
   4       1.5275799647      0.7071554292
 P 1 
   1       0.5293511794      1.0000000000
 P 1 
   1       0.1747842127      1.0000000000
 D 1 
   1       0.9000000000      1.0000000000
 D 1 
   1       0.1500000000      1.0000000000
  end;

---------------------------------
AUXILIARY/J BASIS SET INFORMATION
---------------------------------
There are 4 groups of distinct atoms

 Group   1 Type C   : 8s3p3d contracted to 6s3p3d pattern {311111/111/111}
 Group   2 Type H   : 5s2p contracted to 3s1p pattern {311/2}
 Group   3 Type O   : 8s3p3d contracted to 6s3p3d pattern {311111/111/111}
 Group   4 Type N   : 8s3p3d contracted to 6s3p3d pattern {311111/111/111}

Atom   0C    basis set group =>   1
Atom   1C    basis set group =>   1
Atom   2C    basis set group =>   1
Atom   3C    basis set group =>   1
Atom   4H    basis set group =>   2
Atom   5C    basis set group =>   1
Atom   6C    basis set group =>   1
Atom   7H    basis set group =>   2
Atom   8C    basis set group =>   1
Atom   9C    basis set group =>   1
Atom  10H    basis set group =>   2
Atom  11C    basis set group =>   1
Atom  12O    basis set group =>   3
Atom  13C    basis set group =>   1
Atom  14C    basis set group =>   1
Atom  15N    basis set group =>   4
Atom  16H    basis set group =>   2
Atom  17C    basis set group =>   1
Atom  18N    basis set group =>   4
Atom  19H    basis set group =>   2
Atom  20C    basis set group =>   1
Atom  21C    basis set group =>   1
Atom  22C    basis set group =>   1
Atom  23C    basis set group =>   1
Atom  24C    basis set group =>   1
Atom  25N    basis set group =>   4
Atom  26H    basis set group =>   2
Atom  27C    basis set group =>   1
Atom  28N    basis set group =>   4
Atom  29H    basis set group =>   2
Atom  30C    basis set group =>   1
Atom  31C    basis set group =>   1
Atom  32C    basis set group =>   1
Atom  33H    basis set group =>   2
Atom  34H    basis set group =>   2
Atom  35H    basis set group =>   2
Atom  36H    basis set group =>   2
Atom  37H    basis set group =>   2
Atom  38H    basis set group =>   2
Atom  39H    basis set group =>   2
Atom  40H    basis set group =>   2
Atom  41H    basis set group =>   2
Atom  42H    basis set group =>   2
Atom  43H    basis set group =>   2
Atom  44H    basis set group =>   2
Atom  45H    basis set group =>   2
Atom  46H    basis set group =>   2
Atom  47H    basis set group =>   2
Atom  48H    basis set group =>   2
Atom  49H    basis set group =>   2
Atom  50H    basis set group =>   2
Atom  51H    basis set group =>   2
Atom  52H    basis set group =>   2
Atom  53H    basis set group =>   2
Atom  54H    basis set group =>   2
Atom  55H    basis set group =>   2

-------------------------------------
AUXILIARY/J BASIS SET IN INPUT FORMAT
-------------------------------------

 # Auxiliary/J basis set for element : H 
 NewAuxJGTO H 
 S 3 
   1      15.6752927000      0.1007184237
   2       3.6063578000      0.3404257499
   3       1.2080016000      0.6491996172
 S 1 
   1       0.4726794000      1.0000000000
 S 1 
   1       0.2018100000      1.0000000000
 P 2 
   1       2.0281365000      0.5596620919
   2       0.5358730000      0.5596620919
  end;

 # Auxiliary/J basis set for element : C 
 NewAuxJGTO C 
 S 3 
   1     459.7023860000      0.1098751775
   2     132.9577920000      0.2844848472
   3      41.5658170000      0.6964707648
 S 1 
   1      13.9155610000      1.0000000000
 S 1 
   1       4.9305290000     -1.0000000000
 S 1 
   1       1.8229480000      1.0000000000
 S 1 
   1       0.6920510000      1.0000000000
 S 1 
   1       0.2650930000      1.0000000000
 P 1 
   1       0.3278473579      1.0000000000
 P 1 
   1       0.7868336591      1.0000000000
 P 1 
   1       1.9710183160      1.0000000000
 D 1 
   1       4.0133010000      1.0000000000
 D 1 
   1       1.2475050000      1.0000000000
 D 1 
   1       0.4081480000      1.0000000000
  end;

 # Auxiliary/J basis set for element : N 
 NewAuxJGTO N 
 S 3 
   1     680.5425300000      0.1043830093
   2     196.7562140000      0.2751518961
   3      61.2707930000      0.7090825511
 S 1 
   1      20.3644630000      1.0000000000
 S 1 
   1       7.1424770000     -1.0000000000
 S 1 
   1       2.6080260000      1.0000000000
 S 1 
   1       0.9763730000      1.0000000000
 S 1 
   1       0.3686330000      1.0000000000
 P 1 
   1       0.4707391941      1.0000000000
 P 1 
   1       1.1297740658     -1.0000000000
 P 1 
   1       2.8300840347      1.0000000000
 D 1 
   1       5.8329865000      1.0000000000
 D 1 
   1       1.7326865000      1.0000000000
 D 1 
   1       0.5452425000      1.0000000000
  end;

 # Auxiliary/J basis set for element : O 
 NewAuxJGTO O 
 S 3 
   1     896.1035700000      0.1049899981
   2     269.7252320000      0.2698166569
   3      85.6150770000      0.7109966875
 S 1 
   1      28.4450350000      1.0000000000
 S 1 
   1       9.8069810000     -1.0000000000
 S 1 
   1       3.4747220000      1.0000000000
 S 1 
   1       1.2519210000      1.0000000000
 S 1 
   1       0.4536130000      1.0000000000
 P 1 
   1       0.6147088630     -1.0000000000
 P 1 
   1       1.4753012711      1.0000000000
 P 1 
   1       3.6956296840     -1.0000000000
 D 1 
   1       7.6526720000      1.0000000000
 D 1 
   1       2.2178680000      1.0000000000
 D 1 
   1       0.6823370000      1.0000000000
  end;



           ************************************************************
           *        Program running with 32 parallel MPI-processes    *
           *              working on a common directory               *
           ************************************************************
------------------------------------------------------------------------------
                           ORCA GTO INTEGRAL CALCULATION
                           -- RI-GTO INTEGRALS CHOSEN --
------------------------------------------------------------------------------

                         BASIS SET STATISTICS AND STARTUP INFO

Gaussian basis set:
 # of primitive gaussian shells          ...  619
 # of primitive gaussian functions       ... 1039
 # of contracted shells                  ...  325
 # of contracted basis functions         ...  589
 Highest angular momentum                ...    2
 Maximum contraction depth               ...    6
Auxiliary gaussian basis set:
 # of primitive gaussian shells          ...  574
 # of primitive gaussian functions       ... 1162
 # of contracted shells                  ...  432
 # of contracted aux-basis functions     ...  960
 Highest angular momentum                ...    2
 Maximum contraction depth               ...    3
Ratio of auxiliary to basis functions    ...  1.63
Integral package used                  ... LIBINT
 One Electron integrals                  ... done
 Ordering auxiliary basis shells         ... done
 Integral threshhold             Thresh  ...  2.500e-11
 Primitive cut-off               TCut    ...  2.500e-12
 Pre-screening matrix                    ... done
 Shell pair data                         ... 
 Ordering of the shell pairs             ... done (   0.012 sec) 30985 of 52975 pairs
 Determination of significant pairs      ... done (   0.000 sec)
 Creation of shell pair data             ... done (   0.005 sec)
 Storage of shell pair data              ... done (   0.040 sec)
 Shell pair data done in (   0.056 sec)
 Computing two index integrals           ... done
 Cholesky decomposition of the V-matrix  ... done


Timings:
 Total evaluation time                   ...   1.340 sec (  0.022 min)
 One electron matrix time                ...   0.328 sec (  0.005 min) = 24.5%
 Schwartz matrix evaluation time         ...   0.359 sec (  0.006 min) = 26.8%
 Two index repulsion integral time       ...   0.026 sec (  0.000 min) =  1.9%
 Cholesky decomposition of V             ...   0.512 sec (  0.009 min) = 38.2%
 Three index repulsion integral time     ...   0.001 sec (  0.000 min) =  0.0%



           ************************************************************
           *        Program running with 32 parallel MPI-processes    *
           *              working on a common directory               *
           ************************************************************
-------------------------------------------------------------------------------
                                 ORCA SCF
-------------------------------------------------------------------------------

------------
SCF SETTINGS
------------
Hamiltonian:
 Density Functional     Method          .... DFT(GTOs)
 Exchange Functional    Exchange        .... B973C
 Correlation Functional Correlation     .... B973C
 Gradients option       PostSCFGGA      .... off
   Density functional embedding theory  .... OFF
 RI-approximation to the Coulomb term is turned on
   Number of auxiliary basis functions  .... 960


General Settings:
 Integral files         IntName         .... _o_1_alde1_2_ami3_2_opt_B97-3c
 Hartree-Fock type      HFTyp           .... RHF
 Total Charge           Charge          ....    0
 Multiplicity           Mult            ....    1
 Number of Electrons    NEL             ....  192
 Basis Dimension        Dim             ....  589
 Nuclear Repulsion      ENuc            ....   2214.0992311730 Eh

Convergence Acceleration:
 DIIS                   CNVDIIS         .... on
   Start iteration      DIISMaxIt       ....     0
   Startup error        DIISStart       ....  0.200000
   # of expansion vecs  DIISMaxEq       ....     5
   Bias factor          DIISBfac        ....   1.050
   Max. coefficient     DIISMaxC        ....  10.000
 Newton-Raphson         CNVNR           .... off
 SOSCF                  CNVSOSCF        .... on
   Start iteration      SOSCFMaxIt      ....   150
   Startup grad/error   SOSCFStart      ....  0.001000
 Level Shifting         CNVShift        .... on
   Level shift para.    LevelShift      ....    0.2500
   Turn off err/grad.   ShiftErr        ....    0.0000
 Zerner damping         CNVZerner       .... off
 Static damping         CNVDamp         .... on
   Fraction old density DampFac         ....    0.8500
   Max. Damping (<1)    DampMax         ....    0.9800
   Min. Damping (>=0)   DampMin         ....    0.0000
   Turn off err/grad.   DampErr         ....    0.0300
 Fernandez-Rico         CNVRico         .... off

SCF Procedure:
 Maximum # iterations   MaxIter         ....  2000
 SCF integral mode      SCFMode         .... Direct
   Integral package                     .... LIBINT
 Reset frequency        DirectResetFreq ....    20
 Integral Threshold     Thresh          ....  2.500e-11 Eh
 Primitive CutOff       TCut            ....  2.500e-12 Eh

Convergence Tolerance:
 Convergence Check Mode ConvCheckMode   .... Total+1el-Energy
 Convergence forced     ConvForced      .... 0
 Energy Change          TolE            ....  1.000e-08 Eh
 1-El. energy change                    ....  1.000e-05 Eh
 Orbital Gradient       TolG            ....  1.000e-05
 Orbital Rotation angle TolX            ....  1.000e-05
 DIIS Error             TolErr          ....  5.000e-07


Diagonalization of the overlap matrix:
Smallest eigenvalue                        ... 6.307e-06
Time for diagonalization                   ...    0.328 sec
Threshold for overlap eigenvalues          ... 1.000e-08
Number of eigenvalues below threshold      ... 0
Time for construction of square roots      ...    0.107 sec
Total time needed                          ...    0.435 sec

--------------------------------
INITIAL GUESS: MINIMAL BASIS EHT
--------------------------------
The minimal basis has 160 functions
EHT matrix was diagonalized
Basis set overlap was calculated now projecting the orbitals
Using GuessMode=FMatrix for the initial guess
C*T matrix was formed
Effective Fockian was calculated
Effective Fockian was diagonalized
Initial density was built
                      ------------------
                      INITIAL GUESS DONE
                      ------------------
-------------------
DFT GRID GENERATION
-------------------

General Integration Accuracy     IntAcc      ...  5.340
Radial Grid Type                 RadialGrid  ... Gauss-Chebyshev
Angular Grid (max. acc.)         AngularGrid ... Lebedev-590
Angular grid pruning method      GridPruning ... 3 (G Style)
Weight generation scheme         WeightScheme... Becke
Basis function cutoff            BFCut       ...    1.0000e-11
Integration weight cutoff        WCut        ...    1.0000e-14
Grids for H and He will be reduced by one unit

# of grid points (after initial pruning)     ... 759344 (   0.0 sec)
# of grid points (after weights+screening)   ... 648462 (   0.5 sec)
nearest neighbour list constructed           ...    0.0 sec
Grid point re-assignment to atoms done       ...    0.1 sec
Grid point division into batches done        ...    6.7 sec
Reduced shell lists constructed in    7.0 sec

Total number of grid points                  ...   648462
Total number of batches                      ...    10161
Average number of points per batch           ...       63
Average number of grid points per atom       ...    11580
Average number of shells per batch           ...   127.36 (39.19%)
Average number of basis functions per batch  ...   239.59 (40.68%)
Average number of large shells per batch     ...    74.35 (58.37%)
Average number of large basis fcns per batch ...   152.58 (63.68%)
Maximum spatial batch extension              ...   5.57, 11.99, 13.05 au
Average spatial batch extension              ...   0.03,  0.03,  0.04 au

Time for grid setup =    7.841 sec

--------------
SCF ITERATIONS
--------------
ITER       Energy         Delta-E        Max-DP      RMS-DP      [F,P]     Damp
               ***  Starting incremental Fock matrix formation  ***
  0  -1108.4039319855   0.000000000000 2.79914346  0.01468422  0.4750295 0.8500
  1  -1109.0552297654  -0.651297779824 1.19509999  0.00673051  0.4048493 0.8500
                               ***Turning on DIIS***
  2  -1109.4947573772  -0.439527611884 0.30205297  0.00188808  0.3439184 0.8500
  3  -1109.8212696707  -0.326512293484 0.39721291  0.00220916  0.2919597 0.8500
  4  -1110.0993367804  -0.278067109653 0.43959983  0.00252598  0.2477761 0.8500
  5  -1110.3305815373  -0.231244756933 0.35658699  0.00218455  0.2104905 0.8500
  6  -1110.5309483145  -0.200366777181 0.28714070  0.00184083  0.1789905 0.8500
  7  -1110.7026798164  -0.171731501918 0.22898723  0.00151561  0.1522288 0.8500
  8  -1110.8488723422  -0.146192525740 0.21853691  0.00137238  0.1294322 0.8500
  9  -1110.9725551121  -0.123682769992 0.19996545  0.00122630  0.1099744 0.8500
 10  -1111.0771032477  -0.104548135593 0.16358542  0.00102739  0.0934225 0.8500
 11  -1111.1660810700  -0.088977822304 0.12987861  0.00084255  0.0793995 0.8500
 12  -1111.2418594502  -0.075778380154 0.10883893  0.00070791  0.0675083 0.8500
 13  -1111.3062436160  -0.064384165788 0.09777727  0.00061807  0.0573933 0.8500
 14  -1111.3608970905  -0.054653474526 0.08585485  0.00053490  0.0487732 0.8500
 15  -1111.4072970907  -0.046400000148 0.07079550  0.00044715  0.0414392 0.8500
 16  -1111.4467391935  -0.039442102805 0.05732371  0.00036841  0.0352163 0.8500
 17  -1111.4802719578  -0.033532764356 0.32154194  0.00205800  0.0299367 0.0000
 18  -1111.6700622109  -0.189790253129 0.02328992  0.00013642  0.0021610 0.0000
 19  -1111.6700286447   0.000033566282 0.00489206  0.00003298  0.0034628 0.0000
               *** Restarting incremental Fock matrix formation ***
                                   *** Resetting DIIS ***
 20  -1111.6700827712  -0.000054126562 0.01554896  0.00008521  0.0012301 0.0000
 21  -1111.6700719769   0.000010794284 0.00092672  0.00001087  0.0017754 0.0000
                      *** Initiating the SOSCF procedure ***
                           *** Shutting down DIIS ***
                      *** Re-Reading the Fockian *** 
                      *** Removing any level shift *** 
ITER      Energy       Delta-E        Grad      Rot      Max-DP    RMS-DP
 22  -1111.67008866  -0.0000166821  0.000082  0.000082  0.001412  0.000008
               *** Restarting incremental Fock matrix formation ***
 23  -1111.67009179  -0.0000031268  0.000114  0.000671  0.003450  0.000019
 24  -1111.67008686   0.0000049296  0.000340  0.000494  0.003762  0.000017
 25  -1111.67009233  -0.0000054759  0.000007  0.000042  0.000522  0.000004
 26  -1111.67009231   0.0000000209  0.000017  0.000039  0.000322  0.000002
 27  -1111.67009233  -0.0000000232  0.000004  0.000023  0.001457  0.000010
 28  -1111.67009233   0.0000000025  0.000008  0.000018  0.000307  0.000002
                  ***Gradient check signals convergence***
              ***Rediagonalizing the Fockian in SOSCF/NRSCF***

               *****************************************************
               *                     SUCCESS                       *
               *           SCF CONVERGED AFTER  29 CYCLES          *
               *****************************************************


----------------
TOTAL SCF ENERGY
----------------

Total Energy       :        -1111.67009234 Eh          -30250.08110 eV

Components:
Nuclear Repulsion  :         2214.09923117 Eh           60248.70307 eV
Electronic Energy  :        -3325.76932351 Eh          -90498.78416 eV
One Electron Energy:        -5907.73063240 Eh         -160757.52326 eV
Two Electron Energy:         2581.96130889 Eh           70258.73910 eV

Virial components:
Potential Energy   :        -2219.40327033 Eh          -60393.03331 eV
Kinetic Energy     :         1107.73317799 Eh           30142.95221 eV
Virial Ratio       :            2.00355403


DFT components:
N(Alpha)           :       96.000046885814 electrons
N(Beta)            :       96.000046885814 electrons
N(Total)           :      192.000093771627 electrons
E(XC)              :     -160.705713994211 Eh       
DFET-embed. en.    :        0.000000000000 Eh       

---------------
SCF CONVERGENCE
---------------

  Last Energy change         ...   -8.9531e-09  Tolerance :   1.0000e-08
  Last MAX-Density change    ...    6.3987e-04  Tolerance :   1.0000e-07
  Last RMS-Density change    ...    3.6551e-06  Tolerance :   5.0000e-09
  Last Orbital Gradient      ...    7.4364e-07  Tolerance :   1.0000e-05
  Last Orbital Rotation      ...    4.4277e-06  Tolerance :   1.0000e-05

             **** THE GBW FILE WAS UPDATED (_o_1_alde1_2_ami3_2_opt_B97-3c.gbw) ****
             **** DENSITY FILE WAS UPDATED (_o_1_alde1_2_ami3_2_opt_B97-3c.scfp) ****
             **** ENERGY FILE WAS UPDATED (_o_1_alde1_2_ami3_2_opt_B97-3c.en.tmp) ****
             **** THE GBW FILE WAS UPDATED (_o_1_alde1_2_ami3_2_opt_B97-3c.gbw) ****
             **** DENSITY FILE WAS UPDATED (_o_1_alde1_2_ami3_2_opt_B97-3c.scfp) ****
----------------
ORBITAL ENERGIES
----------------

  NO   OCC          E(Eh)            E(eV) 
   0   2.0000     -18.741064      -509.9703 
   1   2.0000     -13.983992      -380.5238 
   2   2.0000     -13.981371      -380.4524 
   3   2.0000     -13.969797      -380.1375 
   4   2.0000     -13.966717      -380.0537 
   5   2.0000      -9.976064      -271.4625 
   6   2.0000      -9.940339      -270.4904 
   7   2.0000      -9.937839      -270.4224 
   8   2.0000      -9.921364      -269.9740 
   9   2.0000      -9.920147      -269.9409 
  10   2.0000      -9.919572      -269.9253 
  11   2.0000      -9.918962      -269.9087 
  12   2.0000      -9.918292      -269.8904 
  13   2.0000      -9.917128      -269.8588 
  14   2.0000      -9.916493      -269.8415 
  15   2.0000      -9.915546      -269.8157 
  16   2.0000      -9.914948      -269.7994 
  17   2.0000      -9.911243      -269.6986 
  18   2.0000      -9.889567      -269.1088 
  19   2.0000      -9.886158      -269.0160 
  20   2.0000      -9.884645      -268.9749 
  21   2.0000      -9.881529      -268.8901 
  22   2.0000      -9.880376      -268.8587 
  23   2.0000      -9.880027      -268.8492 
  24   2.0000      -9.876688      -268.7584 
  25   2.0000      -9.875690      -268.7312 
  26   2.0000      -0.970187       -26.4001 
  27   2.0000      -0.870102       -23.6767 
  28   2.0000      -0.867147       -23.5963 
  29   2.0000      -0.823535       -22.4095 
  30   2.0000      -0.819504       -22.2999 
  31   2.0000      -0.808078       -21.9889 
  32   2.0000      -0.748158       -20.3584 
  33   2.0000      -0.742878       -20.2147 
  34   2.0000      -0.723574       -19.6894 
  35   2.0000      -0.718523       -19.5520 
  36   2.0000      -0.679479       -18.4896 
  37   2.0000      -0.672911       -18.3108 
  38   2.0000      -0.661721       -18.0063 
  39   2.0000      -0.657027       -17.8786 
  40   2.0000      -0.610317       -16.6076 
  41   2.0000      -0.602576       -16.3969 
  42   2.0000      -0.586113       -15.9490 
  43   2.0000      -0.555454       -15.1147 
  44   2.0000      -0.552931       -15.0460 
  45   2.0000      -0.549947       -14.9648 
  46   2.0000      -0.540330       -14.7031 
  47   2.0000      -0.519625       -14.1397 
  48   2.0000      -0.512219       -13.9382 
  49   2.0000      -0.489718       -13.3259 
  50   2.0000      -0.487715       -13.2714 
  51   2.0000      -0.470301       -12.7976 
  52   2.0000      -0.464399       -12.6369 
  53   2.0000      -0.460642       -12.5347 
  54   2.0000      -0.445194       -12.1143 
  55   2.0000      -0.439283       -11.9535 
  56   2.0000      -0.429221       -11.6797 
  57   2.0000      -0.425832       -11.5875 
  58   2.0000      -0.417150       -11.3512 
  59   2.0000      -0.409725       -11.1492 
  60   2.0000      -0.407947       -11.1008 
  61   2.0000      -0.403774       -10.9873 
  62   2.0000      -0.398876       -10.8540 
  63   2.0000      -0.398051       -10.8315 
  64   2.0000      -0.392120       -10.6701 
  65   2.0000      -0.388739       -10.5781 
  66   2.0000      -0.380556       -10.3555 
  67   2.0000      -0.379130       -10.3166 
  68   2.0000      -0.360220        -9.8021 
  69   2.0000      -0.357325        -9.7233 
  70   2.0000      -0.355015        -9.6604 
  71   2.0000      -0.351565        -9.5666 
  72   2.0000      -0.344526        -9.3750 
  73   2.0000      -0.341789        -9.3006 
  74   2.0000      -0.340577        -9.2676 
  75   2.0000      -0.335627        -9.1329 
  76   2.0000      -0.331933        -9.0324 
  77   2.0000      -0.330984        -9.0065 
  78   2.0000      -0.325376        -8.8539 
  79   2.0000      -0.320160        -8.7120 
  80   2.0000      -0.312893        -8.5142 
  81   2.0000      -0.309726        -8.4281 
  82   2.0000      -0.292419        -7.9571 
  83   2.0000      -0.288454        -7.8492 
  84   2.0000      -0.287250        -7.8165 
  85   2.0000      -0.271288        -7.3821 
  86   2.0000      -0.267351        -7.2750 
  87   2.0000      -0.266391        -7.2489 
  88   2.0000      -0.262203        -7.1349 
  89   2.0000      -0.240630        -6.5479 
  90   2.0000      -0.224666        -6.1135 
  91   2.0000      -0.220576        -6.0022 
  92   2.0000      -0.216210        -5.8834 
  93   2.0000      -0.214825        -5.8457 
  94   2.0000      -0.198731        -5.4077 
  95   2.0000      -0.195700        -5.3253 
  96   0.0000      -0.100606        -2.7376 
  97   0.0000      -0.095238        -2.5916 
  98   0.0000      -0.060500        -1.6463 
  99   0.0000       0.009809         0.2669 
 100   0.0000       0.012774         0.3476 
 101   0.0000       0.016818         0.4576 
 102   0.0000       0.026514         0.7215 
 103   0.0000       0.033427         0.9096 
 104   0.0000       0.037982         1.0335 
 105   0.0000       0.042371         1.1530 
 106   0.0000       0.045525         1.2388 
 107   0.0000       0.048416         1.3175 
 108   0.0000       0.050819         1.3829 
 109   0.0000       0.057943         1.5767 
 110   0.0000       0.065540         1.7834 
 111   0.0000       0.068746         1.8707 
 112   0.0000       0.072530         1.9736 
 113   0.0000       0.080069         2.1788 
 114   0.0000       0.082669         2.2495 
 115   0.0000       0.084460         2.2983 
 116   0.0000       0.087056         2.3689 
 117   0.0000       0.089491         2.4352 
 118   0.0000       0.094513         2.5718 
 119   0.0000       0.096341         2.6216 
 120   0.0000       0.098582         2.6826 
 121   0.0000       0.102191         2.7808 
 122   0.0000       0.104572         2.8455 
 123   0.0000       0.108934         2.9643 
 124   0.0000       0.114064         3.1038 
 125   0.0000       0.117020         3.1843 
 126   0.0000       0.123513         3.3610 
 127   0.0000       0.125952         3.4273 
 128   0.0000       0.128026         3.4838 
 129   0.0000       0.130480         3.5505 
 130   0.0000       0.131181         3.5696 
 131   0.0000       0.139898         3.8068 
 132   0.0000       0.141097         3.8395 
 133   0.0000       0.145094         3.9482 
 134   0.0000       0.157943         4.2978 
 135   0.0000       0.166102         4.5199 
 136   0.0000       0.170063         4.6276 
 137   0.0000       0.171200         4.6586 
 138   0.0000       0.173709         4.7269 
 139   0.0000       0.175147         4.7660 
 140   0.0000       0.178514         4.8576 
 141   0.0000       0.179975         4.8974 
 142   0.0000       0.181864         4.9488 
 143   0.0000       0.184050         5.0083 
 144   0.0000       0.186660         5.0793 
 145   0.0000       0.191636         5.2147 
 146   0.0000       0.193338         5.2610 
 147   0.0000       0.196025         5.3341 
 148   0.0000       0.199822         5.4374 
 149   0.0000       0.201149         5.4736 
 150   0.0000       0.203083         5.5262 
 151   0.0000       0.204683         5.5697 
 152   0.0000       0.209453         5.6995 
 153   0.0000       0.211254         5.7485 
 154   0.0000       0.213571         5.8116 
 155   0.0000       0.217726         5.9246 
 156   0.0000       0.227126         6.1804 
 157   0.0000       0.228317         6.2128 
 158   0.0000       0.230886         6.2827 
 159   0.0000       0.232720         6.3326 
 160   0.0000       0.237367         6.4591 
 161   0.0000       0.237940         6.4747 
 162   0.0000       0.244365         6.6495 
 163   0.0000       0.246726         6.7138 
 164   0.0000       0.250474         6.8157 
 165   0.0000       0.252607         6.8738 
 166   0.0000       0.257095         6.9959 
 167   0.0000       0.261279         7.1098 
 168   0.0000       0.264893         7.2081 
 169   0.0000       0.269172         7.3245 
 170   0.0000       0.269856         7.3431 
 171   0.0000       0.271736         7.3943 
 172   0.0000       0.279103         7.5948 
 173   0.0000       0.287003         7.8097 
 174   0.0000       0.294711         8.0195 
 175   0.0000       0.304018         8.2727 
 176   0.0000       0.306518         8.3408 
 177   0.0000       0.308048         8.3824 
 178   0.0000       0.313009         8.5174 
 179   0.0000       0.318151         8.6573 
 180   0.0000       0.320928         8.7329 
 181   0.0000       0.324930         8.8418 
 182   0.0000       0.332746         9.0545 
 183   0.0000       0.335052         9.1172 
 184   0.0000       0.341829         9.3016 
 185   0.0000       0.344582         9.3765 
 186   0.0000       0.346533         9.4296 
 187   0.0000       0.348518         9.4837 
 188   0.0000       0.350636         9.5413 
 189   0.0000       0.352790         9.5999 
 190   0.0000       0.356640         9.7047 
 191   0.0000       0.360927         9.8213 
 192   0.0000       0.363423         9.8893 
 193   0.0000       0.371139        10.0992 
 194   0.0000       0.371895        10.1198 
 195   0.0000       0.373182        10.1548 
 196   0.0000       0.378582        10.3018 
 197   0.0000       0.382561        10.4100 
 198   0.0000       0.385722        10.4960 
 199   0.0000       0.386660        10.5216 
 200   0.0000       0.391060        10.6413 
 201   0.0000       0.395393        10.7592 
 202   0.0000       0.400637        10.9019 
 203   0.0000       0.403997        10.9933 
 204   0.0000       0.406397        11.0586 
 205   0.0000       0.410404        11.1677 
 206   0.0000       0.412276        11.2186 
 207   0.0000       0.413820        11.2606 
 208   0.0000       0.414830        11.2881 
 209   0.0000       0.418952        11.4003 
 210   0.0000       0.420046        11.4300 
 211   0.0000       0.424839        11.5605 
 212   0.0000       0.426683        11.6106 
 213   0.0000       0.427889        11.6435 
 214   0.0000       0.431606        11.7446 
 215   0.0000       0.433419        11.7939 
 216   0.0000       0.436088        11.8666 
 217   0.0000       0.436740        11.8843 
 218   0.0000       0.438965        11.9448 
 219   0.0000       0.440067        11.9748 
 220   0.0000       0.444554        12.0969 
 221   0.0000       0.448695        12.2096 
 222   0.0000       0.449923        12.2430 
 223   0.0000       0.452582        12.3154 
 224   0.0000       0.454750        12.3744 
 225   0.0000       0.455382        12.3916 
 226   0.0000       0.457881        12.4596 
 227   0.0000       0.466074        12.6825 
 228   0.0000       0.466435        12.6923 
 229   0.0000       0.471554        12.8316 
 230   0.0000       0.473568        12.8864 
 231   0.0000       0.476395        12.9634 
 232   0.0000       0.478920        13.0321 
 233   0.0000       0.483332        13.1521 
 234   0.0000       0.486952        13.2506 
 235   0.0000       0.490198        13.3390 
 236   0.0000       0.491917        13.3857 
 237   0.0000       0.503162        13.6917 
 238   0.0000       0.504906        13.7392 
 239   0.0000       0.508131        13.8269 
 240   0.0000       0.511308        13.9134 
 241   0.0000       0.516611        14.0577 
 242   0.0000       0.521256        14.1841 
 243   0.0000       0.525531        14.3004 
 244   0.0000       0.529151        14.3989 
 245   0.0000       0.533008        14.5039 
 246   0.0000       0.536850        14.6084 
 247   0.0000       0.545203        14.8357 
 248   0.0000       0.548328        14.9208 
 249   0.0000       0.559249        15.2179 
 250   0.0000       0.563045        15.3212 
 251   0.0000       0.570638        15.5278 
 252   0.0000       0.572915        15.5898 
 253   0.0000       0.577189        15.7061 
 254   0.0000       0.579326        15.7643 
 255   0.0000       0.591476        16.0949 
 256   0.0000       0.594450        16.1758 
 257   0.0000       0.597208        16.2509 
 258   0.0000       0.604594        16.4518 
 259   0.0000       0.611020        16.6267 
 260   0.0000       0.620097        16.8737 
 261   0.0000       0.625298        17.0152 
 262   0.0000       0.632387        17.2081 
 263   0.0000       0.635251        17.2860 
 264   0.0000       0.642739        17.4898 
 265   0.0000       0.654502        17.8099 
 266   0.0000       0.665225        18.1017 
 267   0.0000       0.666895        18.1471 
 268   0.0000       0.674320        18.3492 
 269   0.0000       0.683620        18.6023 
 270   0.0000       0.690140        18.7797 
 271   0.0000       0.692430        18.8420 
 272   0.0000       0.703515        19.1436 
 273   0.0000       0.708534        19.2802 
 274   0.0000       0.712765        19.3953 
 275   0.0000       0.713428        19.4134 
 276   0.0000       0.716721        19.5030 
 277   0.0000       0.718296        19.5458 
 278   0.0000       0.722467        19.6593 
 279   0.0000       0.727871        19.8064 
 280   0.0000       0.739894        20.1335 
 281   0.0000       0.741334        20.1727 
 282   0.0000       0.756631        20.5890 
 283   0.0000       0.762016        20.7355 
 284   0.0000       0.762493        20.7485 
 285   0.0000       0.769886        20.9497 
 286   0.0000       0.774337        21.0708 
 287   0.0000       0.800638        21.7865 
 288   0.0000       0.809655        22.0318 
 289   0.0000       0.817779        22.2529 
 290   0.0000       0.821301        22.3487 
 291   0.0000       0.831758        22.6333 
 292   0.0000       0.837429        22.7876 
 293   0.0000       0.846369        23.0309 
 294   0.0000       0.854669        23.2567 
 295   0.0000       0.869229        23.6529 
 296   0.0000       0.896188        24.3865 
 297   0.0000       0.953620        25.9493 
 298   0.0000       0.991145        26.9704 
 299   0.0000       1.119078        30.4517 
 300   0.0000       1.164137        31.6778 
 301   0.0000       1.166961        31.7546 
 302   0.0000       1.172398        31.9026 
 303   0.0000       1.227768        33.4093 
 304   0.0000       1.232578        33.5401 
 305   0.0000       1.237079        33.6626 
 306   0.0000       1.237869        33.6841 
 307   0.0000       1.238744        33.7079 
 308   0.0000       1.244895        33.8753 
 309   0.0000       1.262883        34.3648 
 310   0.0000       1.274640        34.6847 
 311   0.0000       1.282657        34.9029 
 312   0.0000       1.303358        35.4662 
 313   0.0000       1.315511        35.7969 
 314   0.0000       1.321567        35.9617 
 315   0.0000       1.328916        36.1616 
 316   0.0000       1.331263        36.2255 
 317   0.0000       1.336869        36.3780 
 318   0.0000       1.339647        36.4537 
 319   0.0000       1.348084        36.6832 
 320   0.0000       1.354377        36.8545 
 321   0.0000       1.356983        36.9254 
 322   0.0000       1.359795        37.0019 
 323   0.0000       1.372409        37.3451 
 324   0.0000       1.377084        37.4724 
 325   0.0000       1.393924        37.9306 
 326   0.0000       1.399965        38.0950 
 327   0.0000       1.402798        38.1721 
 328   0.0000       1.406028        38.2600 
 329   0.0000       1.418551        38.6007 
 330   0.0000       1.424427        38.7606 
 331   0.0000       1.429103        38.8879 
 332   0.0000       1.434012        39.0215 
 333   0.0000       1.435883        39.0724 
 334   0.0000       1.439319        39.1658 
 335   0.0000       1.442922        39.2639 
 336   0.0000       1.447153        39.3790 
 337   0.0000       1.447864        39.3984 
 338   0.0000       1.451770        39.5047 
 339   0.0000       1.457711        39.6663 
 340   0.0000       1.461901        39.7804 
 341   0.0000       1.469014        39.9739 
 342   0.0000       1.472689        40.0739 
 343   0.0000       1.481635        40.3173 
 344   0.0000       1.485376        40.4191 
 345   0.0000       1.489210        40.5235 
 346   0.0000       1.490532        40.5594 
 347   0.0000       1.490736        40.5650 
 348   0.0000       1.497285        40.7432 
 349   0.0000       1.499689        40.8086 
 350   0.0000       1.508312        41.0433 
 351   0.0000       1.510962        41.1154 
 352   0.0000       1.514285        41.2058 
 353   0.0000       1.516488        41.2657 
 354   0.0000       1.518570        41.3224 
 355   0.0000       1.523738        41.4630 
 356   0.0000       1.528452        41.5913 
 357   0.0000       1.530225        41.6395 
 358   0.0000       1.532451        41.7001 
 359   0.0000       1.542996        41.9870 
 360   0.0000       1.547297        42.1041 
 361   0.0000       1.551625        42.2219 
 362   0.0000       1.554607        42.3030 
 363   0.0000       1.558050        42.3967 
 364   0.0000       1.567658        42.6581 
 365   0.0000       1.584903        43.1274 
 366   0.0000       1.588166        43.2162 
 367   0.0000       1.599950        43.5368 
 368   0.0000       1.605074        43.6763 
 369   0.0000       1.607741        43.7489 
 370   0.0000       1.613477        43.9049 
 371   0.0000       1.620217        44.0884 
 372   0.0000       1.623869        44.1877 
 373   0.0000       1.627221        44.2789 
 374   0.0000       1.632445        44.4211 
 375   0.0000       1.634690        44.4822 
 376   0.0000       1.636193        44.5231 
 377   0.0000       1.636940        44.5434 
 378   0.0000       1.643469        44.7211 
 379   0.0000       1.647530        44.8316 
 380   0.0000       1.655621        45.0517 
 381   0.0000       1.659045        45.1449 
 382   0.0000       1.659931        45.1690 
 383   0.0000       1.664766        45.3006 
 384   0.0000       1.668898        45.4130 
 385   0.0000       1.677331        45.6425 
 386   0.0000       1.682346        45.7790 
 387   0.0000       1.690302        45.9955 
 388   0.0000       1.694518        46.1102 
 389   0.0000       1.697075        46.1798 
 390   0.0000       1.700802        46.2812 
 391   0.0000       1.707901        46.4743 
 392   0.0000       1.714000        46.6403 
 393   0.0000       1.718795        46.7708 
 394   0.0000       1.727703        47.0132 
 395   0.0000       1.737080        47.2684 
 396   0.0000       1.754829        47.7513 
 397   0.0000       1.757483        47.8235 
 398   0.0000       1.762353        47.9561 
 399   0.0000       1.765297        48.0362 
 400   0.0000       1.770586        48.1801 
 401   0.0000       1.778208        48.3875 
 402   0.0000       1.780937        48.4618 
 403   0.0000       1.793175        48.7948 
 404   0.0000       1.800238        48.9870 
 405   0.0000       1.803674        49.0805 
 406   0.0000       1.807323        49.1798 
 407   0.0000       1.814101        49.3642 
 408   0.0000       1.816134        49.4195 
 409   0.0000       1.818589        49.4863 
 410   0.0000       1.822606        49.5956 
 411   0.0000       1.828539        49.7571 
 412   0.0000       1.832775        49.8723 
 413   0.0000       1.836675        49.9785 
 414   0.0000       1.848460        50.2992 
 415   0.0000       1.853232        50.4290 
 416   0.0000       1.870461        50.8978 
 417   0.0000       1.875110        51.0243 
 418   0.0000       1.877761        51.0965 
 419   0.0000       1.894369        51.5484 
 420   0.0000       1.899868        51.6980 
 421   0.0000       1.905920        51.8627 
 422   0.0000       1.911583        52.0168 
 423   0.0000       1.923543        52.3423 
 424   0.0000       1.927744        52.4566 
 425   0.0000       1.930845        52.5410 
 426   0.0000       1.940435        52.8019 
 427   0.0000       1.961738        53.3816 
 428   0.0000       1.965286        53.4782 
 429   0.0000       1.965947        53.4961 
 430   0.0000       1.970052        53.6078 
 431   0.0000       1.977071        53.7988 
 432   0.0000       1.985784        54.0359 
 433   0.0000       1.988339        54.1054 
 434   0.0000       1.997807        54.3631 
 435   0.0000       2.000866        54.4463 
 436   0.0000       2.003869        54.5281 
 437   0.0000       2.013759        54.7972 
 438   0.0000       2.025301        55.1113 
 439   0.0000       2.036493        55.4158 
 440   0.0000       2.040572        55.5268 
 441   0.0000       2.044592        55.6362 
 442   0.0000       2.056904        55.9712 
 443   0.0000       2.060901        56.0800 
 444   0.0000       2.070562        56.3429 
 445   0.0000       2.073949        56.4350 
 446   0.0000       2.099069        57.1186 
 447   0.0000       2.109890        57.4130 
 448   0.0000       2.113966        57.5239 
 449   0.0000       2.116203        57.5848 
 450   0.0000       2.130421        57.9717 
 451   0.0000       2.133738        58.0620 
 452   0.0000       2.146900        58.4201 
 453   0.0000       2.168382        59.0047 
 454   0.0000       2.175846        59.2078 
 455   0.0000       2.192875        59.6712 
 456   0.0000       2.195551        59.7440 
 457   0.0000       2.208022        60.0833 
 458   0.0000       2.220705        60.4285 
 459   0.0000       2.229948        60.6800 
 460   0.0000       2.239763        60.9470 
 461   0.0000       2.240867        60.9771 
 462   0.0000       2.246524        61.1310 
 463   0.0000       2.253681        61.3258 
 464   0.0000       2.258188        61.4484 
 465   0.0000       2.264736        61.6266 
 466   0.0000       2.271655        61.8149 
 467   0.0000       2.276908        61.9578 
 468   0.0000       2.281198        62.0745 
 469   0.0000       2.284784        62.1721 
 470   0.0000       2.288954        62.2856 
 471   0.0000       2.312099        62.9154 
 472   0.0000       2.326939        63.3192 
 473   0.0000       2.335329        63.5475 
 474   0.0000       2.343351        63.7658 
 475   0.0000       2.348663        63.9104 
 476   0.0000       2.354045        64.0568 
 477   0.0000       2.366211        64.3879 
 478   0.0000       2.375816        64.6492 
 479   0.0000       2.381154        64.7945 
 480   0.0000       2.385797        64.9208 
 481   0.0000       2.397490        65.2390 
 482   0.0000       2.408435        65.5368 
 483   0.0000       2.416111        65.7457 
 484   0.0000       2.421622        65.8957 
 485   0.0000       2.445625        66.5488 
 486   0.0000       2.460540        66.9547 
 487   0.0000       2.471994        67.2664 
 488   0.0000       2.473644        67.3113 
 489   0.0000       2.477788        67.4240 
 490   0.0000       2.485393        67.6310 
 491   0.0000       2.490147        67.7603 
 492   0.0000       2.500246        68.0352 
 493   0.0000       2.504698        68.1563 
 494   0.0000       2.512483        68.3681 
 495   0.0000       2.520800        68.5945 
 496   0.0000       2.535178        68.9857 
 497   0.0000       2.557291        69.5874 
 498   0.0000       2.569307        69.9144 
 499   0.0000       2.582722        70.2794 
 500   0.0000       2.589686        70.4689 
 501   0.0000       2.601606        70.7933 
 502   0.0000       2.609686        71.0132 
 503   0.0000       2.632603        71.6368 
 504   0.0000       2.634499        71.6884 
 505   0.0000       2.650821        72.1325 
 506   0.0000       2.655389        72.2568 
 507   0.0000       2.671258        72.6886 
 508   0.0000       2.686814        73.1119 
 509   0.0000       2.688903        73.1688 
 510   0.0000       2.702103        73.5280 
 511   0.0000       2.706521        73.6482 
 512   0.0000       2.727006        74.2056 
 513   0.0000       2.732029        74.3423 
 514   0.0000       2.749538        74.8187 
 515   0.0000       2.772152        75.4341 
 516   0.0000       2.810589        76.4800 
 517   0.0000       2.812400        76.5293 
 518   0.0000       2.815665        76.6181 
 519   0.0000       2.824679        76.8634 
 520   0.0000       2.844169        77.3938 
 521   0.0000       2.854765        77.6821 
 522   0.0000       2.858590        77.7862 
 523   0.0000       2.863650        77.9239 
 524   0.0000       2.870553        78.1117 
 525   0.0000       2.875334        78.2418 
 526   0.0000       2.884336        78.4868 
 527   0.0000       2.891568        78.6836 
 528   0.0000       2.905675        79.0674 
 529   0.0000       2.930810        79.7514 
 530   0.0000       2.947498        80.2055 
 531   0.0000       2.963614        80.6440 
 532   0.0000       2.968840        80.7863 
 533   0.0000       3.011638        81.9508 
 534   0.0000       3.066528        83.4445 
 535   0.0000       3.108835        84.5957 
 536   0.0000       3.110202        84.6329 
 537   0.0000       3.112482        84.6949 
 538   0.0000       3.124894        85.0327 
 539   0.0000       3.138136        85.3930 
 540   0.0000       3.142307        85.5065 
 541   0.0000       3.156464        85.8917 
 542   0.0000       3.171209        86.2930 
 543   0.0000       3.172032        86.3154 
 544   0.0000       3.175214        86.4020 
 545   0.0000       3.177752        86.4710 
 546   0.0000       3.181805        86.5813 
 547   0.0000       3.204766        87.2061 
 548   0.0000       3.212037        87.4040 
 549   0.0000       3.217888        87.5632 
 550   0.0000       3.221474        87.6608 
 551   0.0000       3.232205        87.9528 
 552   0.0000       3.254431        88.5576 
 553   0.0000       3.297026        89.7166 
 554   0.0000       3.352357        91.2223 
 555   0.0000       3.360673        91.4486 
 556   0.0000       3.434982        93.4706 
 557   0.0000       3.447723        93.8173 
 558   0.0000       3.514376        95.6310 
 559   0.0000       3.532383        96.1210 
 560   0.0000       3.634863        98.9096 
 561   0.0000       3.642147        99.1079 
 562   0.0000       3.963586       107.8546 
 563   0.0000      21.064261       573.1877 
 564   0.0000      21.591345       587.5304 
 565   0.0000      21.616212       588.2070 
 566   0.0000      21.663464       589.4928 
 567   0.0000      21.684352       590.0612 
 568   0.0000      21.754212       591.9622 
 569   0.0000      21.758975       592.0918 
 570   0.0000      21.824857       593.8846 
 571   0.0000      21.844722       594.4251 
 572   0.0000      21.893320       595.7475 
 573   0.0000      21.920850       596.4967 
 574   0.0000      21.937021       596.9367 
 575   0.0000      21.940014       597.0181 
 576   0.0000      21.972299       597.8967 
 577   0.0000      21.988570       598.3394 
 578   0.0000      21.993096       598.4626 
 579   0.0000      22.008385       598.8786 
 580   0.0000      22.051869       600.0619 
 581   0.0000      22.075005       600.6914 
 582   0.0000      22.100681       601.3901 
 583   0.0000      22.124056       602.0262 
 584   0.0000      31.623014       860.5060 
 585   0.0000      31.627091       860.6169 
 586   0.0000      31.787950       864.9941 
 587   0.0000      31.807415       865.5238 
 588   0.0000      43.315334      1178.6702 

                    ********************************
                    * MULLIKEN POPULATION ANALYSIS *
                    ********************************

-----------------------
MULLIKEN ATOMIC CHARGES
-----------------------
   0 C :    0.197500
   1 C :   -0.169751
   2 C :   -0.056372
   3 C :    0.245370
   4 H :    0.250074
   5 C :   -0.223277
   6 C :    0.159924
   7 H :    0.217225
   8 C :   -0.096305
   9 C :   -0.359305
  10 H :    0.238931
  11 C :   -0.377338
  12 O :   -0.301980
  13 C :   -0.051914
  14 C :   -0.187648
  15 N :   -0.070868
  16 H :    0.124928
  17 C :   -0.420973
  18 N :   -0.606747
  19 H :    0.160908
  20 C :   -0.276507
  21 C :   -0.260678
  22 C :   -0.342133
  23 C :   -0.185284
  24 C :   -0.052839
  25 N :   -0.606708
  26 H :    0.161964
  27 C :   -0.274903
  28 N :   -0.077904
  29 H :    0.127414
  30 C :   -0.421794
  31 C :   -0.342953
  32 C :   -0.257585
  33 H :    0.103625
  34 H :    0.306381
  35 H :    0.299431
  36 H :    0.299249
  37 H :    0.305847
  38 H :    0.135421
  39 H :    0.174037
  40 H :    0.162158
  41 H :    0.163807
  42 H :    0.174914
  43 H :    0.165963
  44 H :    0.167879
  45 H :    0.159130
  46 H :    0.113299
  47 H :    0.113795
  48 H :    0.152711
  49 H :    0.165627
  50 H :    0.176400
  51 H :    0.167062
  52 H :    0.160900
  53 H :    0.159670
  54 H :    0.137529
  55 H :    0.172697
Sum of atomic charges:   -0.0000000

--------------------------------
MULLIKEN REDUCED ORBITAL CHARGES
--------------------------------
  0 C s       :     3.292727  s :     3.292727
      pz      :     0.918139  p :     2.462641
      px      :     0.682026
      py      :     0.862476
      dz2     :     0.004996  d :     0.047131
      dxz     :     0.009644
      dyz     :     0.006851
      dx2y2   :     0.013133
      dxy     :     0.012506
  1 C s       :     3.365415  s :     3.365415
      pz      :     0.861757  p :     2.718501
      px      :     0.928773
      py      :     0.927971
      dz2     :     0.006469  d :     0.085836
      dxz     :     0.020706
      dyz     :     0.008591
      dx2y2   :     0.025849
      dxy     :     0.024221
  2 C s       :     3.144468  s :     3.144468
      pz      :     0.932512  p :     2.870983
      px      :     0.958291
      py      :     0.980180
      dz2     :     0.006450  d :     0.040921
      dxz     :     0.006125
      dyz     :     0.006443
      dx2y2   :     0.011467
      dxy     :     0.010436
  3 C s       :     3.255558  s :     3.255558
      pz      :     0.865883  p :     2.450476
      px      :     0.829573
      py      :     0.755020
      dz2     :     0.005989  d :     0.048596
      dxz     :     0.009950
      dyz     :     0.006663
      dx2y2   :     0.012324
      dxy     :     0.013670
  4 H s       :     0.749926  s :     0.749926
  5 C s       :     2.980357  s :     2.980357
      pz      :     1.015625  p :     3.201862
      px      :     1.145714
      py      :     1.040523
      dz2     :     0.003866  d :     0.041058
      dxz     :     0.008631
      dyz     :     0.006483
      dx2y2   :     0.011583
      dxy     :     0.010496
  6 C s       :     3.255099  s :     3.255099
      pz      :     0.894378  p :     2.536513
      px      :     0.837674
      py      :     0.804460
      dz2     :     0.006548  d :     0.048465
      dxz     :     0.009223
      dyz     :     0.006844
      dx2y2   :     0.012754
      dxy     :     0.013096
  7 H s       :     0.782775  s :     0.782775
  8 C s       :     3.003887  s :     3.003887
      pz      :     1.007462  p :     3.051376
      px      :     0.957288
      py      :     1.086626
      dz2     :     0.004427  d :     0.041042
      dxz     :     0.008605
      dyz     :     0.006037
      dx2y2   :     0.010243
      dxy     :     0.011729
  9 C s       :     3.333388  s :     3.333388
      pz      :     0.940120  p :     2.963732
      px      :     1.024394
      py      :     0.999218
      dz2     :     0.006852  d :     0.062185
      dxz     :     0.011575
      dyz     :     0.009426
      dx2y2   :     0.020292
      dxy     :     0.014041
 10 H s       :     0.761069  s :     0.761069
 11 C s       :     3.345144  s :     3.345144
      pz      :     0.980775  p :     2.970066
      px      :     0.981482
      py      :     1.007809
      dz2     :     0.004476  d :     0.062128
      dxz     :     0.015910
      dyz     :     0.006072
      dx2y2   :     0.016246
      dxy     :     0.019423
 12 O s       :     3.844481  s :     3.844481
      pz      :     1.474245  p :     4.426231
      px      :     1.382651
      py      :     1.569335
      dz2     :     0.005047  d :     0.031268
      dxz     :     0.006810
      dyz     :     0.003730
      dx2y2   :     0.006742
      dxy     :     0.008939
 13 C s       :     3.130911  s :     3.130911
      pz      :     1.002318  p :     2.857853
      px      :     0.858272
      py      :     0.997263
      dz2     :     0.006614  d :     0.063150
      dxz     :     0.015660
      dyz     :     0.016650
      dx2y2   :     0.010124
      dxy     :     0.014103
 14 C s       :     3.156356  s :     3.156356
      pz      :     1.047883  p :     2.968854
      px      :     0.941039
      py      :     0.979932
      dz2     :     0.005428  d :     0.062438
      dxz     :     0.015162
      dyz     :     0.016476
      dx2y2   :     0.010072
      dxy     :     0.015300
 15 N s       :     3.482095  s :     3.482095
      pz      :     1.174553  p :     3.544182
      px      :     1.056143
      py      :     1.313486
      dz2     :     0.004642  d :     0.044592
      dxz     :     0.011790
[...]
      pz      :     1.005734  p :     3.138346
      px      :     1.081923
      py      :     1.050689
      dz2     :     0.007142  d :     0.079518
      dxz     :     0.017058
      dyz     :     0.010286
      dx2y2   :     0.023476
      dxy     :     0.021556
  6 C s       :     2.853404  s :     2.853404
      pz      :     1.011729  p :     3.127508
      px      :     1.061963
      py      :     1.053815
      dz2     :     0.012367  d :     0.099867
      dxz     :     0.018501
      dyz     :     0.014555
      dx2y2   :     0.026337
      dxy     :     0.028108
  7 H s       :     0.826851  s :     0.826851
  8 C s       :     2.895791  s :     2.895791
      pz      :     0.990600  p :     3.122172
      px      :     1.092083
      py      :     1.039489
      dz2     :     0.008138  d :     0.080155
      dxz     :     0.015663
      dyz     :     0.011567
      dx2y2   :     0.021336
      dxy     :     0.023452
  9 C s       :     2.898779  s :     2.898779
      pz      :     0.954834  p :     3.011166
      px      :     1.033452
      py      :     1.022879
      dz2     :     0.011432  d :     0.125177
      dxz     :     0.023347
      dyz     :     0.017004
      dx2y2   :     0.042315
      dxy     :     0.031079
 10 H s       :     0.814616  s :     0.814616
 11 C s       :     2.899133  s :     2.899133
      pz      :     0.965112  p :     3.012211
      px      :     1.033554
      py      :     1.013546
      dz2     :     0.009759  d :     0.124982
      dxz     :     0.032471
      dyz     :     0.009037
      dx2y2   :     0.031597
      dxy     :     0.042117
 12 O s       :     3.565935  s :     3.565935
      pz      :     1.476078  p :     4.636010
      px      :     1.569593
      py      :     1.590339
      dz2     :     0.031278  d :     0.258485
      dxz     :     0.048016
      dyz     :     0.024459
      dx2y2   :     0.084505
      dxy     :     0.070226
 13 C s       :     2.890856  s :     2.890856
      pz      :     1.048594  p :     3.120568
      px      :     1.020290
      py      :     1.051684
      dz2     :     0.011360  d :     0.119990
      dxz     :     0.031432
      dyz     :     0.032726
      dx2y2   :     0.015784
      dxy     :     0.028686
 14 C s       :     2.888691  s :     2.888691
      pz      :     1.065287  p :     3.125479
      px      :     1.040001
      py      :     1.020191
      dz2     :     0.009759  d :     0.120360
      dxz     :     0.028445
      dyz     :     0.032611
      dx2y2   :     0.018119
      dxy     :     0.031426
 15 N s       :     3.230965  s :     3.230965
      pz      :     1.233816  p :     3.850697
      px      :     1.233967
      py      :     1.382914
      dz2     :     0.009042  d :     0.081216
      dxz     :     0.020536
      dyz     :     0.008273
      dx2y2   :     0.018439
      dxy     :     0.024926
 16 H s       :     0.852811  s :     0.852811
 17 C s       :     2.935252  s :     2.935252
      pz      :     1.080213  p :     3.275309
      px      :     1.101748
      py      :     1.093348
      dz2     :     0.006102  d :     0.079025
      dxz     :     0.021926
      dyz     :     0.022294
      dx2y2   :     0.007044
      dxy     :     0.021660
 18 N s       :     3.284545  s :     3.284545
      pz      :     1.368645  p :     4.171775
      px      :     1.402767
      py      :     1.400363
      dz2     :     0.004041  d :     0.059253
      dxz     :     0.018530
      dyz     :     0.014944
      dx2y2   :     0.007891
      dxy     :     0.013846
 19 H s       :     0.844448  s :     0.844448
 20 C s       :     2.939904  s :     2.939904
      pz      :     1.088540  p :     3.289235
      px      :     1.108840
      py      :     1.091855
      dz2     :     0.006514  d :     0.079399
      dxz     :     0.022513
      dyz     :     0.021662
      dx2y2   :     0.006706
      dxy     :     0.022004
 21 C s       :     2.928256  s :     2.928256
      pz      :     1.100639  p :     3.290266
      px      :     1.097643
      py      :     1.091984
      dz2     :     0.007011  d :     0.080287
      dxz     :     0.021939
      dyz     :     0.021462
      dx2y2   :     0.007166
      dxy     :     0.022709
 22 C s       :     2.929666  s :     2.929666
      pz      :     1.094302  p :     3.289393
      px      :     1.088732
      py      :     1.106359
      dz2     :     0.008661  d :     0.080794
      dxz     :     0.023098
      dyz     :     0.021098
      dx2y2   :     0.005996
      dxy     :     0.021941
 23 C s       :     2.888452  s :     2.888452
      pz      :     1.077103  p :     3.125567
      px      :     0.988255
      py      :     1.060210
      dz2     :     0.014855  d :     0.120508
      dxz     :     0.024536
      dyz     :     0.028276
      dx2y2   :     0.022898
      dxy     :     0.029943
 24 C s       :     2.890725  s :     2.890725
      pz      :     1.085351  p :     3.120881
      px      :     0.966447
      py      :     1.069083
      dz2     :     0.020169  d :     0.119979
      dxz     :     0.022504
      dyz     :     0.025565
      dx2y2   :     0.024148
      dxy     :     0.027593
 25 N s       :     3.283961  s :     3.283961
      pz      :     1.327220  p :     4.171751
      px      :     1.230806
      py      :     1.613725
      dz2     :     0.004689  d :     0.059261
      dxz     :     0.022379
      dyz     :     0.009471
      dx2y2   :     0.007192
      dxy     :     0.015529
 26 H s       :     0.844222  s :     0.844222
 27 C s       :     2.940177  s :     2.940177
      pz      :     1.078976  p :     3.288866
      px      :     1.128057
      py      :     1.081833
      dz2     :     0.017114  d :     0.079417
      dxz     :     0.013721
      dyz     :     0.021316
      dx2y2   :     0.008990
      dxy     :     0.018276
 28 N s       :     3.231000  s :     3.231000
      pz      :     1.244269  p :     3.856603
      px      :     1.177103
      py      :     1.435231
      dz2     :     0.010850  d :     0.081001
      dxz     :     0.019134
      dyz     :     0.007888
      dx2y2   :     0.016406
      dxy     :     0.026723
 29 H s       :     0.852021  s :     0.852021
 30 C s       :     2.935140  s :     2.935140
      pz      :     1.070783  p :     3.275797
      px      :     1.113940
      py      :     1.091074
      dz2     :     0.017386  d :     0.079002
      dxz     :     0.013548
      dyz     :     0.020186
      dx2y2   :     0.008203
      dxy     :     0.019680
 31 C s       :     2.929744  s :     2.929744
      pz      :     1.085820  p :     3.289657
      px      :     1.097059
      py      :     1.106778
      dz2     :     0.017013  d :     0.080754
      dxz     :     0.013276
      dyz     :     0.021032
      dx2y2   :     0.015021
      dxy     :     0.014412
 32 C s       :     2.928326  s :     2.928326
      pz      :     1.088865  p :     3.290024
      px      :     1.119966
      py      :     1.081193
      dz2     :     0.014772  d :     0.080320
      dxz     :     0.013300
      dyz     :     0.019361
      dx2y2   :     0.013953
      dxy     :     0.018934
 33 H s       :     0.848020  s :     0.848020
 34 H s       :     0.741559  s :     0.741559
 35 H s       :     0.746536  s :     0.746536
 36 H s       :     0.746712  s :     0.746712
 37 H s       :     0.741892  s :     0.741892
 38 H s       :     0.857882  s :     0.857882
 39 H s       :     0.843477  s :     0.843477
 40 H s       :     0.837028  s :     0.837028
 41 H s       :     0.847732  s :     0.847732
 42 H s       :     0.842687  s :     0.842687
 43 H s       :     0.841090  s :     0.841090
 44 H s       :     0.833006  s :     0.833006
 45 H s       :     0.850593  s :     0.850593
 46 H s       :     0.859801  s :     0.859801
 47 H s       :     0.858700  s :     0.858700
 48 H s       :     0.839735  s :     0.839735
 49 H s       :     0.847389  s :     0.847389
 50 H s       :     0.842223  s :     0.842223
 51 H s       :     0.840689  s :     0.840689
 52 H s       :     0.850255  s :     0.850255
 53 H s       :     0.835652  s :     0.835652
 54 H s       :     0.857009  s :     0.857009
 55 H s       :     0.844180  s :     0.844180


                      *****************************
                      * MAYER POPULATION ANALYSIS *
                      *****************************

  NA   - Mulliken gross atomic population
  ZA   - Total nuclear charge
  QA   - Mulliken gross atomic charge
  VA   - Mayer's total valence
  BVA  - Mayer's bonded valence
  FA   - Mayer's free valence

  ATOM       NA         ZA         QA         VA         BVA        FA
  0 C      5.7715     6.0000     0.2285     3.0690     3.0690    -0.0000
  1 C      6.1660     6.0000    -0.1660     4.0358     4.0358    -0.0000
  2 C      6.0843     6.0000    -0.0843     3.2886     3.2886    -0.0000
  3 C      5.7316     6.0000     0.2684     3.4353     3.4353     0.0000
  4 H      0.7564     1.0000     0.2436     0.9295     0.9295    -0.0000
  5 C      6.2369     6.0000    -0.2369     3.6289     3.6289    -0.0000
  6 C      5.8158     6.0000     0.1842     3.7186     3.7186    -0.0000
  7 H      0.7832     1.0000     0.2168     0.8918     0.8918     0.0000
  8 C      6.1333     6.0000    -0.1333     3.4631     3.4631    -0.0000
  9 C      6.3731     6.0000    -0.3731     4.0455     4.0455     0.0000
 10 H      0.7651     1.0000     0.2349     0.9079     0.9079    -0.0000
 11 C      6.3906     6.0000    -0.3906     4.0505     4.0505    -0.0000
 12 O      8.3038     8.0000    -0.3038     2.1597     2.1597    -0.0000
 13 C      6.0166     6.0000    -0.0166     3.3795     3.3795     0.0000
 14 C      6.2128     6.0000    -0.2128     3.7960     3.7960     0.0000
 15 N      7.0632     7.0000    -0.0632     2.9183     2.9183    -0.0000
 16 H      0.8747     1.0000     0.1253     0.9836     0.9836    -0.0000
 17 C      6.4214     6.0000    -0.4214     3.8279     3.8279    -0.0000
 18 N      7.6160     7.0000    -0.6160     2.8196     2.8196    -0.0000
 19 H      0.8338     1.0000     0.1662     0.9398     0.9398    -0.0000
 20 C      6.2616     6.0000    -0.2616     3.6036     3.6036    -0.0000
 21 C      6.2639     6.0000    -0.2639     3.7779     3.7779    -0.0000
 22 C      6.3583     6.0000    -0.3583     3.8476     3.8476    -0.0000
 23 C      6.2111     6.0000    -0.2111     3.7972     3.7972    -0.0000
 24 C      6.0164     6.0000    -0.0164     3.3699     3.3699    -0.0000
 25 N      7.6155     7.0000    -0.6155     2.8216     2.8216    -0.0000
 26 H      0.8329     1.0000     0.1671     0.9396     0.9396    -0.0000
 27 C      6.2591     6.0000    -0.2591     3.6004     3.6004    -0.0000
 28 N      7.0723     7.0000    -0.0723     2.9146     2.9146     0.0000
 29 H      0.8722     1.0000     0.1278     0.9830     0.9830    -0.0000
 30 C      6.4227     6.0000    -0.4227     3.8255     3.8255    -0.0000
 31 C      6.3600     6.0000    -0.3600     3.8468     3.8468    -0.0000
 32 C      6.2611     6.0000    -0.2611     3.7754     3.7754     0.0000
 33 H      0.8917     1.0000     0.1083     0.9396     0.9396     0.0000
 34 H      0.6898     1.0000     0.3102     0.8728     0.8728    -0.0000
 35 H      0.6995     1.0000     0.3005     0.8838     0.8838    -0.0000
 36 H      0.6998     1.0000     0.3002     0.8839     0.8839    -0.0000
 37 H      0.6902     1.0000     0.3098     0.8729     0.8729    -0.0000
 38 H      0.8630     1.0000     0.1370     0.9599     0.9599    -0.0000
 39 H      0.8259     1.0000     0.1741     0.9518     0.9518    -0.0000
 40 H      0.8383     1.0000     0.1617     0.9665     0.9665    -0.0000
 41 H      0.8366     1.0000     0.1634     0.9483     0.9483    -0.0000
 42 H      0.8244     1.0000     0.1756     0.9452     0.9452    -0.0000
 43 H      0.8325     1.0000     0.1675     0.9564     0.9564    -0.0000
 44 H      0.8310     1.0000     0.1690     0.9694     0.9694    -0.0000
 45 H      0.8421     1.0000     0.1579     0.9592     0.9592    -0.0000
 46 H      0.8879     1.0000     0.1121     0.9565     0.9565    -0.0000
 47 H      0.8873     1.0000     0.1127     0.9571     0.9571     0.0000
 48 H      0.8463     1.0000     0.1537     0.9683     0.9683    -0.0000
 49 H      0.8349     1.0000     0.1651     0.9481     0.9481    -0.0000
 50 H      0.8229     1.0000     0.1771     0.9451     0.9451    -0.0000
 51 H      0.8317     1.0000     0.1683     0.9568     0.9568    -0.0000
 52 H      0.8406     1.0000     0.1594     0.9592     0.9592    -0.0000
 53 H      0.8388     1.0000     0.1612     0.9712     0.9712    -0.0000
 54 H      0.8609     1.0000     0.1391     0.9602     0.9602    -0.0000
 55 H      0.8269     1.0000     0.1731     0.9518     0.9518     0.0000

  Mayer bond orders larger than 0.100000
B(  0-C ,  1-C ) :   0.8929 B(  0-C ,  2-C ) :   1.1352 B(  0-C ,  3-C ) :   0.1566 
B(  0-C ,  6-C ) :   0.1293 B(  0-C ,  8-C ) :   1.1340 B(  0-C , 12-O ) :  -0.1591 
B(  0-C , 33-H ) :  -0.1042 B(  1-C , 12-O ) :   2.0819 B(  1-C , 33-H ) :   0.9626 
B(  2-C ,  3-C ) :   1.2629 B(  2-C ,  4-H ) :   0.9108 B(  3-C ,  5-C ) :   1.2178 
B(  3-C ,  6-C ) :   0.1282 B(  3-C , 11-C ) :   0.9345 B(  3-C , 15-N ) :  -0.1805 
B(  5-C ,  6-C ) :   1.2689 B(  5-C ,  7-H ) :   0.8875 B(  6-C ,  8-C ) :   1.4112 
B(  6-C ,  9-C ) :   0.9506 B(  6-C , 28-N ) :  -0.1816 B(  8-C , 10-H ) :   0.8748 
B(  9-C , 28-N ) :   1.9726 B(  9-C , 47-H ) :   0.9105 B( 11-C , 15-N ) :   1.9829 
B( 11-C , 46-H ) :   0.9164 B( 13-C , 14-C ) :   0.8040 B( 13-C , 15-N ) :   0.9451 
B( 13-C , 16-H ) :   0.9184 B( 13-C , 17-C ) :   0.8968 B( 13-C , 18-N ) :  -0.1426 
B( 14-C , 18-N ) :   1.1735 B( 14-C , 19-H ) :   0.9375 B( 14-C , 20-C ) :   0.9584 
B( 17-C , 21-C ) :   1.0092 B( 17-C , 42-H ) :   0.9773 B( 17-C , 43-H ) :   0.9325 
B( 18-N , 36-H ) :   0.8644 B( 18-N , 37-H ) :   0.8798 B( 20-C , 22-C ) :   0.9684 
B( 20-C , 44-H ) :   0.9349 B( 20-C , 45-H ) :   0.9456 B( 21-C , 22-C ) :   1.0189 
B( 21-C , 40-H ) :   0.9401 B( 21-C , 41-H ) :   0.9307 B( 22-C , 38-H ) :   0.9542 
B( 22-C , 39-H ) :   0.9298 B( 23-C , 24-C ) :   0.8046 B( 23-C , 25-N ) :   1.1763 
B( 23-C , 26-H ) :   0.9369 B( 23-C , 27-C ) :   0.9570 B( 24-C , 25-N ) :  -0.1432 
B( 24-C , 28-N ) :   0.9408 B( 24-C , 29-H ) :   0.9192 B( 24-C , 30-C ) :   0.8961 
B( 25-N , 34-H ) :   0.8794 B( 25-N , 35-H ) :   0.8642 B( 27-C , 31-C ) :   0.9673 
B( 27-C , 52-H ) :   0.9458 B( 27-C , 53-H ) :   0.9359 B( 30-C , 32-C ) :   1.0084 
B( 30-C , 50-H ) :   0.9773 B( 30-C , 51-H ) :   0.9332 B( 31-C , 32-C ) :   1.0185 
B( 31-C , 54-H ) :   0.9539 B( 31-C , 55-H ) :   0.9306 B( 32-C , 48-H ) :   0.9412 
B( 32-C , 49-H ) :   0.9304 

-------
TIMINGS
-------

Total SCF time: 0 days 0 hours 0 min 19 sec 

Total time                  ....      19.189 sec
Sum of individual times     ....      17.852 sec  ( 93.0%)

Fock matrix formation       ....       7.778 sec  ( 40.5%)
  Split-RI-J                ....       2.027 sec  ( 26.1% of F)
  XC integration            ....       5.128 sec  ( 65.9% of F)
    Basis function eval.    ....       0.810 sec  ( 15.8% of XC)
    Density eval.           ....       1.332 sec  ( 26.0% of XC)
    XC-Functional eval.     ....       0.425 sec  (  8.3% of XC)
    XC-Potential eval.      ....       0.369 sec  (  7.2% of XC)
Diagonalization             ....       0.257 sec  (  1.3%)
Density matrix formation    ....       0.034 sec  (  0.2%)
Population analysis         ....       0.218 sec  (  1.1%)
Initial guess               ....       0.214 sec  (  1.1%)
Orbital Transformation      ....       0.000 sec  (  0.0%)
Orbital Orthonormalization  ....       0.192 sec  (  1.0%)
DIIS solution               ....       0.093 sec  (  0.5%)
SOSCF solution              ....       1.742 sec  (  9.1%)
Grid generation             ....       7.516 sec  ( 39.2%)


-------------------------------------------------------------------------------
                          DFT DISPERSION CORRECTION                            
                                                                               
                              DFTD3 V3.1  Rev 1                                
                          USING Becke-Johnson damping                          
-------------------------------------------------------------------------------
The B97-3c composite method is recognized
Using three-body term ABC
Active option DFTDOPT                   ...         4   

molecular C6(AA) [au] = 28570.627609 


            DFT-D V3
 parameters
 s6 scaling factor         :     1.0000 
 a1 scaling factor         :     0.3700 
 s8 scaling factor         :     1.5000 
 a2 scaling factor         :     4.1000 
 Damping factor alpha9(ATM):    16.0000 
 ad hoc parameters k1-k3   :    16.0000     1.3333    -4.0000 

 Edisp/kcal,au: -93.713884348280  -0.149342564894 
 E6   /kcal   : -48.482827807 
 E8   /kcal   : -45.347973550 
 E6(ABC)      :   0.116917010 
 % E8         :  48.389813170 
 % E6(ABC)    :  -0.124759538 

-------------------------   ----------------
Dispersion correction           -0.149342565
-------------------------   ----------------

------------------   -----------------
SRB correction            -0.164284878
------------------   -----------------

-------------------------   --------------------
FINAL SINGLE POINT ENERGY     -1111.989242908642
-------------------------   --------------------

                                *** OPTIMIZATION RUN DONE ***

                            ***************************************
                            *     ORCA property calculations      *
                            ***************************************

                                    ---------------------
                                    Active property flags
                                    ---------------------
   (+) Dipole Moment


------------------------------------------------------------------------------
                       ORCA ELECTRIC PROPERTIES CALCULATION
------------------------------------------------------------------------------

Dipole Moment Calculation                       ... on
Quadrupole Moment Calculation                   ... off
Polarizability Calculation                      ... off
GBWName                                         ... _o_1_alde1_2_ami3_2_opt_B97-3c.gbw
Electron density file                           ... _o_1_alde1_2_ami3_2_opt_B97-3c.scfp
The origin for moment calculation is the CENTER OF MASS  = (-1.863359,  4.480223 -5.682853)

-------------
DIPOLE MOMENT
-------------
                                X             Y             Z
Electronic contribution:     -2.88167      -5.48012       3.48830
Nuclear contribution   :      3.66444       6.13147      -3.82720
                        -----------------------------------------
Total Dipole Moment    :      0.78277       0.65136      -0.33890
                        -----------------------------------------
Magnitude (a.u.)       :      1.07324
Magnitude (Debye)      :      2.72796



--------------------
Rotational spectrum 
--------------------
 
Rotational constants in cm-1:     0.015693     0.002070     0.001937 
Rotational constants in MHz :   470.472620    62.069907    58.056329 

 Dipole components along the rotational axes: 
x,y,z [a.u.] :     0.622488     0.874064    -0.019012 
x,y,z [Debye]:     1.582240     2.221695    -0.048324 

 

Timings for individual modules:

Sum of individual times         ...     3138.496 sec (=  52.308 min)
GTO integral calculation        ...      125.021 sec (=   2.084 min)   4.0 %
SCF iterations                  ...     2329.099 sec (=  38.818 min)  74.2 %
SCF Gradient evaluation         ...      588.920 sec (=   9.815 min)  18.8 %
Geometry relaxation             ...       95.456 sec (=   1.591 min)   3.0 %
                             ****ORCA TERMINATED NORMALLY****
TOTAL RUN TIME: 0 days 0 hours 54 minutes 56 seconds 332 msec
