Job execution start: Sat Nov  6 17:09:20 GMT 2021
Shared library path: /work/e05/e05/atarzia/orca_4_2_1_linux_x86-64_openmpi314:/work/e05/e05/atarzia/openmpi-3.1.4/lib:/opt/cray/pe/papi/6.0.0.4/lib64:/opt/cray/libfabric/1.11.0.0.233/lib64
Slurm Job ID is: 621517
Slurm Job name is: o_1_alde1_3_ami3_1_opt_B97-3c
nid001636

                                 *****************
                                 * O   R   C   A *
                                 *****************

           --- An Ab Initio, DFT and Semiempirical electronic structure package ---

                  #######################################################
                  #                        -***-                        #
                  #          Department of theory and spectroscopy      #
                  #               Directorship: Frank Neese             #
                  #        Max Planck Institute fuer Kohlenforschung    #
                  #                Kaiser Wilhelm Platz 1               #
                  #                 D-45470 Muelheim/Ruhr               #
                  #                      Germany                        #
                  #                                                     #
                  #                  All rights reserved                #
                  #                        -***-                        #
                  #######################################################


                         Program Version 4.2.1 -  RELEASE  -


 With contributions from (in alphabetic order):
   Daniel Aravena         : Magnetic Suceptibility
   Michael Atanasov       : Ab Initio Ligand Field Theory (pilot matlab implementation)
   Alexander A. Auer      : GIAO ZORA, VPT2
   Ute Becker             : Parallelization
   Giovanni Bistoni       : ED, misc. LED, open-shell LED, HFLD
   Martin Brehm           : Molecular dynamics
   Dmytro Bykov           : SCF Hessian
   Vijay G. Chilkuri      : MRCI spin determinant printing, contributions to CSF-ICE
   Dipayan Datta          : RHF DLPNO-CCSD density
   Achintya Kumar Dutta   : EOM-CC, STEOM-CC
   Dmitry Ganyushin       : Spin-Orbit,Spin-Spin,Magnetic field MRCI
   Miquel Garcia          : C-PCM Hessian, Gaussian charge scheme
   Yang Guo               : DLPNO-NEVPT2, CIM, IAO-localization
   Andreas Hansen         : Spin unrestricted coupled pair/coupled cluster methods
   Benjamin Helmich-Paris : CASSCF linear response (MC-RPA)
   Lee Huntington         : MR-EOM, pCC
   Robert Izsak           : Overlap fitted RIJCOSX, COSX-SCS-MP3, EOM
   Christian Kollmar      : KDIIS, OOCD, Brueckner-CCSD(T), CCSD density
   Simone Kossmann        : Meta GGA functionals, TD-DFT gradient, OOMP2, MP2 Hessian
   Martin Krupicka        : AUTO-CI
   Lucas Lang             : DCDCAS
   Dagmar Lenk            : GEPOL surface, SMD
   Dimitrios Liakos       : Extrapolation schemes; Compound Job, initial MDCI parallelization
   Dimitrios Manganas     : Further ROCIS development; embedding schemes
   Dimitrios Pantazis     : SARC Basis sets
   Taras Petrenko         : DFT Hessian,TD-DFT gradient, ASA, ECA, R-Raman, ABS, FL, XAS/XES, NRVS
   Peter Pinski           : DLPNO-MP2, DLPNO-MP2 Gradient
   Christoph Reimann      : Effective Core Potentials
   Marius Retegan         : Local ZFS, SOC
   Christoph Riplinger    : Optimizer, TS searches, QM/MM, DLPNO-CCSD(T), (RO)-DLPNO pert. Triples
   Tobias Risthaus        : Range-separated hybrids, TD-DFT gradient, RPA, STAB
   Michael Roemelt        : Original ROCIS implementation
   Masaaki Saitow         : Open-shell DLPNO-CCSD energy and density
   Barbara Sandhoefer     : DKH picture change effects
   Avijit Sen             : IP-ROCIS
   Kantharuban Sivalingam : CASSCF convergence, NEVPT2, FIC-MRCI
   Bernardo de Souza      : ESD, SOC TD-DFT
   Georgi Stoychev        : AutoAux, RI-MP2 NMR
   Willem Van den Heuvel  : Paramagnetic NMR
   Boris Wezisla          : Elementary symmetry handling
   Frank Wennmohs         : Technical directorship


 We gratefully acknowledge several colleagues who have allowed us to
 interface, adapt or use parts of their codes:
   Stefan Grimme, W. Hujo, H. Kruse,             : VdW corrections, initial TS optimization,
                  C. Bannwarth                     DFT functionals, gCP, sTDA/sTD-DF
   Ed Valeev, F. Pavosevic, A. Kumar             : LibInt (2-el integral package), F12 methods
   Garnet Chan, S. Sharma, J. Yang, R. Olivares  : DMRG
   Ulf Ekstrom                                   : XCFun DFT Library
   Mihaly Kallay                                 : mrcc  (arbitrary order and MRCC methods)
   Andreas Klamt, Michael Diedenhofen            : otool_cosmo (COSMO solvation model)
   Jiri Pittner, Ondrej Demel                    : Mk-CCSD
   Frank Weinhold                                : gennbo (NPA and NBO analysis)
   Christopher J. Cramer and Donald G. Truhlar   : smd solvation model
   Lars Goerigk                                  : TD-DFT with DH, B97 family of functionals
   V. Asgeirsson, H. Jonsson                     : NEB implementation
   FAccTs GmbH                                   : IRC, NEB, NEB-TS, Multilevel, MM, QM/MM, CI optimization
   S Lehtola, MJT Oliveira, MAL Marques          : LibXC Library


 Your calculation uses the libint2 library for the computation of 2-el integrals
 For citations please refer to: http://libint.valeyev.net

 Your ORCA version has been built with support for libXC version: 4.2.3
 For citations please refer to: https://tddft.org/programs/libxc/

 This ORCA versions uses:
   CBLAS   interface :  Fast vector & matrix operations
   LAPACKE interface :  Fast linear algebra routines
   SCALAPACK package :  Parallel linear algebra routines




***************************************
The coordinates will be read from file: o_1_alde1_3_ami3_1_opt.xyz
***************************************


Your calculation utilizes the atom-pairwise dispersion correction
with the Becke-Johnson damping scheme (D3BJ)
Cite in your paper:
S.Grimme, S.Ehrlich, L.Goerigk, J Comput Chem, (2011), 32, 1456–1465 
S.Grimme, J.Antony, S.Ehrlich and H.Krieg, J.Chem.Phys., 132, (2010), 154104 
   

Your calculation employs the composite approach B97-3c by Grimme and coworkers.
For the correct reference, please check the publication list of the Grimme group:
http://www.thch.uni-bonn.de/tc/index.php?section=publikationen&subsection=grimme#2017
   

XCFun DFT library Copyright 2009-2010 Ulf Ekstrom and contributors.
See http://admol.org/xcfun for more information. This is free soft-
ware; see the source code for copying conditions. There is ABSOLUTELY
NO WARRANTY; not even for MERCHANTABILITY or FITNESS FOR A PARTICULAR
PURPOSE. For details see the documentation. Scientific users of this 
library should cite U. Ekstrom, L. Visscher, R. Bast, A. J. Thorvald-
sen and K. Ruud; J.Chem.Theor.Comp. 2010, DOI: 10.1021/ct100117s
XCFun Version 0.99 
----- Orbital basis set information -----
Your calculation utilizes the basis: def2-mTZVP
----- AuxJ basis set information -----
Your calculation utilizes the basis: def2-mTZVP/J
================================================================================
                                        WARNINGS
                       Please study these warnings very carefully!
================================================================================


WARNING: Geometry Optimization
  ===> : Switching off AutoStart
         For restart on a previous wavefunction, please use MOREAD

INFO   : the flag for use of LIBINT has been found!

================================================================================
                                       INPUT FILE
================================================================================
NAME = o_1_alde1_3_ami3_1_opt_B97-3c.in
|  1> ! DFT COPT B97-3c TightSCF printbasis  Grid6 NOFINALGRID SlowConv 
|  2> 
|  3> %base "_o_1_alde1_3_ami3_1_opt_B97-3c"
|  4> %maxcore 3000
|  5> %scf
|  6>    MaxIter 2000
|  7> end
|  8> %pal
|  9>    nprocs 32
| 10> end
| 11> 
| 12> * xyzfile 0 1 o_1_alde1_3_ami3_1_opt.xyz
| 13> # * xyzfile 0 1 _o_1_alde1_3_ami3_1_opt_B97-3c.xyz
| 14> 
| 15>                          ****END OF INPUT****
================================================================================

                       *****************************
                       * Geometry Optimization Run *
                       *****************************

Geometry optimization settings:
Update method            Update   .... BFGS
Choice of coordinates    CoordSys .... Cartesian
Initial Hessian          InHess   .... Unit Matrix

Convergence Tolerances:
Energy Change            TolE     ....  5.0000e-06 Eh
Max. Gradient            TolMAXG  ....  3.0000e-04 Eh/bohr
RMS Gradient             TolRMSG  ....  1.0000e-04 Eh/bohr
Max. Displacement        TolMAXD  ....  4.0000e-03 bohr
RMS Displacement         TolRMSD  ....  2.0000e-03 bohr
Strict Convergence                ....  False
------------------------------------------------------------------------------
                        ORCA OPTIMIZATION COORDINATE SETUP
------------------------------------------------------------------------------

The optimization will be done in cartesian displacement coordinates
Initial hessian                         ....done
Number of atoms                         .... 75
Number of degrees of freedom            .... 225

         *************************************************************
         *                GEOMETRY OPTIMIZATION CYCLE   1            *
         *************************************************************
---------------------------------
CARTESIAN COORDINATES (ANGSTROEM)
---------------------------------
  C     -1.450500    0.734600   -1.771000
  C     -1.376300    0.399300   -0.301100
  C     -2.656900    1.025200   -2.384600
  C     -2.695900    1.369600   -3.730900
  H     -3.570500    0.968300   -1.814300
  C     -1.518600    1.425500   -4.457200
  C     -0.302700    1.135500   -3.848900
  H     -1.551700    1.681400   -5.504400
  C     -0.273100    0.793200   -2.507800
  C      0.965400    1.248500   -4.659900
  H      0.669700    0.557100   -2.040100
  C     -4.023400    1.721400   -4.357500
  C     -1.575900    1.681600    1.625100
  C     -2.977200    1.285400    1.127900
  N     -0.748000    1.520000    0.439300
  N     -2.708300    0.137700    0.274000
  C     -4.058100    3.235300   -6.117100
  C     -4.984300    3.737500   -4.995600
  N     -3.933400    1.814700   -5.826000
  N     -4.502700    3.019800   -3.824900
  C      2.933400    1.825900   -3.572700
  C      2.670100    2.825600   -4.712500
  N      2.125800    0.676400   -3.953400
  N      1.244300    2.673700   -4.960700
  H      2.654800    0.077900   -4.579200
  H      0.820600    0.727600   -5.616600
  H      0.722600    3.256700   -4.310300
  H     -0.737200   -0.485400   -0.172400
  H     -0.801200    2.362200   -0.129000
  H     -4.700700    1.308100   -6.255300
  H     -3.715700    3.521200   -3.419400
  H     -4.759700    0.954400   -4.079500
  C     -3.924100    1.111600    2.297400
  H     -2.686600   -0.708500    0.833600
  C     -4.592500    3.652600   -7.471700
  C      4.422300    1.630500   -3.373400
  H     -3.354300    2.086800    0.475500
  C     -3.981400    2.447800    3.045100
  H     -3.555300    0.325100    2.961000
  H     -4.919900    0.828200    1.952600
  C     -2.594300    2.931500    3.478900
  H     -4.618700    2.348600    3.925900
  H     -4.432800    3.196900    2.390300
  C     -1.620100    3.036900    2.300900
  H     -2.688900    3.904600    3.964900
  H     -2.184600    2.232400    4.211800
  H     -0.629600    3.328600    2.653900
  H     -1.967700    3.793100    1.592200
  H     -1.234600    0.928300    2.351000
  H     -3.062400    3.679400   -5.970700
  C     -4.665400    5.183100   -7.485400
  H     -5.587700    3.227500   -7.626100
  H     -3.941600    3.297900   -8.272400
  C     -5.502400    5.735700   -6.327800
  H     -5.092900    5.521800   -8.431200
  H     -3.651200    5.583100   -7.416400
  C     -4.999700    5.252100   -4.963400
  H     -6.540100    5.417300   -6.452600
  H     -5.483800    6.826900   -6.359900
  H     -6.003400    3.371100   -5.191000
  H     -5.651600    5.618300   -4.168500
  H     -3.990300    5.629200   -4.779700
  H      2.496500    2.230200   -2.647600
  C      5.023800    2.998100   -3.033000
  H      4.872200    1.239600   -4.289800
  H      4.616900    0.920700   -2.567900
  C      4.706700    4.053900   -4.096300
  H      6.106800    2.907200   -2.929000
  H      4.623600    3.327500   -2.071200
  C      3.201300    4.195900   -4.344700
  H      5.192400    3.774200   -5.034200
  H      5.119100    5.014900   -3.782600
  H      3.016000    4.913400   -5.145700
  H      2.703600    4.555800   -3.440500
  H      3.185800    2.470500   -5.617500

----------------------------
CARTESIAN COORDINATES (A.U.)
----------------------------
  NO LB      ZA    FRAG     MASS         X           Y           Z
   0 C     6.0000    0    12.011   -2.741048    1.388193   -3.346705
   1 C     6.0000    0    12.011   -2.600830    0.754568   -0.568997
   2 C     6.0000    0    12.011   -5.020813    1.937347   -4.506241
   3 C     6.0000    0    12.011   -5.094513    2.588169   -7.050379
   4 H     1.0000    0     1.008   -6.747267    1.829822   -3.428530
   5 C     6.0000    0    12.011   -2.869738    2.693805   -8.422887
   6 C     6.0000    0    12.011   -0.572020    2.145784   -7.273367
   7 H     1.0000    0     1.008   -2.932288    3.177386  -10.401809
   8 C     6.0000    0    12.011   -0.516084    1.498931   -4.739055
   9 C     6.0000    0    12.011    1.824342    2.359323   -8.805935
  10 H     1.0000    0     1.008    1.265550    1.052766   -3.855230
  11 C     6.0000    0    12.011   -7.603124    3.252975   -8.234482
  12 C     6.0000    0    12.011   -2.978019    3.177763    3.070994
  13 C     6.0000    0    12.011   -5.626093    2.429054    2.131422
  14 N     7.0000    0    14.007   -1.413515    2.872384    0.830157
  15 N     7.0000    0    14.007   -5.117945    0.260215    0.517785
  16 C     6.0000    0    12.011   -7.668698    6.113831  -11.559644
  17 C     6.0000    0    12.011   -9.418962    7.062851   -9.440316
  18 N     7.0000    0    14.007   -7.433049    3.429286  -11.009544
  19 N     7.0000    0    14.007   -8.508870    5.706595   -7.228013
  20 C     6.0000    0    12.011    5.543323    3.450451   -6.751425
  21 C     6.0000    0    12.011    5.045758    5.339610   -8.905334
  22 N     7.0000    0    14.007    4.017180    1.278211   -7.470843
  23 N     7.0000    0    14.007    2.351386    5.052561   -9.374364
  24 H     1.0000    0     1.008    5.016845    0.147210   -8.653434
  25 H     1.0000    0     1.008    1.550709    1.374965  -10.613836
  26 H     1.0000    0     1.008    1.365516    6.154271   -8.145287
  27 H     1.0000    0     1.008   -1.393106   -0.917273   -0.325789
  28 H     1.0000    0     1.008   -1.514049    4.463911   -0.243775
  29 H     1.0000    0     1.008   -8.883036    2.471951  -11.820804
  30 H     1.0000    0     1.008   -7.021655    6.654104   -6.461730
  31 H     1.0000    0     1.008   -8.994529    1.803555   -7.709138
  32 C     6.0000    0    12.011   -7.415474    2.100620    4.341457
  33 H     1.0000    0     1.008   -5.076938   -1.338871    1.575276
  34 C     6.0000    0    12.011   -8.678567    6.902414  -14.119467
  35 C     6.0000    0    12.011    8.356936    3.081198   -6.374802
  36 H     1.0000    0     1.008   -6.338708    3.943480    0.898565
  37 C     6.0000    0    12.011   -7.523756    4.625672    5.754405
  38 H     1.0000    0     1.008   -6.718543    0.614350    5.595479
  39 H     1.0000    0     1.008   -9.297264    1.565071    3.689879
  40 C     6.0000    0    12.011   -4.902517    5.539732    6.574168
  41 H     1.0000    0     1.008   -8.728078    4.438211    7.418876
  42 H     1.0000    0     1.008   -8.376778    6.041265    4.517012
  43 C     6.0000    0    12.011   -3.061545    5.738909    4.348071
  44 H     1.0000    0     1.008   -5.081285    7.378625    7.492575
  45 H     1.0000    0     1.008   -4.128296    4.218625    7.959149
  46 H     1.0000    0     1.008   -1.189772    6.290142    5.015144
  47 H     1.0000    0     1.008   -3.718414    7.167920    3.008822
  48 H     1.0000    0     1.008   -2.333056    1.754233    4.442746
  49 H     1.0000    0     1.008   -5.787097    6.953058  -11.282988
  50 C     6.0000    0    12.011   -8.816328    9.794640  -14.145356
  51 H     1.0000    0     1.008  -10.559223    6.099091  -14.411240
  52 H     1.0000    0     1.008   -7.448545    6.232128  -15.632570
  53 C     6.0000    0    12.011  -10.398029   10.838902  -11.957809
  54 H     1.0000    0     1.008   -9.624186   10.434690  -15.932659
  55 H     1.0000    0     1.008   -6.899768   10.550530  -14.014965
  56 C     6.0000    0    12.011   -9.448064    9.925031   -9.379467
  57 H     1.0000    0     1.008  -12.358998   10.237213  -12.193647
  58 H     1.0000    0     1.008  -10.362880   12.900971  -12.018469
  59 H     1.0000    0     1.008  -11.344782    6.370456   -9.809568
  60 H     1.0000    0     1.008  -10.679976   10.617048   -7.877323
  61 H     1.0000    0     1.008   -7.540574   10.637646   -9.032324
  62 H     1.0000    0     1.008    4.717701    4.214467   -5.003239
  63 C     6.0000    0    12.011    9.493606    5.665588   -5.731539
  64 H     1.0000    0     1.008    9.207124    2.342505   -8.106547
  65 H     1.0000    0     1.008    8.724677    1.739871   -4.852628
  66 C     6.0000    0    12.011    8.894374    7.660761   -7.740885
  67 H     1.0000    0     1.008   11.540180    5.493812   -5.535008
  68 H     1.0000    0     1.008    8.737338    6.288064   -3.914001
  69 C     6.0000    0    12.011    6.049580    7.929102   -8.210293
  70 H     1.0000    0     1.008    9.812214    7.132204   -9.513259
  71 H     1.0000    0     1.008    9.673697    9.476788   -7.148078
  72 H     1.0000    0     1.008    5.699414    9.284980   -9.723964
  73 H     1.0000    0     1.008    5.109064    8.609214   -6.501603
  74 H     1.0000    0     1.008    6.020290    4.668568  -10.615537

--------------------------------
INTERNAL COORDINATES (ANGSTROEM)
--------------------------------
 C      0   0   0     0.000000000000     0.00000000     0.00000000
 C      1   0   0     1.509482606723     0.00000000     0.00000000
 C      1   2   0     1.384324485083   121.40561601     0.00000000
 C      3   1   2     1.390200003597   120.37812038   178.10189349
 H      3   1   2     1.078491845124   119.52275371   357.18497848
 C      4   3   1     1.384439160816   119.61681406   359.77840747
 C      6   4   3     1.390158875812   120.38454027     0.20728914
 H      6   4   3     1.078521330341   119.52895679   179.27668563
 C      7   6   4     1.384411304490   119.61479693   359.80419567
 C      7   6   4     1.509492500809   118.95132062   181.89928556
 H      9   7   6     1.078590904838   119.52922910   179.27974008
 C      4   3   1     1.509518814060   118.97300054   181.85292337
 C      2   1   3     2.322580437789   132.90044917   286.53241938
 C     13   2   1     1.538773527846    70.61809448    83.66032926
 N     13   2   1     1.455216344741    38.18704444   297.02984016
 N     14  13   2     1.455564395690   102.96394264    20.10246301
 C     12   4   3     2.321484322583   118.66944931   149.82927674
 C     17  12   4     1.538770135530    70.69493555   236.13243846
 N     17  12   4     1.455470253904    37.87252086    89.24162975
 N     18  17  12     1.455187389995   103.07204451    20.41295072
 C     10   7   6     2.321296749664   118.63392154   149.62778362
 C     21  10   7     1.538788815920    70.70772307   236.17241393
 N     21  10   7     1.455506956356    37.87444332    89.31390998
 N     22  21  10     1.455191564709   103.07194676    20.38627948
 H     23  21  10     1.014726017209   109.74647300   118.20666321
 H     10   7   6     1.098898876148   108.75743734   311.86648457
 H     24  22  21     1.017388839137   109.48576572    84.44155398
 H      2   1   3     1.098957046476   108.75055801   133.87995968
 H     15  13   2     1.017396663057   109.48089113   116.53655652
 H     19  17  12     1.014737079248   109.74788073   118.20871474
 H     20  18  17     1.017448381983   109.48588493    84.39303870
 H     12   4   3     1.098958911880   108.75646309   312.05035394
 C     14  13   2     1.514779290854   110.44689233   147.63728603
 H     16  14  13     1.014730254797   109.75295401    86.32623283
 C     17  12   4     1.514814777456   149.62307921   138.39165158
 C     21  10   7     1.514834928301   149.63489582   138.41915325
 H     14  13   2     1.100032785875   108.43529383   267.13255096
 C     33  14  13     1.532243133448   107.46168951    59.54976696
 H     33  14  13     1.093142557035   109.89753426   299.73722327
 H     33  14  13     1.091247103089   110.87206252   180.12927723
 C     38  33  14     1.531729264590   112.31622111   304.32411582
 H     38  33  14     1.091696189423   109.65148623   182.72123054
 H     38  33  14     1.092554717165   108.71783151    65.16856458
 C     13   2   1     1.515089888422   150.03182979   346.29760853
 H     41  38  33     1.091819018885   109.21119291   177.47654199
 H     41  38  33     1.092582861846   109.11665263   294.97343448
 H     44  13   2     1.091232395047   110.91179563   266.48012234
 H     44  13   2     1.093123913379   109.81070071    26.10317722
 H     13   2   1     1.100398741366    98.19145050   190.60036303
 H     17  12   4     1.100034663090    98.56134436   342.74710375
 C     35  17  12     1.532296430199   107.45371779   146.03370189
 H     35  17  12     1.093147936009   109.89818684    26.22346036
 H     35  17  12     1.091147739768   110.86747868   266.60349702
 C     51  35  17     1.531657115676   112.30915133   304.31479749
 H     51  35  17     1.091792828333   109.64758721   182.72117998
 H     51  35  17     1.092411387711   108.72334780    65.16845303
 C     18  17  12     1.515020514713   110.35786567   148.07643998
 H     54  51  35     1.092600059491   109.11968012   294.98456433
 H     54  51  35     1.091830485927   109.21099304   177.49446966
 H     18  17  12     1.100452147983   108.62269845   267.63715880
 H     57  18  17     1.091302918534   110.91743963   180.19462144
 H     57  18  17     1.093086666280   109.82057661   299.82848404
 H     21  10   7     1.100068229702    98.54420676   342.80039447
 C     36  21  10     1.532319865433   107.45301118   146.05766197
 H     36  21  10     1.093161369607   109.89797110    26.24987826
 H     36  21  10     1.091107442006   110.87541690   266.63802070
 C     64  36  21     1.531624281604   112.31765130   304.32547714
 H     64  36  21     1.091772783138   109.64796631   182.72026807
 H     64  36  21     1.092576606010   108.71448960    65.17653517
 C     22  21  10     1.514982630263   110.35283367   148.05025260
 H     67  64  36     1.092608342454   109.11298932   294.97098376
 H     67  64  36     1.091788647129   109.21307837   177.48436975
 H     70  22  21     1.091211867604   110.91497370   180.20876168
 H     70  22  21     1.093074078002   109.81513202   299.83359014
 H     22  21  10     1.100485120299   108.62183132   267.60577389

---------------------------
INTERNAL COORDINATES (A.U.)
---------------------------
 C      0   0   0     0.000000000000     0.00000000     0.00000000
 C      1   0   0     2.852508730624     0.00000000     0.00000000
 C      1   2   0     2.615994157288   121.40561601     0.00000000
 C      3   1   2     2.627097278174   120.37812038   178.10189349
 H      3   1   2     2.038054224953   119.52275371   357.18497848
 C      4   3   1     2.616210863017   119.61681406   359.77840747
 C      6   4   3     2.627019557925   120.38454027     0.20728914
 H      6   4   3     2.038109943936   119.52895679   179.27668563
 C      7   6   4     2.616158222191   119.61479693   359.80419567
 C      7   6   4     2.852527427738   118.95132062   181.89928556
 H      9   7   6     2.038241420683   119.52922910   179.27974008
 C      4   3   1     2.852577152574   118.97300054   181.85292337
 C      2   1   3     4.389040951424   132.90044917   286.53241938
 C     13   2   1     2.907860549757    70.61809448    83.66032926
 N     13   2   1     2.749960357166    38.18704444   297.02984016
 N     14  13   2     2.750618078140   102.96394264    20.10246301
 C     12   4   3     4.386969593874   118.66944931   149.82927674
 C     17  12   4     2.907854139209    70.69493555   236.13243846
 N     17  12   4     2.750440175948    37.87252086    89.24162975
 N     18  17  12     2.749905640626   103.07204451    20.41295072
 C     10   7   6     4.386615132426   118.63392154   149.62778362
 C     21  10   7     2.907889440029    70.70772307   236.17241393
 N     21  10   7     2.750509533530    37.87444332    89.31390998
 N     22  21  10     2.749913529692   103.07194676    20.38627948
 H     23  21  10     1.917554273489   109.74647300   118.20666321
 H     10   7   6     2.076617924794   108.75743734   311.86648457
 H     24  22  21     1.922586277676   109.48576572    84.44155398
 H      2   1   3     2.076727850783   108.75055801   133.87995968
 H     15  13   2     1.922601062744   109.48089113   116.53655652
 H     19  17  12     1.917575177713   109.74788073   118.20871474
 H     20  18  17     1.922698797349   109.48588493    84.39303870
 H     12   4   3     2.076731375885   108.75646309   312.05035394
 C     14  13   2     2.862518013049   110.44689233   147.63728603
 H     16  14  13     1.917562281370   109.75295401    86.32623283
 C     17  12   4     2.862585073009   149.62307921   138.39165158
 C     21  10   7     2.862623152587   149.63489582   138.41915325
 H     14  13   2     2.078760703638   108.43529383   267.13255096
 C     33  14  13     2.895519892799   107.46168951    59.54976696
 H     33  14  13     2.065740058130   109.89753426   299.73722327
 H     33  14  13     2.062158169273   110.87206252   180.12927723
 C     38  33  14     2.894548821387   112.31622111   304.32411582
 H     38  33  14     2.063006819454   109.65148623   182.72123054
 H     38  33  14     2.064629201766   108.71783151    65.16856458
 C     13   2   1     2.863104957392   150.03182979   346.29760853
 H     41  38  33     2.063238933500   109.21119291   177.47654199
 H     41  38  33     2.064682387505   109.11665263   294.97343448
 H     44  13   2     2.062130375102   110.91179563   266.48012234
 H     44  13   2     2.065704826726   109.81070071    26.10317722
 H     13   2   1     2.079452259293    98.19145050   190.60036303
 H     17  12   4     2.078764251061    98.56134436   342.74710375
 C     35  17  12     2.895620609061   107.45371779   146.03370189
 H     35  17  12     2.065750222918   109.89818684    26.22346036
 H     35  17  12     2.061970399808   110.86747868   266.60349702
 C     51  35  17     2.894412479699   112.30915133   304.31479749
 H     51  35  17     2.063189440529   109.64758721   182.72117998
 H     51  35  17     2.064358348350   108.72334780    65.16845303
 C     18  17  12     2.862973860079   110.35786567   148.07643998
 H     54  51  35     2.064714886344   109.11968012   294.98456433
 H     54  51  35     2.063260603069   109.21099304   177.49446966
 H     18  17  12     2.079553183173   108.62269845   267.63715880
 H     57  18  17     2.062263645178   110.91743963   180.19462144
 H     57  18  17     2.065634439911   109.82057661   299.82848404
 H     21  10   7     2.078827682765    98.54420676   342.80039447
 C     36  21  10     2.895664895235   107.45301118   146.05766197
 H     36  21  10     2.065775608739   109.89797110    26.24987826
 H     36  21  10     2.061894248074   110.87541690   266.63802070
 C     64  36  21     2.894350432296   112.31765130   304.32547714
 H     64  36  21     2.063151560599   109.64796631   182.72026807
 H     64  36  21     2.064670565688   108.71448960    65.17653517
 C     22  21  10     2.862902268846   110.35283367   148.05025260
 H     67  64  36     2.064730538876   109.11298932   294.97098376
 H     67  64  36     2.063181539198   109.21307837   177.48436975
 H     70  22  21     2.062091583856   110.91497370   180.20876168
 H     70  22  21     2.065610651512   109.81513202   299.83359014
 H     22  21  10     2.079615491821   108.62183132   267.60577389

---------------------
BASIS SET INFORMATION
---------------------
There are 3 groups of distinct atoms

 Group   1 Type C   : 11s6p1d contracted to 5s3p1d pattern {62111/411/1}
 Group   2 Type H   : 5s contracted to 3s pattern {311}
 Group   3 Type N   : 11s6p1d contracted to 5s3p1d pattern {62111/411/1}

Atom   0C    basis set group =>   1
Atom   1C    basis set group =>   1
Atom   2C    basis set group =>   1
Atom   3C    basis set group =>   1
Atom   4H    basis set group =>   2
Atom   5C    basis set group =>   1
Atom   6C    basis set group =>   1
Atom   7H    basis set group =>   2
Atom   8C    basis set group =>   1
Atom   9C    basis set group =>   1
Atom  10H    basis set group =>   2
Atom  11C    basis set group =>   1
Atom  12C    basis set group =>   1
Atom  13C    basis set group =>   1
Atom  14N    basis set group =>   3
Atom  15N    basis set group =>   3
Atom  16C    basis set group =>   1
Atom  17C    basis set group =>   1
Atom  18N    basis set group =>   3
Atom  19N    basis set group =>   3
Atom  20C    basis set group =>   1
Atom  21C    basis set group =>   1
Atom  22N    basis set group =>   3
Atom  23N    basis set group =>   3
Atom  24H    basis set group =>   2
Atom  25H    basis set group =>   2
Atom  26H    basis set group =>   2
Atom  27H    basis set group =>   2
Atom  28H    basis set group =>   2
Atom  29H    basis set group =>   2
Atom  30H    basis set group =>   2
Atom  31H    basis set group =>   2
Atom  32C    basis set group =>   1
Atom  33H    basis set group =>   2
Atom  34C    basis set group =>   1
Atom  35C    basis set group =>   1
Atom  36H    basis set group =>   2
Atom  37C    basis set group =>   1
Atom  38H    basis set group =>   2
Atom  39H    basis set group =>   2
Atom  40C    basis set group =>   1
Atom  41H    basis set group =>   2
Atom  42H    basis set group =>   2
Atom  43C    basis set group =>   1
Atom  44H    basis set group =>   2
Atom  45H    basis set group =>   2
Atom  46H    basis set group =>   2
Atom  47H    basis set group =>   2
Atom  48H    basis set group =>   2
Atom  49H    basis set group =>   2
Atom  50C    basis set group =>   1
Atom  51H    basis set group =>   2
Atom  52H    basis set group =>   2
Atom  53C    basis set group =>   1
Atom  54H    basis set group =>   2
Atom  55H    basis set group =>   2
Atom  56C    basis set group =>   1
Atom  57H    basis set group =>   2
Atom  58H    basis set group =>   2
Atom  59H    basis set group =>   2
Atom  60H    basis set group =>   2
Atom  61H    basis set group =>   2
Atom  62H    basis set group =>   2
Atom  63C    basis set group =>   1
Atom  64H    basis set group =>   2
Atom  65H    basis set group =>   2
Atom  66C    basis set group =>   1
Atom  67H    basis set group =>   2
Atom  68H    basis set group =>   2
Atom  69C    basis set group =>   1
Atom  70H    basis set group =>   2
Atom  71H    basis set group =>   2
Atom  72H    basis set group =>   2
Atom  73H    basis set group =>   2
Atom  74H    basis set group =>   2

-------------------------
BASIS SET IN INPUT FORMAT
-------------------------

 # Basis set for element : H 
 NewGTO H 
 S 3 
   1      34.0613410000      0.0254393072
   2       5.1235746000      0.1900859489
   3       1.1646626000      0.8524411301
 S 1 
   1       0.3272304100      1.0000000000
 S 1 
   1       0.1030724100      1.0000000000
  end;

 # Basis set for element : C 
 NewGTO C 
 S 6 
   1   13575.3496820000      0.0006064549
   2    2035.2333680000      0.0046979088
   3     463.2256235900      0.0243324776
   4     131.2001959800      0.0973999683
   5      42.8530158910      0.3019558425
   6      15.5841857660      0.6623360915
 S 2 
   1       6.2067138508      0.6559530854
   2       2.5764896527      0.3758563329
 S 1 
   1       0.5769633942      1.0000000000
 S 1 
   1       0.2297283136      1.0000000000
 S 1 
   1       0.0951644400      1.0000000000
 P 4 
   1      34.6972322440      0.0113272200
   2       7.9582622826      0.0761696592
   3       2.3780826883      0.3019225220
   4       0.8143320818      0.7278502735
 P 1 
   1       0.2888754725      1.0000000000
 P 1 
   1       0.1005682367      1.0000000000
 D 1 
   1       0.8000000000      1.0000000000
  end;

 # Basis set for element : N 
 NewGTO N 
 S 6 
   1   19730.8006470000      0.0005862639
   2    2957.8958745000      0.0045428821
   3     673.2213359500      0.0235584136
   4     190.6824949400      0.0947091933
   5      62.2954418980      0.2971978492
   6      22.6541611820      0.6691624689
 S 2 
   1       8.9791477428      0.6459668363
   2       3.6863002370      0.3870057440
 S 1 
   1       0.8466007680      1.0000000000
 S 1 
   1       0.3364713377      1.0000000000
 S 1 
   1       0.1364765367      1.0000000000
 P 4 
   1      49.2003805100      0.0114488252
   2      11.3467905370      0.0784223379
   3       3.4273972411      0.3081809474
   4       1.1785525134      0.7202719637
 P 1 
   1       0.4164220497      1.0000000000
 P 1 
   1       0.1426082601      1.0000000000
 D 1 
   1       0.8000000000      1.0000000000
  end;

---------------------------------
AUXILIARY/J BASIS SET INFORMATION
---------------------------------
There are 3 groups of distinct atoms

 Group   1 Type C   : 8s3p3d contracted to 6s3p3d pattern {311111/111/111}
 Group   2 Type H   : 5s2p contracted to 3s1p pattern {311/2}
 Group   3 Type N   : 8s3p3d contracted to 6s3p3d pattern {311111/111/111}

Atom   0C    basis set group =>   1
Atom   1C    basis set group =>   1
Atom   2C    basis set group =>   1
Atom   3C    basis set group =>   1
Atom   4H    basis set group =>   2
Atom   5C    basis set group =>   1
Atom   6C    basis set group =>   1
Atom   7H    basis set group =>   2
Atom   8C    basis set group =>   1
Atom   9C    basis set group =>   1
Atom  10H    basis set group =>   2
Atom  11C    basis set group =>   1
Atom  12C    basis set group =>   1
Atom  13C    basis set group =>   1
Atom  14N    basis set group =>   3
Atom  15N    basis set group =>   3
Atom  16C    basis set group =>   1
Atom  17C    basis set group =>   1
Atom  18N    basis set group =>   3
Atom  19N    basis set group =>   3
Atom  20C    basis set group =>   1
Atom  21C    basis set group =>   1
Atom  22N    basis set group =>   3
Atom  23N    basis set group =>   3
Atom  24H    basis set group =>   2
Atom  25H    basis set group =>   2
Atom  26H    basis set group =>   2
Atom  27H    basis set group =>   2
Atom  28H    basis set group =>   2
Atom  29H    basis set group =>   2
Atom  30H    basis set group =>   2
Atom  31H    basis set group =>   2
Atom  32C    basis set group =>   1
Atom  33H    basis set group =>   2
Atom  34C    basis set group =>   1
Atom  35C    basis set group =>   1
Atom  36H    basis set group =>   2
Atom  37C    basis set group =>   1
Atom  38H    basis set group =>   2
Atom  39H    basis set group =>   2
Atom  40C    basis set group =>   1
Atom  41H    basis set group =>   2
Atom  42H    basis set group =>   2
Atom  43C    basis set group =>   1
Atom  44H    basis set group =>   2
Atom  45H    basis set group =>   2
Atom  46H    basis set group =>   2
Atom  47H    basis set group =>   2
Atom  48H    basis set group =>   2
Atom  49H    basis set group =>   2
Atom  50C    basis set group =>   1
Atom  51H    basis set group =>   2
Atom  52H    basis set group =>   2
Atom  53C    basis set group =>   1
Atom  54H    basis set group =>   2
Atom  55H    basis set group =>   2
Atom  56C    basis set group =>   1
Atom  57H    basis set group =>   2
Atom  58H    basis set group =>   2
Atom  59H    basis set group =>   2
Atom  60H    basis set group =>   2
Atom  61H    basis set group =>   2
Atom  62H    basis set group =>   2
Atom  63C    basis set group =>   1
Atom  64H    basis set group =>   2
Atom  65H    basis set group =>   2
Atom  66C    basis set group =>   1
Atom  67H    basis set group =>   2
Atom  68H    basis set group =>   2
Atom  69C    basis set group =>   1
Atom  70H    basis set group =>   2
Atom  71H    basis set group =>   2
Atom  72H    basis set group =>   2
Atom  73H    basis set group =>   2
Atom  74H    basis set group =>   2

-------------------------------------
AUXILIARY/J BASIS SET IN INPUT FORMAT
-------------------------------------

 # Auxiliary/J basis set for element : H 
 NewAuxJGTO H 
 S 3 
   1      15.6752927000      0.1007184237
   2       3.6063578000      0.3404257499
   3       1.2080016000      0.6491996172
 S 1 
   1       0.4726794000      1.0000000000
 S 1 
   1       0.2018100000      1.0000000000
 P 2 
   1       2.0281365000      0.5596620919
   2       0.5358730000      0.5596620919
  end;

 # Auxiliary/J basis set for element : C 
 NewAuxJGTO C 
 S 3 
   1     459.7023860000      0.1098751775
   2     132.9577920000      0.2844848472
   3      41.5658170000      0.6964707648
 S 1 
   1      13.9155610000      1.0000000000
 S 1 
   1       4.9305290000     -1.0000000000
 S 1 
   1       1.8229480000      1.0000000000
 S 1 
   1       0.6920510000      1.0000000000
 S 1 
   1       0.2650930000      1.0000000000
 P 1 
   1       0.3278473579      1.0000000000
 P 1 
   1       0.7868336591      1.0000000000
 P 1 
   1       1.9710183160      1.0000000000
 D 1 
   1       4.0133010000      1.0000000000
 D 1 
   1       1.2475050000      1.0000000000
 D 1 
   1       0.4081480000      1.0000000000
  end;

 # Auxiliary/J basis set for element : N 
 NewAuxJGTO N 
 S 3 
   1     680.5425300000      0.1043830093
   2     196.7562140000      0.2751518961
   3      61.2707930000      0.7090825511
 S 1 
   1      20.3644630000      1.0000000000
 S 1 
   1       7.1424770000     -1.0000000000
 S 1 
   1       2.6080260000      1.0000000000
 S 1 
   1       0.9763730000      1.0000000000
 S 1 
   1       0.3686330000      1.0000000000
 P 1 
   1       0.4707391941      1.0000000000
 P 1 
   1       1.1297740658     -1.0000000000
 P 1 
   1       2.8300840347      1.0000000000
 D 1 
   1       5.8329865000      1.0000000000
 D 1 
   1       1.7326865000      1.0000000000
 D 1 
   1       0.5452425000      1.0000000000
  end;



           ************************************************************
           *        Program running with 32 parallel MPI-processes    *
           *              working on a common directory               *
           ************************************************************
------------------------------------------------------------------------------
                           ORCA GTO INTEGRAL CALCULATION
                           -- RI-GTO INTEGRALS CHOSEN --
------------------------------------------------------------------------------

                         BASIS SET STATISTICS AND STARTUP INFO

Gaussian basis set:
 # of primitive gaussian shells          ...  804
 # of primitive gaussian functions       ... 1332
 # of contracted shells                  ...  423
 # of contracted basis functions         ...  753
 Highest angular momentum                ...    2
 Maximum contraction depth               ...    6
Auxiliary gaussian basis set:
 # of primitive gaussian shells          ...  756
 # of primitive gaussian functions       ... 1518
 # of contracted shells                  ...  564
 # of contracted aux-basis functions     ... 1242
 Highest angular momentum                ...    2
 Maximum contraction depth               ...    3
Ratio of auxiliary to basis functions    ...  1.65
Integral package used                  ... LIBINT
 One Electron integrals                  ... done
 Ordering auxiliary basis shells         ... done
 Integral threshhold             Thresh  ...  2.500e-11
 Primitive cut-off               TCut    ...  2.500e-12
 Pre-screening matrix                    ... done
 Shell pair data                         ... 
 Ordering of the shell pairs             ... done (   0.010 sec) 53109 of 89676 pairs
 Determination of significant pairs      ... done (   0.000 sec)
 Creation of shell pair data             ... done (   0.005 sec)
 Storage of shell pair data              ... done (   0.012 sec)
 Shell pair data done in (   0.028 sec)
 Computing two index integrals           ... done
 Cholesky decomposition of the V-matrix  ... done


Timings:
 Total evaluation time                   ...   0.882 sec (  0.015 min)
 One electron matrix time                ...   0.366 sec (  0.006 min) = 41.5%
 Schwartz matrix evaluation time         ...   0.321 sec (  0.005 min) = 36.3%
 Two index repulsion integral time       ...   0.033 sec (  0.001 min) =  3.8%
 Cholesky decomposition of V             ...   0.108 sec (  0.002 min) = 12.3%
 Three index repulsion integral time     ...   0.000 sec (  0.000 min) =  0.0%



           ************************************************************
           *        Program running with 32 parallel MPI-processes    *
           *              working on a common directory               *
           ************************************************************
-------------------------------------------------------------------------------
                                 ORCA SCF
-------------------------------------------------------------------------------

------------
SCF SETTINGS
------------
Hamiltonian:
 Density Functional     Method          .... DFT(GTOs)
 Exchange Functional    Exchange        .... B973C
 Correlation Functional Correlation     .... B973C
 Gradients option       PostSCFGGA      .... off
   Density functional embedding theory  .... OFF
 RI-approximation to the Coulomb term is turned on
   Number of auxiliary basis functions  .... 1242


General Settings:
 Integral files         IntName         .... _o_1_alde1_3_ami3_1_opt_B97-3c
 Hartree-Fock type      HFTyp           .... RHF
 Total Charge           Charge          ....    0
 Multiplicity           Mult            ....    1
 Number of Electrons    NEL             ....  246
 Basis Dimension        Dim             ....  753
 Nuclear Repulsion      ENuc            ....   3503.1326302640 Eh

Convergence Acceleration:
 DIIS                   CNVDIIS         .... on
   Start iteration      DIISMaxIt       ....     0
   Startup error        DIISStart       ....  0.200000
   # of expansion vecs  DIISMaxEq       ....     5
   Bias factor          DIISBfac        ....   1.050
   Max. coefficient     DIISMaxC        ....  10.000
 Newton-Raphson         CNVNR           .... off
 SOSCF                  CNVSOSCF        .... on
   Start iteration      SOSCFMaxIt      ....   150
   Startup grad/error   SOSCFStart      ....  0.001000
 Level Shifting         CNVShift        .... on
   Level shift para.    LevelShift      ....    0.2500
   Turn off err/grad.   ShiftErr        ....    0.0000
 Zerner damping         CNVZerner       .... off
 Static damping         CNVDamp         .... on
   Fraction old density DampFac         ....    0.8500
   Max. Damping (<1)    DampMax         ....    0.9800
   Min. Damping (>=0)   DampMin         ....    0.0000
   Turn off err/grad.   DampErr         ....    0.0300
 Fernandez-Rico         CNVRico         .... off

SCF Procedure:
 Maximum # iterations   MaxIter         ....  2000
 SCF integral mode      SCFMode         .... Direct
   Integral package                     .... LIBINT
 Reset frequency        DirectResetFreq ....    20
 Integral Threshold     Thresh          ....  2.500e-11 Eh
 Primitive CutOff       TCut            ....  2.500e-12 Eh

Convergence Tolerance:
 Convergence Check Mode ConvCheckMode   .... Total+1el-Energy
 Convergence forced     ConvForced      .... 0
 Energy Change          TolE            ....  1.000e-08 Eh
 1-El. energy change                    ....  1.000e-05 Eh
 Orbital Gradient       TolG            ....  1.000e-05
 Orbital Rotation angle TolX            ....  1.000e-05
 DIIS Error             TolErr          ....  5.000e-07


Diagonalization of the overlap matrix:
Smallest eigenvalue                        ... 5.903e-06
Time for diagonalization                   ...    0.287 sec
Threshold for overlap eigenvalues          ... 1.000e-08
Number of eigenvalues below threshold      ... 0
Time for construction of square roots      ...    0.073 sec
Total time needed                          ...    0.361 sec

--------------------------------
INITIAL GUESS: MINIMAL BASIS EHT
--------------------------------
The minimal basis has 207 functions
EHT matrix was diagonalized
Basis set overlap was calculated now projecting the orbitals
Using GuessMode=FMatrix for the initial guess
C*T matrix was formed
Effective Fockian was calculated
Effective Fockian was diagonalized
Initial density was built
                      ------------------
                      INITIAL GUESS DONE
                      ------------------
-------------------
DFT GRID GENERATION
-------------------

General Integration Accuracy     IntAcc      ...  5.340
Radial Grid Type                 RadialGrid  ... Gauss-Chebyshev
Angular Grid (max. acc.)         AngularGrid ... Lebedev-590
Angular grid pruning method      GridPruning ... 3 (G Style)
Weight generation scheme         WeightScheme... Becke
Basis function cutoff            BFCut       ...    1.0000e-11
Integration weight cutoff        WCut        ...    1.0000e-14
Grids for H and He will be reduced by one unit

# of grid points (after initial pruning)     ... 1006764 (   0.0 sec)
# of grid points (after weights+screening)   ... 839114 (   1.0 sec)
nearest neighbour list constructed           ...    0.0 sec
Grid point re-assignment to atoms done       ...    0.1 sec
Grid point division into batches done        ...    8.1 sec
Reduced shell lists constructed in    8.5 sec

Total number of grid points                  ...   839114
Total number of batches                      ...    13153
Average number of points per batch           ...       63
Average number of grid points per atom       ...    11188
Average number of shells per batch           ...   189.39 (44.77%)
Average number of basis functions per batch  ...   345.76 (45.92%)
Average number of large shells per batch     ...   116.79 (61.67%)
Average number of large basis fcns per batch ...   223.02 (64.50%)
Maximum spatial batch extension              ...   6.49, 21.66,  8.43 au
Average spatial batch extension              ...   0.03,  0.03,  0.03 au

Time for grid setup =    9.795 sec

--------------
SCF ITERATIONS
--------------
ITER       Energy         Delta-E        Max-DP      RMS-DP      [F,P]     Damp
               ***  Starting incremental Fock matrix formation  ***
  0  -1378.1446344814   0.000000000000 1.65056845  0.01069620  0.4721829 0.8500
  1  -1378.7405886559  -0.595954174441 1.03475794  0.00675928  0.4017913 0.8500
                               ***Turning on DIIS***
  2  -1379.2002309646  -0.459642308774 0.51964149  0.00353647  0.3409564 0.8500
  3  -1379.5658481890  -0.365617224310 0.07149998  0.00109384  0.2893251 0.8500
  4  -1379.8702096365  -0.304361447565 0.12597738  0.00107254  0.2457155 0.8500
  5  -1380.1236450979  -0.253435461362 0.14346093  0.00107398  0.2088172 0.8500
  6  -1380.3408732139  -0.217228115989 0.12495517  0.00092904  0.1774872 0.8500
  7  -1380.5265403760  -0.185667162135 0.09329292  0.00072858  0.1508601 0.8500
  8  -1380.6847957166  -0.158255340635 0.08405730  0.00064408  0.1282109 0.8500
  9  -1380.8186718199  -0.133876103211 0.08004485  0.00059232  0.1089695 0.8500
 10  -1380.9319878073  -0.113315987426 0.07021681  0.00051579  0.0926241 0.8500
 11  -1381.0282397043  -0.096251897011 0.05781763  0.00042794  0.0787299 0.8500
 12  -1381.1101096143  -0.081869910022 0.04737342  0.00035425  0.0669143 0.8500
 13  -1381.1796916034  -0.069581989116 0.04042789  0.00030199  0.0568675 0.8500
 14  -1381.2387759494  -0.059084345981 0.03487584  0.00025980  0.0483294 0.8500
 15  -1381.2889486283  -0.050172678885 0.02802787  0.00021346  0.0410756 0.8500
 16  -1381.3315766351  -0.042628006774 0.02080908  0.00016675  0.0349118 0.8500
 17  -1381.3678058490  -0.036229213975 0.09686527  0.00085833  0.0296724 0.0000
                      *** Initiating the SOSCF procedure ***
                           *** Shutting down DIIS ***
                      *** Re-Reading the Fockian *** 
                      *** Removing any level shift *** 
ITER      Energy       Delta-E        Grad      Rot      Max-DP    RMS-DP
 18  -1381.57290040  -0.2050945515  0.000113  0.000113  0.039529  0.000248
               *** Restarting incremental Fock matrix formation ***
 19  -1381.57289991   0.0000004941  0.000152  0.000247  0.010039  0.000066
 20  -1381.57288914   0.0000107668  0.000251  0.000175  0.006900  0.000044
 21  -1381.57290406  -0.0000149215  0.000009  0.000038  0.006953  0.000042
 22  -1381.57290400   0.0000000612  0.000016  0.000030  0.000852  0.000005
 23  -1381.57290408  -0.0000000780  0.000007  0.000012  0.006656  0.000043
 24  -1381.57290409  -0.0000000127  0.000004  0.000008  0.002968  0.000020
                  ***Gradient check signals convergence***
              ***Rediagonalizing the Fockian in SOSCF/NRSCF***

               *****************************************************
               *                     SUCCESS                       *
               *           SCF CONVERGED AFTER  25 CYCLES          *
               *****************************************************


----------------
TOTAL SCF ENERGY
----------------

Total Energy       :        -1381.57290410 Eh          -37594.50999 eV

Components:
Nuclear Repulsion  :         3503.13263026 Eh           95325.08510 eV
Electronic Energy  :        -4884.70553436 Eh         -132919.59509 eV
One Electron Energy:        -8843.19148046 Eh         -240635.47385 eV
Two Electron Energy:         3958.48594610 Eh          107715.87876 eV

Virial components:
Potential Energy   :        -2758.06874554 Eh          -75050.86608 eV
Kinetic Energy     :         1376.49584144 Eh           37456.35609 eV
Virial Ratio       :            2.00368840


DFT components:
N(Alpha)           :      123.000030951625 electrons
N(Beta)            :      123.000030951625 electrons
N(Total)           :      246.000061903250 electrons
E(XC)              :     -203.030245797900 Eh       
DFET-embed. en.    :        0.000000000000 Eh       

---------------
SCF CONVERGENCE
---------------

  Last Energy change         ...   -8.9881e-09  Tolerance :   1.0000e-08
  Last MAX-Density change    ...    2.8121e-03  Tolerance :   1.0000e-07
  Last RMS-Density change    ...    1.3983e-05  Tolerance :   5.0000e-09
  Last Orbital Gradient      ...    1.2840e-06  Tolerance :   1.0000e-05
  Last Orbital Rotation      ...    1.7868e-06  Tolerance :   1.0000e-05

             **** THE GBW FILE WAS UPDATED (_o_1_alde1_3_ami3_1_opt_B97-3c.gbw) ****
             **** DENSITY FILE WAS UPDATED (_o_1_alde1_3_ami3_1_opt_B97-3c.scfp) ****
             **** ENERGY FILE WAS UPDATED (_o_1_alde1_3_ami3_1_opt_B97-3c.en.tmp) ****
             **** THE GBW FILE WAS UPDATED (_o_1_alde1_3_ami3_1_opt_B97-3c.gbw) ****
             **** DENSITY FILE WAS UPDATED (_o_1_alde1_3_ami3_1_opt_B97-3c.scfp) ****
----------------
ORBITAL ENERGIES
----------------

  NO   OCC          E(Eh)            E(eV) 
   0   2.0000     -13.965918      -380.0319 
   1   2.0000     -13.965901      -380.0315 
   2   2.0000     -13.965890      -380.0312 
   3   2.0000     -13.965356      -380.0166 
   4   2.0000     -13.965326      -380.0158 
   5   2.0000     -13.965323      -380.0158 
   6   2.0000      -9.935202      -270.3506 
   7   2.0000      -9.935193      -270.3504 
   8   2.0000      -9.935190      -270.3503 
   9   2.0000      -9.905900      -269.5532 
  10   2.0000      -9.905887      -269.5529 
  11   2.0000      -9.905876      -269.5526 
  12   2.0000      -9.905802      -269.5506 
  13   2.0000      -9.905789      -269.5502 
  14   2.0000      -9.905778      -269.5499 
  15   2.0000      -9.887390      -269.0496 
  16   2.0000      -9.887378      -269.0492 
  17   2.0000      -9.887370      -269.0490 
  18   2.0000      -9.887104      -269.0418 
  19   2.0000      -9.887099      -269.0417 
  20   2.0000      -9.887078      -269.0411 
  21   2.0000      -9.886506      -269.0255 
  22   2.0000      -9.886492      -269.0251 
  23   2.0000      -9.886491      -269.0251 
  24   2.0000      -9.886294      -269.0197 
  25   2.0000      -9.886269      -269.0191 
  26   2.0000      -9.886268      -269.0190 
  27   2.0000      -9.881111      -268.8787 
  28   2.0000      -9.881106      -268.8786 
  29   2.0000      -9.881095      -268.8783 
  30   2.0000      -9.870669      -268.5946 
  31   2.0000      -9.870657      -268.5942 
  32   2.0000      -9.870634      -268.5936 
  33   2.0000      -0.879748       -23.9392 
  34   2.0000      -0.878728       -23.9114 
  35   2.0000      -0.878722       -23.9112 
  36   2.0000      -0.779852       -21.2208 
  37   2.0000      -0.777244       -21.1499 
  38   2.0000      -0.777230       -21.1495 
  39   2.0000      -0.776357       -21.1257 
  40   2.0000      -0.756381       -20.5822 
  41   2.0000      -0.756365       -20.5817 
  42   2.0000      -0.749873       -20.4051 
  43   2.0000      -0.694029       -18.8855 
  44   2.0000      -0.694004       -18.8848 
  45   2.0000      -0.671262       -18.2660 
  46   2.0000      -0.671243       -18.2655 
  47   2.0000      -0.671217       -18.2647 
  48   2.0000      -0.660496       -17.9730 
  49   2.0000      -0.644144       -17.5280 
  50   2.0000      -0.644133       -17.5277 
  51   2.0000      -0.575775       -15.6676 
  52   2.0000      -0.575768       -15.6674 
  53   2.0000      -0.571475       -15.5506 
  54   2.0000      -0.546531       -14.8719 
  55   2.0000      -0.546504       -14.8711 
  56   2.0000      -0.543753       -14.7963 
  57   2.0000      -0.542914       -14.7734 
  58   2.0000      -0.542633       -14.7658 
  59   2.0000      -0.542613       -14.7652 
  60   2.0000      -0.518923       -14.1206 
  61   2.0000      -0.518906       -14.1202 
  62   2.0000      -0.518345       -14.1049 
  63   2.0000      -0.499150       -13.5826 
  64   2.0000      -0.499139       -13.5823 
  65   2.0000      -0.455824       -12.4036 
  66   2.0000      -0.453231       -12.3330 
  67   2.0000      -0.445652       -12.1268 
  68   2.0000      -0.445629       -12.1262 
  69   2.0000      -0.432632       -11.7725 
  70   2.0000      -0.428450       -11.6587 
  71   2.0000      -0.428415       -11.6578 
  72   2.0000      -0.416001       -11.3200 
  73   2.0000      -0.412243       -11.2177 
  74   2.0000      -0.412243       -11.2177 
  75   2.0000      -0.407833       -11.0977 
  76   2.0000      -0.407302       -11.0833 
  77   2.0000      -0.407291       -11.0830 
  78   2.0000      -0.397705       -10.8221 
  79   2.0000      -0.390808       -10.6344 
  80   2.0000      -0.388294       -10.5660 
  81   2.0000      -0.388272       -10.5654 
  82   2.0000      -0.375238       -10.2108 
  83   2.0000      -0.375224       -10.2104 
  84   2.0000      -0.368938       -10.0393 
  85   2.0000      -0.353562        -9.6209 
  86   2.0000      -0.353555        -9.6207 
  87   2.0000      -0.352605        -9.5949 
  88   2.0000      -0.351592        -9.5673 
  89   2.0000      -0.351579        -9.5669 
  90   2.0000      -0.349138        -9.5005 
  91   2.0000      -0.339355        -9.2343 
  92   2.0000      -0.333903        -9.0860 
  93   2.0000      -0.333865        -9.0849 
  94   2.0000      -0.323467        -8.8020 
  95   2.0000      -0.317163        -8.6304 
  96   2.0000      -0.317128        -8.6295 
  97   2.0000      -0.311477        -8.4757 
  98   2.0000      -0.311453        -8.4751 
  99   2.0000      -0.310563        -8.4508 
 100   2.0000      -0.307556        -8.3690 
 101   2.0000      -0.307552        -8.3689 
 102   2.0000      -0.307546        -8.3687 
 103   2.0000      -0.294087        -8.0025 
 104   2.0000      -0.290297        -7.8994 
 105   2.0000      -0.290288        -7.8991 
 106   2.0000      -0.288448        -7.8491 
 107   2.0000      -0.287759        -7.8303 
 108   2.0000      -0.287751        -7.8301 
 109   2.0000      -0.279926        -7.6172 
 110   2.0000      -0.279115        -7.5951 
 111   2.0000      -0.279108        -7.5949 
 112   2.0000      -0.273156        -7.4329 
 113   2.0000      -0.273025        -7.4294 
 114   2.0000      -0.273017        -7.4292 
 115   2.0000      -0.212547        -5.7837 
 116   2.0000      -0.212532        -5.7833 
 117   2.0000      -0.191237        -5.2038 
 118   2.0000      -0.186541        -5.0760 
 119   2.0000      -0.186498        -5.0749 
 120   2.0000      -0.182704        -4.9716 
 121   2.0000      -0.177840        -4.8393 
 122   2.0000      -0.177827        -4.8389 
 123   0.0000      -0.022649        -0.6163 
 124   0.0000      -0.022579        -0.6144 
 125   0.0000       0.017652         0.4803 
 126   0.0000       0.026930         0.7328 
 127   0.0000       0.026939         0.7330 
 128   0.0000       0.027870         0.7584 
 129   0.0000       0.030841         0.8392 
 130   0.0000       0.030851         0.8395 
 131   0.0000       0.035137         0.9561 
 132   0.0000       0.046175         1.2565 
 133   0.0000       0.046214         1.2575 
 134   0.0000       0.052441         1.4270 
 135   0.0000       0.056476         1.5368 
 136   0.0000       0.056512         1.5378 
 137   0.0000       0.066188         1.8011 
 138   0.0000       0.071109         1.9350 
 139   0.0000       0.071136         1.9357 
 140   0.0000       0.079216         2.1556 
 141   0.0000       0.080031         2.1778 
 142   0.0000       0.080055         2.1784 
 143   0.0000       0.080565         2.1923 
 144   0.0000       0.088464         2.4072 
 145   0.0000       0.089673         2.4401 
 146   0.0000       0.089710         2.4411 
 147   0.0000       0.096390         2.6229 
 148   0.0000       0.099373         2.7041 
 149   0.0000       0.099401         2.7048 
 150   0.0000       0.102384         2.7860 
 151   0.0000       0.102410         2.7867 
 152   0.0000       0.104901         2.8545 
 153   0.0000       0.106970         2.9108 
 154   0.0000       0.106986         2.9112 
 155   0.0000       0.110352         3.0028 
 156   0.0000       0.113664         3.0930 
 157   0.0000       0.115506         3.1431 
 158   0.0000       0.115525         3.1436 
 159   0.0000       0.117115         3.1869 
 160   0.0000       0.123610         3.3636 
 161   0.0000       0.123627         3.3640 
 162   0.0000       0.125034         3.4024 
 163   0.0000       0.125081         3.4036 
 164   0.0000       0.127125         3.4592 
 165   0.0000       0.134647         3.6639 
 166   0.0000       0.138088         3.7576 
 167   0.0000       0.138104         3.7580 
 168   0.0000       0.149207         4.0601 
 169   0.0000       0.149260         4.0616 
 170   0.0000       0.150318         4.0904 
 171   0.0000       0.157874         4.2960 
 172   0.0000       0.157885         4.2963 
 173   0.0000       0.159919         4.3516 
 174   0.0000       0.164542         4.4774 
 175   0.0000       0.167693         4.5631 
 176   0.0000       0.167730         4.5642 
 177   0.0000       0.168881         4.5955 
 178   0.0000       0.169854         4.6220 
 179   0.0000       0.169858         4.6221 
 180   0.0000       0.177825         4.8389 
 181   0.0000       0.180456         4.9104 
 182   0.0000       0.180484         4.9112 
 183   0.0000       0.186928         5.0866 
 184   0.0000       0.194962         5.3052 
 185   0.0000       0.195067         5.3080 
 186   0.0000       0.196750         5.3538 
 187   0.0000       0.202046         5.4979 
 188   0.0000       0.202131         5.5003 
 189   0.0000       0.204243         5.5577 
 190   0.0000       0.209760         5.7078 
 191   0.0000       0.209773         5.7082 
 192   0.0000       0.212083         5.7711 
 193   0.0000       0.219040         5.9604 
 194   0.0000       0.219048         5.9606 
 195   0.0000       0.219394         5.9700 
 196   0.0000       0.225659         6.1405 
 197   0.0000       0.226613         6.1665 
 198   0.0000       0.226626         6.1668 
 199   0.0000       0.229274         6.2389 
 200   0.0000       0.229310         6.2398 
 201   0.0000       0.236549         6.4368 
 202   0.0000       0.245324         6.6756 
 203   0.0000       0.245356         6.6765 
 204   0.0000       0.247085         6.7235 
 205   0.0000       0.249915         6.8005 
 206   0.0000       0.249930         6.8010 
 207   0.0000       0.252864         6.8808 
 208   0.0000       0.257202         6.9988 
 209   0.0000       0.257232         6.9997 
 210   0.0000       0.259171         7.0524 
 211   0.0000       0.264836         7.2066 
 212   0.0000       0.264923         7.2089 
 213   0.0000       0.266485         7.2514 
 214   0.0000       0.280147         7.6232 
 215   0.0000       0.280216         7.6251 
 216   0.0000       0.287071         7.8116 
 217   0.0000       0.290998         7.9185 
 218   0.0000       0.291021         7.9191 
 219   0.0000       0.302298         8.2259 
 220   0.0000       0.306852         8.3499 
 221   0.0000       0.306878         8.3506 
 222   0.0000       0.312933         8.5154 
 223   0.0000       0.315172         8.5763 
 224   0.0000       0.315215         8.5774 
 225   0.0000       0.315659         8.5895 
 226   0.0000       0.325400         8.8546 
 227   0.0000       0.328029         8.9261 
 228   0.0000       0.328075         8.9274 
 229   0.0000       0.336168         9.1476 
 230   0.0000       0.336291         9.1509 
 231   0.0000       0.336963         9.1692 
 232   0.0000       0.341002         9.2791 
 233   0.0000       0.341052         9.2805 
 234   0.0000       0.343954         9.3595 
 235   0.0000       0.347881         9.4663 
 236   0.0000       0.347945         9.4681 
 237   0.0000       0.350516         9.5380 
 238   0.0000       0.350636         9.5413 
 239   0.0000       0.354431         9.6446 
 240   0.0000       0.359367         9.7789 
 241   0.0000       0.361912         9.8481 
 242   0.0000       0.362080         9.8527 
 243   0.0000       0.371284        10.1031 
 244   0.0000       0.378071        10.2878 
 245   0.0000       0.378148        10.2899 
 246   0.0000       0.379836        10.3359 
 247   0.0000       0.385039        10.4774 
 248   0.0000       0.385119        10.4796 
 249   0.0000       0.387368        10.5408 
 250   0.0000       0.395310        10.7569 
 251   0.0000       0.395373        10.7586 
 252   0.0000       0.395771        10.7695 
 253   0.0000       0.397638        10.8203 
 254   0.0000       0.399467        10.8700 
 255   0.0000       0.399487        10.8706 
 256   0.0000       0.406427        11.0594 
 257   0.0000       0.406483        11.0610 
 258   0.0000       0.407327        11.0839 
 259   0.0000       0.410366        11.1666 
 260   0.0000       0.410379        11.1670 
 261   0.0000       0.413808        11.2603 
 262   0.0000       0.415416        11.3041 
 263   0.0000       0.415466        11.3054 
 264   0.0000       0.417534        11.3617 
 265   0.0000       0.421838        11.4788 
 266   0.0000       0.421871        11.4797 
 267   0.0000       0.422307        11.4916 
 268   0.0000       0.423524        11.5247 
 269   0.0000       0.423538        11.5251 
 270   0.0000       0.425597        11.5811 
 271   0.0000       0.425612        11.5815 
 272   0.0000       0.427183        11.6242 
 273   0.0000       0.428535        11.6610 
 274   0.0000       0.428543        11.6613 
 275   0.0000       0.428880        11.6704 
 276   0.0000       0.431175        11.7329 
 277   0.0000       0.433815        11.8047 
 278   0.0000       0.434327        11.8186 
 279   0.0000       0.434354        11.8194 
 280   0.0000       0.442668        12.0456 
 281   0.0000       0.444158        12.0862 
 282   0.0000       0.444184        12.0869 
 283   0.0000       0.449887        12.2420 
 284   0.0000       0.450472        12.2580 
 285   0.0000       0.450518        12.2592 
 286   0.0000       0.455709        12.4005 
 287   0.0000       0.455751        12.4016 
 288   0.0000       0.457941        12.4612 
 289   0.0000       0.459506        12.5038 
 290   0.0000       0.459570        12.5055 
 291   0.0000       0.464495        12.6395 
 292   0.0000       0.469165        12.7666 
 293   0.0000       0.469220        12.7681 
 294   0.0000       0.473276        12.8785 
 295   0.0000       0.474719        12.9178 
 296   0.0000       0.474818        12.9205 
 297   0.0000       0.478851        13.0302 
 298   0.0000       0.480843        13.0844 
 299   0.0000       0.488296        13.2872 
 300   0.0000       0.488354        13.2888 
 301   0.0000       0.494300        13.4506 
 302   0.0000       0.494306        13.4508 
 303   0.0000       0.503798        13.7090 
 304   0.0000       0.503842        13.7102 
 305   0.0000       0.505893        13.7661 
 306   0.0000       0.508485        13.8366 
 307   0.0000       0.510405        13.8888 
 308   0.0000       0.510490        13.8911 
 309   0.0000       0.519672        14.1410 
 310   0.0000       0.519797        14.1444 
 311   0.0000       0.521469        14.1899 
 312   0.0000       0.527694        14.3593 
 313   0.0000       0.532150        14.4805 
 314   0.0000       0.532394        14.4872 
 315   0.0000       0.543614        14.7925 
 316   0.0000       0.543772        14.7968 
 317   0.0000       0.545593        14.8463 
 318   0.0000       0.551835        15.0162 
 319   0.0000       0.551928        15.0187 
 320   0.0000       0.559216        15.2170 
 321   0.0000       0.563597        15.3363 
 322   0.0000       0.563702        15.3391 
 323   0.0000       0.565657        15.3923 
 324   0.0000       0.584445        15.9036 
 325   0.0000       0.585097        15.9213 
 326   0.0000       0.585237        15.9251 
 327   0.0000       0.598448        16.2846 
 328   0.0000       0.598498        16.2860 
 329   0.0000       0.607708        16.5366 
 330   0.0000       0.620159        16.8754 
 331   0.0000       0.623509        16.9665 
 332   0.0000       0.623655        16.9705 
 333   0.0000       0.639593        17.4042 
 334   0.0000       0.639689        17.4068 
 335   0.0000       0.641908        17.4672 
 336   0.0000       0.648525        17.6472 
 337   0.0000       0.648634        17.6502 
 338   0.0000       0.651111        17.7176 
 339   0.0000       0.663630        18.0583 
 340   0.0000       0.672318        18.2947 
 341   0.0000       0.672390        18.2967 
 342   0.0000       0.677497        18.4356 
 343   0.0000       0.687776        18.7153 
 344   0.0000       0.687986        18.7211 
 345   0.0000       0.694875        18.9085 
 346   0.0000       0.711766        19.3681 
 347   0.0000       0.712014        19.3749 
 348   0.0000       0.722815        19.6688 
 349   0.0000       0.722875        19.6704 
 350   0.0000       0.723121        19.6771 
 351   0.0000       0.743392        20.2287 
 352   0.0000       0.745713        20.2919 
 353   0.0000       0.745751        20.2929 
 354   0.0000       0.751457        20.4482 
 355   0.0000       0.758493        20.6397 
 356   0.0000       0.758569        20.6417 
 357   0.0000       0.763619        20.7791 
 358   0.0000       0.778155        21.1747 
 359   0.0000       0.778278        21.1780 
 360   0.0000       0.791151        21.5283 
 361   0.0000       0.791221        21.5302 
 362   0.0000       0.791527        21.5386 
 363   0.0000       0.798016        21.7151 
 364   0.0000       0.802908        21.8482 
 365   0.0000       0.809114        22.0171 
 366   0.0000       0.809341        22.0233 
 367   0.0000       0.836018        22.7492 
 368   0.0000       0.836139        22.7525 
 369   0.0000       0.844500        22.9800 
 370   0.0000       0.844621        22.9833 
 371   0.0000       0.849694        23.1214 
 372   0.0000       0.858356        23.3571 
 373   0.0000       0.867208        23.5979 
 374   0.0000       0.867286        23.6001 
 375   0.0000       0.906533        24.6680 
 376   0.0000       0.913348        24.8535 
 377   0.0000       0.913553        24.8590 
 378   0.0000       0.944329        25.6965 
 379   0.0000       0.944571        25.7031 
 380   0.0000       0.946003        25.7420 
 381   0.0000       1.154756        31.4225 
 382   0.0000       1.154881        31.4259 
 383   0.0000       1.180652        32.1272 
 384   0.0000       1.201694        32.6998 
 385   0.0000       1.223743        33.2998 
 386   0.0000       1.223760        33.3002 
 387   0.0000       1.226518        33.3753 
 388   0.0000       1.237663        33.6785 
 389   0.0000       1.237856        33.6838 
 390   0.0000       1.237912        33.6853 
 391   0.0000       1.266184        34.4546 
 392   0.0000       1.277544        34.7637 
 393   0.0000       1.286548        35.0087 
 394   0.0000       1.286663        35.0119 
 395   0.0000       1.291518        35.1440 
 396   0.0000       1.291637        35.1472 
 397   0.0000       1.296851        35.2891 
 398   0.0000       1.320258        35.9261 
 399   0.0000       1.322260        35.9805 
 400   0.0000       1.322303        35.9817 
 401   0.0000       1.327650        36.1272 
 402   0.0000       1.327719        36.1291 
 403   0.0000       1.343646        36.5625 
 404   0.0000       1.353384        36.8274 
 405   0.0000       1.367505        37.2117 
 406   0.0000       1.367626        37.2150 
 407   0.0000       1.368751        37.2456 
 408   0.0000       1.380734        37.5717 
 409   0.0000       1.380917        37.5767 
 410   0.0000       1.381751        37.5994 
 411   0.0000       1.385921        37.7128 
 412   0.0000       1.385984        37.7146 
 413   0.0000       1.392474        37.8912 
 414   0.0000       1.395983        37.9866 
 415   0.0000       1.395998        37.9870 
 416   0.0000       1.400016        38.0964 
 417   0.0000       1.405441        38.2440 
 418   0.0000       1.405511        38.2459 
 419   0.0000       1.413638        38.4670 
 420   0.0000       1.415790        38.5256 
 421   0.0000       1.415858        38.5275 
 422   0.0000       1.424935        38.7744 
 423   0.0000       1.425581        38.7920 
 424   0.0000       1.425626        38.7932 
 425   0.0000       1.431731        38.9594 
 426   0.0000       1.438333        39.1390 
 427   0.0000       1.439599        39.1735 
 428   0.0000       1.439718        39.1767 
 429   0.0000       1.445341        39.3297 
 430   0.0000       1.445506        39.3342 
 431   0.0000       1.455524        39.6068 
 432   0.0000       1.465795        39.8863 
 433   0.0000       1.465882        39.8887 
 434   0.0000       1.469471        39.9863 
 435   0.0000       1.477029        40.1920 
 436   0.0000       1.477117        40.1944 
 437   0.0000       1.480952        40.2988 
 438   0.0000       1.481505        40.3138 
 439   0.0000       1.481544        40.3149 
 440   0.0000       1.492519        40.6135 
 441   0.0000       1.492604        40.6158 
 442   0.0000       1.500724        40.8368 
 443   0.0000       1.504745        40.9462 
 444   0.0000       1.504781        40.9472 
 445   0.0000       1.508862        41.0582 
 446   0.0000       1.512843        41.1666 
 447   0.0000       1.512881        41.1676 
 448   0.0000       1.516820        41.2748 
 449   0.0000       1.524135        41.4738 
 450   0.0000       1.524230        41.4764 
 451   0.0000       1.525750        41.5178 
 452   0.0000       1.531285        41.6684 
 453   0.0000       1.531341        41.6699 
 454   0.0000       1.543473        42.0000 
 455   0.0000       1.543552        42.0022 
 456   0.0000       1.545175        42.0463 
 457   0.0000       1.554210        42.2922 
 458   0.0000       1.557367        42.3781 
 459   0.0000       1.557403        42.3791 
 460   0.0000       1.574507        42.8445 
 461   0.0000       1.574546        42.8456 
 462   0.0000       1.591539        43.3080 
 463   0.0000       1.592695        43.3394 
 464   0.0000       1.592781        43.3418 
 465   0.0000       1.598850        43.5069 
 466   0.0000       1.598880        43.5077 
 467   0.0000       1.602046        43.5939 
 468   0.0000       1.603541        43.6346 
 469   0.0000       1.609679        43.8016 
 470   0.0000       1.609705        43.8023 
 471   0.0000       1.615569        43.9619 
 472   0.0000       1.615597        43.9626 
 473   0.0000       1.622377        44.1471 
 474   0.0000       1.624760        44.2120 
 475   0.0000       1.637633        44.5623 
 476   0.0000       1.637686        44.5637 
 477   0.0000       1.638614        44.5890 
 478   0.0000       1.652394        44.9639 
 479   0.0000       1.652516        44.9672 
 480   0.0000       1.661492        45.2115 
 481   0.0000       1.664451        45.2920 
 482   0.0000       1.664567        45.2952 
 483   0.0000       1.668380        45.3989 
 484   0.0000       1.672294        45.5054 
 485   0.0000       1.672374        45.5076 
 486   0.0000       1.679771        45.7089 
 487   0.0000       1.679850        45.7110 
 488   0.0000       1.686548        45.8933 
 489   0.0000       1.692177        46.0465 
 490   0.0000       1.692311        46.0501 
 491   0.0000       1.700432        46.2711 
 492   0.0000       1.708358        46.4868 
 493   0.0000       1.718215        46.7550 
 494   0.0000       1.718377        46.7594 
 495   0.0000       1.722940        46.8836 
 496   0.0000       1.729866        47.0721 
 497   0.0000       1.730054        47.0772 
 498   0.0000       1.743941        47.4550 
 499   0.0000       1.747900        47.5628 
 500   0.0000       1.747994        47.5653 
 501   0.0000       1.758224        47.8437 
 502   0.0000       1.761797        47.9409 
 503   0.0000       1.761861        47.9427 
 504   0.0000       1.773040        48.2469 
 505   0.0000       1.773435        48.2576 
 506   0.0000       1.773529        48.2602 
 507   0.0000       1.786926        48.6247 
 508   0.0000       1.801656        49.0256 
 509   0.0000       1.801704        49.0268 
 510   0.0000       1.805681        49.1351 
 511   0.0000       1.805817        49.1388 
 512   0.0000       1.808045        49.1994 
 513   0.0000       1.812877        49.3309 
 514   0.0000       1.813285        49.3420 
 515   0.0000       1.813306        49.3426 
 516   0.0000       1.818543        49.4851 
 517   0.0000       1.818612        49.4870 
 518   0.0000       1.821703        49.5711 
 519   0.0000       1.824371        49.6437 
 520   0.0000       1.830960        49.8229 
 521   0.0000       1.830978        49.8234 
 522   0.0000       1.842874        50.1471 
 523   0.0000       1.843028        50.1513 
 524   0.0000       1.845271        50.2124 
 525   0.0000       1.859429        50.5976 
 526   0.0000       1.863596        50.7110 
 527   0.0000       1.863699        50.7138 
 528   0.0000       1.874830        51.0167 
 529   0.0000       1.874846        51.0172 
 530   0.0000       1.876164        51.0530 
 531   0.0000       1.890737        51.4496 
 532   0.0000       1.892219        51.4899 
 533   0.0000       1.892289        51.4918 
 534   0.0000       1.899728        51.6942 
 535   0.0000       1.907428        51.9038 
 536   0.0000       1.907610        51.9087 
 537   0.0000       1.924433        52.3665 
 538   0.0000       1.940072        52.7920 
 539   0.0000       1.940188        52.7952 
 540   0.0000       1.944408        52.9100 
 541   0.0000       1.950329        53.0712 
 542   0.0000       1.950424        53.0737 
 543   0.0000       1.957955        53.2787 
 544   0.0000       1.968404        53.5630 
 545   0.0000       1.968470        53.5648 
 546   0.0000       1.968554        53.5671 
 547   0.0000       1.980801        53.9003 
 548   0.0000       1.983259        53.9672 
 549   0.0000       1.983288        53.9680 
 550   0.0000       1.990770        54.1716 
 551   0.0000       1.994707        54.2787 
 552   0.0000       1.994765        54.2803 
 553   0.0000       2.006927        54.6113 
 554   0.0000       2.007075        54.6153 
 555   0.0000       2.011145        54.7260 
 556   0.0000       2.018608        54.9291 
 557   0.0000       2.018723        54.9323 
 558   0.0000       2.021907        55.0189 
 559   0.0000       2.037286        55.4374 
 560   0.0000       2.037318        55.4382 
 561   0.0000       2.038477        55.4698 
 562   0.0000       2.047308        55.7101 
 563   0.0000       2.047368        55.7117 
 564   0.0000       2.061219        56.0886 
 565   0.0000       2.068258        56.2802 
 566   0.0000       2.068268        56.2804 
 567   0.0000       2.074706        56.4556 
 568   0.0000       2.095094        57.0104 
 569   0.0000       2.101830        57.1937 
 570   0.0000       2.102085        57.2006 
 571   0.0000       2.104953        57.2787 
 572   0.0000       2.112367        57.4804 
 573   0.0000       2.112423        57.4820 
 574   0.0000       2.123747        57.7901 
 575   0.0000       2.123748        57.7901 
 576   0.0000       2.126625        57.8684 
 577   0.0000       2.135960        58.1224 
 578   0.0000       2.142976        58.3133 
 579   0.0000       2.143131        58.3176 
 580   0.0000       2.171821        59.0983 
 581   0.0000       2.171989        59.1028 
 582   0.0000       2.197331        59.7924 
 583   0.0000       2.197478        59.7964 
 584   0.0000       2.209041        60.1111 
 585   0.0000       2.213352        60.2284 
 586   0.0000       2.217877        60.3515 
 587   0.0000       2.218039        60.3559 
 588   0.0000       2.230797        60.7031 
 589   0.0000       2.242009        61.0082 
 590   0.0000       2.242150        61.0120 
 591   0.0000       2.249938        61.2239 
 592   0.0000       2.250024        61.2263 
 593   0.0000       2.250505        61.2394 
 594   0.0000       2.263696        61.5983 
 595   0.0000       2.274504        61.8924 
 596   0.0000       2.274601        61.8950 
 597   0.0000       2.292431        62.3802 
 598   0.0000       2.292590        62.3845 
 599   0.0000       2.311214        62.8913 
 600   0.0000       2.312415        62.9240 
 601   0.0000       2.312439        62.9247 
 602   0.0000       2.313802        62.9617 
 603   0.0000       2.323717        63.2316 
 604   0.0000       2.323762        63.2328 
 605   0.0000       2.326791        63.3152 
 606   0.0000       2.340221        63.6806 
 607   0.0000       2.340233        63.6810 
 608   0.0000       2.359333        64.2007 
 609   0.0000       2.359427        64.2033 
 610   0.0000       2.361344        64.2554 
 611   0.0000       2.387049        64.9549 
 612   0.0000       2.393358        65.1266 
 613   0.0000       2.393595        65.1330 
 614   0.0000       2.401820        65.3568 
 615   0.0000       2.417314        65.7785 
 616   0.0000       2.417398        65.7807 
 617   0.0000       2.432798        66.1998 
 618   0.0000       2.432941        66.2037 
 619   0.0000       2.438555        66.3565 
 620   0.0000       2.457354        66.8680 
 621   0.0000       2.457419        66.8698 
 622   0.0000       2.460189        66.9451 
 623   0.0000       2.465093        67.0786 
 624   0.0000       2.465188        67.0812 
 625   0.0000       2.476667        67.3935 
 626   0.0000       2.496813        67.9417 
 627   0.0000       2.496925        67.9448 
 628   0.0000       2.500029        68.0292 
 629   0.0000       2.500334        68.0376 
 630   0.0000       2.500412        68.0397 
[...]
 22 N s       :     3.235622  s :     3.235622
      pz      :     1.489079  p :     4.043431
      px      :     1.198619
      py      :     1.355734
      dz2     :     0.008787  d :     0.075828
      dxz     :     0.019324
      dyz     :     0.013118
      dx2y2   :     0.011506
      dxy     :     0.023093
 23 N s       :     3.249129  s :     3.249129
      pz      :     1.611164  p :     4.031313
      px      :     1.220121
      py      :     1.200029
      dz2     :     0.007955  d :     0.075260
      dxz     :     0.014728
      dyz     :     0.014524
      dx2y2   :     0.023871
      dxy     :     0.014181
 24 H s       :     0.736693  s :     0.736693
 25 H s       :     0.845897  s :     0.845897
 26 H s       :     0.733776  s :     0.733776
 27 H s       :     0.845890  s :     0.845890
 28 H s       :     0.733791  s :     0.733791
 29 H s       :     0.736693  s :     0.736693
 30 H s       :     0.733789  s :     0.733789
 31 H s       :     0.845915  s :     0.845915
 32 C s       :     2.931852  s :     2.931852
      pz      :     1.081914  p :     3.276872
      px      :     1.106738
      py      :     1.088220
      dz2     :     0.011061  d :     0.080478
      dxz     :     0.017948
      dyz     :     0.021802
      dx2y2   :     0.019360
      dxy     :     0.010308
 33 H s       :     0.736689  s :     0.736689
 34 C s       :     2.931834  s :     2.931834
      pz      :     1.083645  p :     3.276873
      px      :     1.118502
      py      :     1.074726
      dz2     :     0.019648  d :     0.080478
      dxz     :     0.016267
      dyz     :     0.014110
      dx2y2   :     0.016803
      dxy     :     0.013651
 35 C s       :     2.931838  s :     2.931838
      pz      :     1.123886  p :     3.276874
      px      :     1.066839
      py      :     1.086149
      dz2     :     0.011646  d :     0.080476
      dxz     :     0.013068
      dyz     :     0.019814
      dx2y2   :     0.021194
      dxy     :     0.014755
 36 H s       :     0.846860  s :     0.846860
 37 C s       :     2.933961  s :     2.933961
      pz      :     1.111216  p :     3.282192
      px      :     1.084394
      py      :     1.086582
      dz2     :     0.008351  d :     0.079131
      dxz     :     0.019870
      dyz     :     0.018209
      dx2y2   :     0.017524
      dxy     :     0.015176
 38 H s       :     0.848449  s :     0.848449
 39 H s       :     0.839091  s :     0.839091
 40 C s       :     2.934145  s :     2.934145
      pz      :     1.086906  p :     3.281921
      px      :     1.074236
      py      :     1.120779
      dz2     :     0.009744  d :     0.079090
      dxz     :     0.021169
      dyz     :     0.018587
      dx2y2   :     0.018510
      dxy     :     0.011080
 41 H s       :     0.844676  s :     0.844676
 42 H s       :     0.844976  s :     0.844976
 43 C s       :     2.932523  s :     2.932523
      pz      :     1.089501  p :     3.276621
      px      :     1.105998
      py      :     1.081122
      dz2     :     0.010258  d :     0.080301
      dxz     :     0.016837
      dyz     :     0.023323
      dx2y2   :     0.019194
      dxy     :     0.010690
 44 H s       :     0.844736  s :     0.844736
 45 H s       :     0.846005  s :     0.846005
 46 H s       :     0.840249  s :     0.840249
 47 H s       :     0.847578  s :     0.847578
 48 H s       :     0.850249  s :     0.850249
 49 H s       :     0.846840  s :     0.846840
 50 C s       :     2.933959  s :     2.933959
      pz      :     1.094062  p :     3.282195
      px      :     1.118211
      py      :     1.069921
      dz2     :     0.018740  d :     0.079134
      dxz     :     0.012449
      dyz     :     0.014093
      dx2y2   :     0.019783
      dxy     :     0.014070
 51 H s       :     0.848436  s :     0.848436
 52 H s       :     0.839076  s :     0.839076
 53 C s       :     2.934144  s :     2.934144
      pz      :     1.065178  p :     3.281910
      px      :     1.109015
      py      :     1.107717
      dz2     :     0.024216  d :     0.079090
      dxz     :     0.015677
      dyz     :     0.011890
      dx2y2   :     0.021930
      dxy     :     0.005377
 54 H s       :     0.844682  s :     0.844682
 55 H s       :     0.844976  s :     0.844976
 56 C s       :     2.932529  s :     2.932529
      pz      :     1.087155  p :     3.276606
      px      :     1.122527
      py      :     1.066924
      dz2     :     0.017920  d :     0.080302
      dxz     :     0.015346
      dyz     :     0.014675
      dx2y2   :     0.019770
      dxy     :     0.012591
 57 H s       :     0.846004  s :     0.846004
 58 H s       :     0.844741  s :     0.844741
 59 H s       :     0.850267  s :     0.850267
 60 H s       :     0.840255  s :     0.840255
 61 H s       :     0.847577  s :     0.847577
 62 H s       :     0.846788  s :     0.846788
 63 C s       :     2.933972  s :     2.933972
      pz      :     1.102924  p :     3.282198
      px      :     1.110336
      py      :     1.068938
      dz2     :     0.018559  d :     0.079128
      dxz     :     0.007434
      dyz     :     0.019386
      dx2y2   :     0.022357
      dxy     :     0.011393
 64 H s       :     0.848440  s :     0.848440
 65 H s       :     0.839068  s :     0.839068
 66 C s       :     2.934162  s :     2.934162
      pz      :     1.108181  p :     3.281901
      px      :     1.073287
      py      :     1.100433
      dz2     :     0.015176  d :     0.079082
      dxz     :     0.016727
      dyz     :     0.014431
      dx2y2   :     0.019267
      dxy     :     0.013482
 67 H s       :     0.844675  s :     0.844675
 68 H s       :     0.844976  s :     0.844976
 69 C s       :     2.932543  s :     2.932543
      pz      :     1.121797  p :     3.276600
      px      :     1.074239
      py      :     1.080564
      dz2     :     0.010766  d :     0.080301
      dxz     :     0.013823
      dyz     :     0.019948
      dx2y2   :     0.021152
      dxy     :     0.014611
 70 H s       :     0.846003  s :     0.846003
 71 H s       :     0.844738  s :     0.844738
 72 H s       :     0.840268  s :     0.840268
 73 H s       :     0.847588  s :     0.847588
 74 H s       :     0.850296  s :     0.850296


                      *****************************
                      * MAYER POPULATION ANALYSIS *
                      *****************************

  NA   - Mulliken gross atomic population
  ZA   - Total nuclear charge
  QA   - Mulliken gross atomic charge
  VA   - Mayer's total valence
  BVA  - Mayer's bonded valence
  FA   - Mayer's free valence

  ATOM       NA         ZA         QA         VA         BVA        FA
  0 C      5.8266     6.0000     0.1734     3.3067     3.3067     0.0000
  1 C      6.4137     6.0000    -0.4137     3.9394     3.9394    -0.0000
  2 C      6.1703     6.0000    -0.1703     3.4772     3.4772    -0.0000
  3 C      5.8251     6.0000     0.1749     3.3040     3.3040     0.0000
  4 H      0.7782     1.0000     0.2218     0.9318     0.9318     0.0000
  5 C      6.1701     6.0000    -0.1701     3.4756     3.4756    -0.0000
  6 C      5.8264     6.0000     0.1736     3.3064     3.3064    -0.0000
  7 H      0.7780     1.0000     0.2220     0.9316     0.9316     0.0000
  8 C      6.1701     6.0000    -0.1701     3.4762     3.4762     0.0000
  9 C      6.4127     6.0000    -0.4127     3.9398     3.9398     0.0000
 10 H      0.7779     1.0000     0.2221     0.9317     0.9317     0.0000
 11 C      6.4144     6.0000    -0.4144     3.9398     3.9398    -0.0000
 12 C      6.2308     6.0000    -0.2308     3.6794     3.6794    -0.0000
 13 C      6.2468     6.0000    -0.2468     3.6746     3.6746    -0.0000
 14 N      7.2502     7.0000    -0.2502     2.8406     2.8406    -0.0000
 15 N      7.2588     7.0000    -0.2588     2.7498     2.7498    -0.0000
 16 C      6.2474     6.0000    -0.2474     3.6740     3.6740    -0.0000
 17 C      6.2307     6.0000    -0.2307     3.6800     3.6800    -0.0000
 18 N      7.2586     7.0000    -0.2586     2.7488     2.7488    -0.0000
 19 N      7.2501     7.0000    -0.2501     2.8409     2.8409    -0.0000
 20 C      6.2474     6.0000    -0.2474     3.6743     3.6743    -0.0000
 21 C      6.2305     6.0000    -0.2305     3.6805     3.6805    -0.0000
 22 N      7.2586     7.0000    -0.2586     2.7497     2.7497    -0.0000
 23 N      7.2503     7.0000    -0.2503     2.8409     2.8409    -0.0000
 24 H      0.6958     1.0000     0.3042     0.8782     0.8782    -0.0000
 25 H      0.8378     1.0000     0.1622     0.9203     0.9203    -0.0000
 26 H      0.7024     1.0000     0.2976     0.8812     0.8812    -0.0000
 27 H      0.8378     1.0000     0.1622     0.9203     0.9203    -0.0000
 28 H      0.7025     1.0000     0.2975     0.8812     0.8812    -0.0000
 29 H      0.6958     1.0000     0.3042     0.8782     0.8782    -0.0000
 30 H      0.7025     1.0000     0.2975     0.8813     0.8813    -0.0000
 31 H      0.8378     1.0000     0.1622     0.9203     0.9203     0.0000
 32 C      6.2609     6.0000    -0.2609     3.7113     3.7113    -0.0000
 33 H      0.6958     1.0000     0.3042     0.8782     0.8782    -0.0000
 34 C      6.2609     6.0000    -0.2609     3.7116     3.7116    -0.0000
 35 C      6.2608     6.0000    -0.2608     3.7111     3.7111    -0.0000
 36 H      0.8589     1.0000     0.1411     0.9704     0.9704    -0.0000
 37 C      6.3003     6.0000    -0.3003     3.7693     3.7693     0.0000
 38 H      0.8681     1.0000     0.1319     0.9681     0.9681    -0.0000
 39 H      0.8184     1.0000     0.1816     0.9449     0.9449    -0.0000
 40 C      6.3050     6.0000    -0.3050     3.7688     3.7688    -0.0000
 41 H      0.8243     1.0000     0.1757     0.9445     0.9445    -0.0000
 42 H      0.8531     1.0000     0.1469     0.9569     0.9569    -0.0000
 43 C      6.2675     6.0000    -0.2675     3.7035     3.7035    -0.0000
 44 H      0.8253     1.0000     0.1747     0.9445     0.9445    -0.0000
 45 H      0.8519     1.0000     0.1481     0.9566     0.9566    -0.0000
 46 H      0.8210     1.0000     0.1790     0.9452     0.9452    -0.0000
 47 H      0.8680     1.0000     0.1320     0.9682     0.9682    -0.0000
 48 H      0.8668     1.0000     0.1332     0.9563     0.9563    -0.0000
 49 H      0.8588     1.0000     0.1412     0.9704     0.9704    -0.0000
 50 C      6.3004     6.0000    -0.3004     3.7695     3.7695     0.0000
 51 H      0.8680     1.0000     0.1320     0.9681     0.9681    -0.0000
 52 H      0.8184     1.0000     0.1816     0.9450     0.9450    -0.0000
 53 C      6.3047     6.0000    -0.3047     3.7687     3.7687    -0.0000
 54 H      0.8243     1.0000     0.1757     0.9445     0.9445    -0.0000
 55 H      0.8531     1.0000     0.1469     0.9569     0.9569    -0.0000
 56 C      6.2675     6.0000    -0.2675     3.7037     3.7037    -0.0000
 57 H      0.8520     1.0000     0.1480     0.9566     0.9566    -0.0000
 58 H      0.8253     1.0000     0.1747     0.9444     0.9444    -0.0000
 59 H      0.8667     1.0000     0.1333     0.9562     0.9562    -0.0000
 60 H      0.8210     1.0000     0.1790     0.9452     0.9452    -0.0000
 61 H      0.8680     1.0000     0.1320     0.9683     0.9683    -0.0000
 62 H      0.8588     1.0000     0.1412     0.9705     0.9705    -0.0000
 63 C      6.3006     6.0000    -0.3006     3.7696     3.7696    -0.0000
 64 H      0.8681     1.0000     0.1319     0.9681     0.9681    -0.0000
 65 H      0.8184     1.0000     0.1816     0.9450     0.9450    -0.0000
 66 C      6.3048     6.0000    -0.3048     3.7686     3.7686    -0.0000
 67 H      0.8243     1.0000     0.1757     0.9445     0.9445     0.0000
 68 H      0.8530     1.0000     0.1470     0.9569     0.9569    -0.0000
 69 C      6.2677     6.0000    -0.2677     3.7038     3.7038    -0.0000
 70 H      0.8520     1.0000     0.1480     0.9566     0.9566    -0.0000
 71 H      0.8253     1.0000     0.1747     0.9445     0.9445     0.0000
 72 H      0.8210     1.0000     0.1790     0.9451     0.9451    -0.0000
 73 H      0.8680     1.0000     0.1320     0.9682     0.9682    -0.0000
 74 H      0.8668     1.0000     0.1332     0.9562     0.9562    -0.0000

  Mayer bond orders larger than 0.100000
B(  0-C ,  1-C ) :   0.7270 B(  0-C ,  2-C ) :   1.3636 B(  0-C ,  8-C ) :   1.2529 
B(  0-C , 15-N ) :  -0.1878 B(  1-C , 14-N ) :   1.0378 B(  1-C , 15-N ) :   1.1993 
B(  1-C , 27-H ) :   0.9916 B(  2-C ,  3-C ) :   1.2531 B(  2-C ,  4-H ) :   0.9080 
B(  3-C ,  5-C ) :   1.3623 B(  3-C , 11-C ) :   0.7266 B(  3-C , 18-N ) :  -0.1879 
B(  5-C ,  6-C ) :   1.2530 B(  5-C ,  7-H ) :   0.9079 B(  6-C ,  8-C ) :   1.3631 
B(  6-C ,  9-C ) :   0.7274 B(  6-C , 22-N ) :  -0.1878 B(  8-C , 10-H ) :   0.9077 
B(  9-C , 22-N ) :   1.1996 B(  9-C , 23-N ) :   1.0377 B(  9-C , 25-H ) :   0.9912 
B( 11-C , 18-N ) :   1.1991 B( 11-C , 19-N ) :   1.0381 B( 11-C , 31-H ) :   0.9915 
B( 12-C , 13-C ) :   0.8862 B( 12-C , 14-N ) :   1.1473 B( 12-C , 15-N ) :  -0.1008 
B( 12-C , 43-C ) :   0.9559 B( 12-C , 48-H ) :   0.9196 B( 13-C , 14-N ) :  -0.1014 
B( 13-C , 15-N ) :   1.0224 B( 13-C , 32-C ) :   0.9588 B( 13-C , 36-H ) :   0.9295 
B( 14-N , 28-H ) :   0.8313 B( 15-N , 33-H ) :   0.8532 B( 16-C , 17-C ) :   0.8863 
B( 16-C , 18-N ) :   1.0217 B( 16-C , 19-N ) :  -0.1014 B( 16-C , 34-C ) :   0.9585 
B( 16-C , 49-H ) :   0.9296 B( 17-C , 18-N ) :  -0.1006 B( 17-C , 19-N ) :   1.1478 
B( 17-C , 56-C ) :   0.9560 B( 17-C , 59-H ) :   0.9196 B( 18-N , 29-H ) :   0.8533 
B( 19-N , 30-H ) :   0.8314 B( 20-C , 21-C ) :   0.8864 B( 20-C , 22-N ) :   1.0214 
B( 20-C , 23-N ) :  -0.1016 B( 20-C , 35-C ) :   0.9585 B( 20-C , 62-H ) :   0.9295 
B( 21-C , 22-N ) :  -0.1004 B( 21-C , 23-N ) :   1.1480 B( 21-C , 69-C ) :   0.9560 
B( 21-C , 74-H ) :   0.9196 B( 22-N , 24-H ) :   0.8533 B( 23-N , 26-H ) :   0.8313 
B( 32-C , 37-C ) :   0.9822 B( 32-C , 38-H ) :   0.9484 B( 32-C , 39-H ) :   0.9409 
B( 34-C , 50-C ) :   0.9822 B( 34-C , 51-H ) :   0.9486 B( 34-C , 52-H ) :   0.9409 
B( 35-C , 63-C ) :   0.9822 B( 35-C , 64-H ) :   0.9485 B( 35-C , 65-H ) :   0.9409 
B( 37-C , 40-C ) :   0.9892 B( 37-C , 41-H ) :   0.9394 B( 37-C , 42-H ) :   0.9469 
B( 40-C , 43-C ) :   0.9869 B( 40-C , 44-H ) :   0.9392 B( 40-C , 45-H ) :   0.9485 
B( 43-C , 46-H ) :   0.9399 B( 43-C , 47-H ) :   0.9459 B( 50-C , 53-C ) :   0.9892 
B( 50-C , 54-H ) :   0.9394 B( 50-C , 55-H ) :   0.9469 B( 53-C , 56-C ) :   0.9870 
B( 53-C , 57-H ) :   0.9485 B( 53-C , 58-H ) :   0.9392 B( 56-C , 60-H ) :   0.9399 
B( 56-C , 61-H ) :   0.9459 B( 63-C , 66-C ) :   0.9892 B( 63-C , 67-H ) :   0.9394 
B( 63-C , 68-H ) :   0.9469 B( 66-C , 69-C ) :   0.9870 B( 66-C , 70-H ) :   0.9485 
B( 66-C , 71-H ) :   0.9392 B( 69-C , 72-H ) :   0.9399 B( 69-C , 73-H ) :   0.9459 


-------
TIMINGS
-------

Total SCF time: 0 days 0 hours 0 min 21 sec 

Total time                  ....      21.342 sec
Sum of individual times     ....      19.745 sec  ( 92.5%)

Fock matrix formation       ....       6.278 sec  ( 29.4%)
  Split-RI-J                ....       1.923 sec  ( 30.6% of F)
  XC integration            ....       3.977 sec  ( 63.3% of F)
    Basis function eval.    ....       0.756 sec  ( 19.0% of XC)
    Density eval.           ....       1.370 sec  ( 34.4% of XC)
    XC-Functional eval.     ....       0.323 sec  (  8.1% of XC)
    XC-Potential eval.      ....       0.448 sec  ( 11.3% of XC)
Diagonalization             ....       0.500 sec  (  2.3%)
Density matrix formation    ....       0.037 sec  (  0.2%)
Population analysis         ....       0.424 sec  (  2.0%)
Initial guess               ....       0.427 sec  (  2.0%)
Orbital Transformation      ....       0.000 sec  (  0.0%)
Orbital Orthonormalization  ....       0.384 sec  (  1.8%)
DIIS solution               ....       0.179 sec  (  0.8%)
SOSCF solution              ....       1.920 sec  (  9.0%)
Grid generation             ....       9.981 sec  ( 46.8%)


-------------------------------------------------------------------------------
                          DFT DISPERSION CORRECTION                            
                                                                               
                              DFTD3 V3.1  Rev 1                                
                          USING Becke-Johnson damping                          
-------------------------------------------------------------------------------
The B97-3c composite method is recognized
Using three-body term ABC
Active option DFTDOPT                   ...         4   

molecular C6(AA) [au] = 46961.366149 


            DFT-D V3
 parameters
 s6 scaling factor         :     1.0000 
 a1 scaling factor         :     0.3700 
 s8 scaling factor         :     1.5000 
 a2 scaling factor         :     4.1000 
 Damping factor alpha9(ATM):    16.0000 
 ad hoc parameters k1-k3   :    16.0000     1.3333    -4.0000 

 Edisp/kcal,au: -133.400671290556  -0.212587478874 
 E6   /kcal   : -69.723712559 
 E8   /kcal   : -64.026085767 
 E6(ABC)      :   0.349127036 
 % E8         :  47.995325022 
 % E6(ABC)    :  -0.261713103 

-------------------------   ----------------
Dispersion correction           -0.212587479
-------------------------   ----------------

------------------   -----------------
SRB correction            -0.214042850
------------------   -----------------

-------------------------   --------------------
FINAL SINGLE POINT ENERGY     -1382.004124509823
-------------------------   --------------------

                                *** OPTIMIZATION RUN DONE ***

                            ***************************************
                            *     ORCA property calculations      *
                            ***************************************

                                    ---------------------
                                    Active property flags
                                    ---------------------
   (+) Dipole Moment


------------------------------------------------------------------------------
                       ORCA ELECTRIC PROPERTIES CALCULATION
------------------------------------------------------------------------------

Dipole Moment Calculation                       ... on
Quadrupole Moment Calculation                   ... off
Polarizability Calculation                      ... off
GBWName                                         ... _o_1_alde1_3_ami3_1_opt_B97-3c.gbw
Electron density file                           ... _o_1_alde1_3_ami3_1_opt_B97-3c.scfp
The origin for moment calculation is the CENTER OF MASS  = (-2.535818,  4.427521 -5.284695)

-------------
DIPOLE MOMENT
-------------
                                X             Y             Z
Electronic contribution:     -1.84451     -16.51660      -4.19454
Nuclear contribution   :      1.93338      17.31407       4.39823
                        -----------------------------------------
Total Dipole Moment    :      0.08887       0.79747       0.20369
                        -----------------------------------------
Magnitude (a.u.)       :      0.82786
Magnitude (Debye)      :      2.10425



--------------------
Rotational spectrum 
--------------------
 
Rotational constants in cm-1:     0.003240     0.003229     0.001886 
Rotational constants in MHz :    97.124757    96.802276    56.525922 

 Dipole components along the rotational axes: 
x,y,z [a.u.] :    -0.002157     0.001085     0.827856 
x,y,z [Debye]:    -0.005482     0.002758     2.104244 

 

Timings for individual modules:

Sum of individual times         ...     1179.381 sec (=  19.656 min)
GTO integral calculation        ...       51.721 sec (=   0.862 min)   4.4 %
SCF iterations                  ...      824.104 sec (=  13.735 min)  69.9 %
SCF Gradient evaluation         ...      263.620 sec (=   4.394 min)  22.4 %
Geometry relaxation             ...       39.937 sec (=   0.666 min)   3.4 %
                             ****ORCA TERMINATED NORMALLY****
TOTAL RUN TIME: 0 days 0 hours 21 minutes 7 seconds 660 msec
