Job execution start: Sat Nov  6 17:22:02 GMT 2021
Shared library path: /work/e05/e05/atarzia/orca_4_2_1_linux_x86-64_openmpi314:/work/e05/e05/atarzia/openmpi-3.1.4/lib:/opt/cray/pe/papi/6.0.0.4/lib64:/opt/cray/libfabric/1.11.0.0.233/lib64
Slurm Job ID is: 621523
Slurm Job name is: o_2_alde1_3_ami1_1_opt_B97-3c
nid002013

                                 *****************
                                 * O   R   C   A *
                                 *****************

           --- An Ab Initio, DFT and Semiempirical electronic structure package ---

                  #######################################################
                  #                        -***-                        #
                  #          Department of theory and spectroscopy      #
                  #               Directorship: Frank Neese             #
                  #        Max Planck Institute fuer Kohlenforschung    #
                  #                Kaiser Wilhelm Platz 1               #
                  #                 D-45470 Muelheim/Ruhr               #
                  #                      Germany                        #
                  #                                                     #
                  #                  All rights reserved                #
                  #                        -***-                        #
                  #######################################################


                         Program Version 4.2.1 -  RELEASE  -


 With contributions from (in alphabetic order):
   Daniel Aravena         : Magnetic Suceptibility
   Michael Atanasov       : Ab Initio Ligand Field Theory (pilot matlab implementation)
   Alexander A. Auer      : GIAO ZORA, VPT2
   Ute Becker             : Parallelization
   Giovanni Bistoni       : ED, misc. LED, open-shell LED, HFLD
   Martin Brehm           : Molecular dynamics
   Dmytro Bykov           : SCF Hessian
   Vijay G. Chilkuri      : MRCI spin determinant printing, contributions to CSF-ICE
   Dipayan Datta          : RHF DLPNO-CCSD density
   Achintya Kumar Dutta   : EOM-CC, STEOM-CC
   Dmitry Ganyushin       : Spin-Orbit,Spin-Spin,Magnetic field MRCI
   Miquel Garcia          : C-PCM Hessian, Gaussian charge scheme
   Yang Guo               : DLPNO-NEVPT2, CIM, IAO-localization
   Andreas Hansen         : Spin unrestricted coupled pair/coupled cluster methods
   Benjamin Helmich-Paris : CASSCF linear response (MC-RPA)
   Lee Huntington         : MR-EOM, pCC
   Robert Izsak           : Overlap fitted RIJCOSX, COSX-SCS-MP3, EOM
   Christian Kollmar      : KDIIS, OOCD, Brueckner-CCSD(T), CCSD density
   Simone Kossmann        : Meta GGA functionals, TD-DFT gradient, OOMP2, MP2 Hessian
   Martin Krupicka        : AUTO-CI
   Lucas Lang             : DCDCAS
   Dagmar Lenk            : GEPOL surface, SMD
   Dimitrios Liakos       : Extrapolation schemes; Compound Job, initial MDCI parallelization
   Dimitrios Manganas     : Further ROCIS development; embedding schemes
   Dimitrios Pantazis     : SARC Basis sets
   Taras Petrenko         : DFT Hessian,TD-DFT gradient, ASA, ECA, R-Raman, ABS, FL, XAS/XES, NRVS
   Peter Pinski           : DLPNO-MP2, DLPNO-MP2 Gradient
   Christoph Reimann      : Effective Core Potentials
   Marius Retegan         : Local ZFS, SOC
   Christoph Riplinger    : Optimizer, TS searches, QM/MM, DLPNO-CCSD(T), (RO)-DLPNO pert. Triples
   Tobias Risthaus        : Range-separated hybrids, TD-DFT gradient, RPA, STAB
   Michael Roemelt        : Original ROCIS implementation
   Masaaki Saitow         : Open-shell DLPNO-CCSD energy and density
   Barbara Sandhoefer     : DKH picture change effects
   Avijit Sen             : IP-ROCIS
   Kantharuban Sivalingam : CASSCF convergence, NEVPT2, FIC-MRCI
   Bernardo de Souza      : ESD, SOC TD-DFT
   Georgi Stoychev        : AutoAux, RI-MP2 NMR
   Willem Van den Heuvel  : Paramagnetic NMR
   Boris Wezisla          : Elementary symmetry handling
   Frank Wennmohs         : Technical directorship


 We gratefully acknowledge several colleagues who have allowed us to
 interface, adapt or use parts of their codes:
   Stefan Grimme, W. Hujo, H. Kruse,             : VdW corrections, initial TS optimization,
                  C. Bannwarth                     DFT functionals, gCP, sTDA/sTD-DF
   Ed Valeev, F. Pavosevic, A. Kumar             : LibInt (2-el integral package), F12 methods
   Garnet Chan, S. Sharma, J. Yang, R. Olivares  : DMRG
   Ulf Ekstrom                                   : XCFun DFT Library
   Mihaly Kallay                                 : mrcc  (arbitrary order and MRCC methods)
   Andreas Klamt, Michael Diedenhofen            : otool_cosmo (COSMO solvation model)
   Jiri Pittner, Ondrej Demel                    : Mk-CCSD
   Frank Weinhold                                : gennbo (NPA and NBO analysis)
   Christopher J. Cramer and Donald G. Truhlar   : smd solvation model
   Lars Goerigk                                  : TD-DFT with DH, B97 family of functionals
   V. Asgeirsson, H. Jonsson                     : NEB implementation
   FAccTs GmbH                                   : IRC, NEB, NEB-TS, Multilevel, MM, QM/MM, CI optimization
   S Lehtola, MJT Oliveira, MAL Marques          : LibXC Library


 Your calculation uses the libint2 library for the computation of 2-el integrals
 For citations please refer to: http://libint.valeyev.net

 Your ORCA version has been built with support for libXC version: 4.2.3
 For citations please refer to: https://tddft.org/programs/libxc/

 This ORCA versions uses:
   CBLAS   interface :  Fast vector & matrix operations
   LAPACKE interface :  Fast linear algebra routines
   SCALAPACK package :  Parallel linear algebra routines




***************************************
The coordinates will be read from file: o_2_alde1_3_ami1_1_opt.xyz
***************************************


Your calculation utilizes the atom-pairwise dispersion correction
with the Becke-Johnson damping scheme (D3BJ)
Cite in your paper:
S.Grimme, S.Ehrlich, L.Goerigk, J Comput Chem, (2011), 32, 1456–1465 
S.Grimme, J.Antony, S.Ehrlich and H.Krieg, J.Chem.Phys., 132, (2010), 154104 
   

Your calculation employs the composite approach B97-3c by Grimme and coworkers.
For the correct reference, please check the publication list of the Grimme group:
http://www.thch.uni-bonn.de/tc/index.php?section=publikationen&subsection=grimme#2017
   

XCFun DFT library Copyright 2009-2010 Ulf Ekstrom and contributors.
See http://admol.org/xcfun for more information. This is free soft-
ware; see the source code for copying conditions. There is ABSOLUTELY
NO WARRANTY; not even for MERCHANTABILITY or FITNESS FOR A PARTICULAR
PURPOSE. For details see the documentation. Scientific users of this 
library should cite U. Ekstrom, L. Visscher, R. Bast, A. J. Thorvald-
sen and K. Ruud; J.Chem.Theor.Comp. 2010, DOI: 10.1021/ct100117s
XCFun Version 0.99 
----- Orbital basis set information -----
Your calculation utilizes the basis: def2-mTZVP
----- AuxJ basis set information -----
Your calculation utilizes the basis: def2-mTZVP/J
================================================================================
                                        WARNINGS
                       Please study these warnings very carefully!
================================================================================


WARNING: Geometry Optimization
  ===> : Switching off AutoStart
         For restart on a previous wavefunction, please use MOREAD

INFO   : the flag for use of LIBINT has been found!

================================================================================
                                       INPUT FILE
================================================================================
NAME = o_2_alde1_3_ami1_1_opt_B97-3c.in
|  1> ! DFT COPT B97-3c TightSCF printbasis  Grid6 NOFINALGRID SlowConv 
|  2> 
|  3> %base "_o_2_alde1_3_ami1_1_opt_B97-3c"
|  4> %maxcore 3000
|  5> %scf
|  6>    MaxIter 2000
|  7> end
|  8> %pal
|  9>    nprocs 32
| 10> end
| 11> 
| 12> * xyzfile 0 1 o_2_alde1_3_ami1_1_opt.xyz
| 13> # * xyzfile 0 1 _o_2_alde1_3_ami1_1_opt_B97-3c.xyz
| 14> 
| 15>                          ****END OF INPUT****
================================================================================

                       *****************************
                       * Geometry Optimization Run *
                       *****************************

Geometry optimization settings:
Update method            Update   .... BFGS
Choice of coordinates    CoordSys .... Cartesian
Initial Hessian          InHess   .... Unit Matrix

Convergence Tolerances:
Energy Change            TolE     ....  5.0000e-06 Eh
Max. Gradient            TolMAXG  ....  3.0000e-04 Eh/bohr
RMS Gradient             TolRMSG  ....  1.0000e-04 Eh/bohr
Max. Displacement        TolMAXD  ....  4.0000e-03 bohr
RMS Displacement         TolRMSD  ....  2.0000e-03 bohr
Strict Convergence                ....  False
------------------------------------------------------------------------------
                        ORCA OPTIMIZATION COORDINATE SETUP
------------------------------------------------------------------------------

The optimization will be done in cartesian displacement coordinates
Initial hessian                         ....done
Number of atoms                         .... 111
Number of degrees of freedom            .... 333

         *************************************************************
         *                GEOMETRY OPTIMIZATION CYCLE   1            *
         *************************************************************
---------------------------------
CARTESIAN COORDINATES (ANGSTROEM)
---------------------------------
  C     -5.808500   -2.271900    0.022100
  C     -4.703100   -2.593800    0.919400
  C     -7.013200   -2.963000    0.090300
  C     -8.056200   -2.650400   -0.782000
  H     -7.165600   -3.753500    0.811400
  C     -7.892200   -1.637800   -1.725400
  C     -6.693800   -0.933800   -1.797100
  H     -8.704300   -1.399000   -2.399000
  C     -5.659100   -1.258200   -0.922200
  C     -6.506200    0.136700   -2.771400
  H     -4.728400   -0.716200   -0.977300
  C     -9.319900   -3.390900   -0.699500
  H     -7.331400    0.296600   -3.486800
  H     -4.904800   -3.360300    1.686300
  C     -0.235700    1.318300   -0.104600
  C     -0.544800    0.477500    1.045200
  C     -1.140600    1.399400   -1.157500
  C     -0.867400    2.194900   -2.264900
  H     -2.061300    0.841200   -1.114100
  C      0.324200    2.916400   -2.311100
  C      1.230400    2.847800   -1.262700
  H      0.556600    3.545700   -3.157900
  C      0.951600    2.046500   -0.165400
  C      2.531300    3.602900   -1.338200
  H      1.663100    1.990400    0.646700
  C     -1.830800    2.264400   -3.356500
  H     -1.592100    2.962800   -4.177300
  C     -2.020700   -0.927700    2.225600
  C     -2.479300   -2.285000    1.627200
  N     -1.663700   -0.091100    1.131300
  H     -1.181100   -1.108000    2.923000
  C     -3.156200   -0.232000    3.011900
  N     -3.595100   -2.014300    0.787500
  H     -2.720000   -2.981200    2.451900
  C     -1.375600   -2.930400    0.756900
  H     -3.968600   -0.040400    2.304900
  C     -3.670100   -1.097300    4.159700
  C     -0.095900   -3.178900    1.551000
  C     -1.880400   -4.250200    0.175100
  O     -9.560700   -4.278900    0.078400
  C     -5.211000    1.879100   -3.681500
  C     -3.847900    1.582900   -4.363700
  N     -5.453100    0.823000   -2.760400
  H     -5.994400    1.961200   -4.458100
  C     -5.179200    3.205700   -2.886900
  N     -2.866700    1.550900   -3.333600
  H     -3.650600    2.361700   -5.124400
  C     -3.845700    0.208200   -5.071700
  H     -4.416100    3.097800   -2.110700
  C     -4.836900    4.396100   -3.778800
  H     -4.020800   -0.550700   -4.303600
  C     -4.930700    0.113800   -6.141300
  C      3.766900    5.072400   -2.708500
  C      4.562600    3.764100   -2.426800
  N      2.432200    4.782600   -2.196800
  H      3.674900    5.213300   -3.795800
  C      4.430000    6.339400   -2.128200
  C      5.343400    3.215300   -3.623900
  H      5.483500    6.315000   -2.425700
  C      3.793300    7.591800   -2.731000
  H      4.627900    3.014800   -4.431200
  C      6.384600    4.210100   -4.131400
  H      0.245100    0.383300    1.810500
  H    -10.078200   -3.061500   -1.439100
  C     -2.660200    1.104400    3.562700
  H     -1.168000   -2.239200   -0.064900
  C     -6.532400    3.441600   -2.217200
  C     -2.478900   -0.043700   -5.706800
  C      4.370300    6.406000   -0.602600
  C      6.029500    1.905400   -3.237500
  H     -1.114500   -4.699900   -0.452500
  H     -2.768500   -4.089800   -0.430900
  H     -2.124400   -4.950200    0.972900
  H     -2.847000   -1.415100    4.797600
  H     -4.189500   -1.978900    3.795400
  H     -4.370000   -0.525600    4.765300
  H     -1.832400    0.948100    4.252900
  H     -3.461100    1.610000    4.097200
  H     -2.324100    1.751400    2.756400
  H     -0.309900   -3.746400    2.455200
  H      0.388800   -2.247600    1.829100
  H      0.605000   -3.750800    0.946800
  H      2.731700    7.638500   -2.495600
  H      3.900600    7.593600   -3.813600
  H      4.269900    8.487100   -2.337700
  H      7.083300    4.464800   -3.337100
  H      5.920000    5.123800   -4.492500
  H      6.947700    3.769000   -4.951000
  H      4.815900    5.523000   -0.150400
  H      3.343500    6.492100   -0.250900
  H      4.916600    7.278600   -0.250700
  H      5.310500    1.201300   -2.829300
  H      6.789800    2.091700   -2.482300
  H      6.508400    1.458000   -4.105600
  H     -4.953300    5.320400   -3.217000
  H     -5.502100    4.433700   -4.640000
  H     -3.810800    4.348800   -4.131600
  H     -4.813900   -0.811300   -6.701700
  H     -4.855000    0.947000   -6.837900
  H     -5.925200    0.114000   -5.704200
  H     -2.462500   -1.019500   -6.186700
  H     -1.695400   -0.018700   -4.953700
  H     -2.263600    0.712900   -6.460000
  H     -7.319400    3.522800   -2.965700
  H     -6.510000    4.364700   -1.642800
  H     -6.776100    2.625000   -1.542300
  H      2.008600    5.571700   -1.726900
  N      3.572200    2.798900   -1.953500
  H      5.263200    3.936000   -1.600100
  H      2.871200    3.850700   -0.314400
  H      3.167400    2.320200   -2.755400

----------------------------
CARTESIAN COORDINATES (A.U.)
----------------------------
  NO LB      ZA    FRAG     MASS         X           Y           Z
   0 C     6.0000    0    12.011  -10.976474   -4.293269    0.041763
   1 C     6.0000    0    12.011   -8.887571   -4.901572    1.737414
   2 C     6.0000    0    12.011  -13.253027   -5.599259    0.170642
   3 C     6.0000    0    12.011  -15.224012   -5.008530   -1.477766
   4 H     1.0000    0     1.008  -13.541022   -7.093087    1.533324
   5 C     6.0000    0    12.011  -14.914097   -3.094993   -3.260533
   6 C     6.0000    0    12.011  -12.649449   -1.764626   -3.396027
   7 H     1.0000    0     1.008  -16.448743   -2.643727   -4.533453
   8 C     6.0000    0    12.011  -10.694149   -2.377653   -1.742705
   9 C     6.0000    0    12.011  -12.294936    0.258326   -5.237187
  10 H     1.0000    0     1.008   -8.935381   -1.353422   -1.846829
  11 C     6.0000    0    12.011  -17.612059   -6.407872   -1.321863
  12 H     1.0000    0     1.008  -13.854338    0.560493   -6.589097
  13 H     1.0000    0     1.008   -9.268729   -6.350047    3.186645
  14 C     6.0000    0    12.011   -0.445408    2.491226   -0.197665
  15 C     6.0000    0    12.011   -1.029523    0.902344    1.975142
  16 C     6.0000    0    12.011   -2.155422    2.644483   -2.187358
  17 C     6.0000    0    12.011   -1.639148    4.147760   -4.280041
  18 H     1.0000    0     1.008   -3.895292    1.589638   -2.105344
  19 C     6.0000    0    12.011    0.612649    5.511197   -4.367346
  20 C     6.0000    0    12.011    2.325119    5.381562   -2.386157
  21 H     1.0000    0     1.008    1.051822    6.700402   -5.967566
  22 C     6.0000    0    12.011    1.798263    3.867325   -0.312561
  23 C     6.0000    0    12.011    4.783464    6.808494   -2.528832
  24 H     1.0000    0     1.008    3.142804    3.761311    1.222086
  25 C     6.0000    0    12.011   -3.459711    4.279096   -6.342866
  26 H     1.0000    0     1.008   -3.008633    5.598881   -7.893953
  27 C     6.0000    0    12.011   -3.818570   -1.753099    4.205774
  28 C     6.0000    0    12.011   -4.685198   -4.318024    3.074962
  29 N     7.0000    0    14.007   -3.143937   -0.172154    2.137847
  30 H     1.0000    0     1.008   -2.231956   -2.093817    5.523669
  31 C     6.0000    0    12.011   -5.964354   -0.438416    5.691666
  32 N     7.0000    0    14.007   -6.793754   -3.806475    1.488159
  33 H     1.0000    0     1.008   -5.140055   -5.633652    4.633420
  34 C     6.0000    0    12.011   -2.599507   -5.537653    1.430334
  35 H     1.0000    0     1.008   -7.499567   -0.076345    4.355630
  36 C     6.0000    0    12.011   -6.935484   -2.073596    7.860694
  37 C     6.0000    0    12.011   -0.181225   -6.007250    2.930965
  38 C     6.0000    0    12.011   -3.553441   -8.031714    0.330891
  39 O     8.0000    0    15.999  -18.067105   -8.085949    0.148155
  40 C     6.0000    0    12.011   -9.847363    3.550984   -6.957027
  41 C     6.0000    0    12.011   -7.271477    2.991247   -8.246198
  42 N     7.0000    0    14.007  -10.304866    1.555245   -5.216400
  43 H     1.0000    0     1.008  -11.327774    3.706131   -8.424588
  44 C     6.0000    0    12.011   -9.787270    6.057895   -5.455450
  45 N     7.0000    0    14.007   -5.417278    2.930776   -6.299591
  46 H     1.0000    0     1.008   -6.898634    4.462966   -9.683713
  47 C     6.0000    0    12.011   -7.267320    0.393441   -9.584124
  48 H     1.0000    0     1.008   -8.345220    5.853994   -3.988645
  49 C     6.0000    0    12.011   -9.140416    8.307425   -7.140897
  50 H     1.0000    0     1.008   -7.598211   -1.040672   -8.132625
  51 C     6.0000    0    12.011   -9.317673    0.215051  -11.605375
  52 C     6.0000    0    12.011    7.118409    9.585447   -5.118323
  53 C     6.0000    0    12.011    8.622064    7.113118   -4.585987
  54 N     7.0000    0    14.007    4.596192    9.037804   -4.151350
  55 H     1.0000    0     1.008    6.944555    9.851709   -7.173022
  56 C     6.0000    0    12.011    8.371487   11.979730   -4.021715
  57 C     6.0000    0    12.011   10.097563    6.076036   -6.848179
  58 H     1.0000    0     1.008   10.362313   11.933621   -4.583909
  59 C     6.0000    0    12.011    7.168298   14.346423   -5.160842
  60 H     1.0000    0     1.008    8.745464    5.697146   -8.373754
  61 C     6.0000    0    12.011   12.065145    7.955936   -7.807215
  62 H     1.0000    0     1.008    0.463172    0.724332    3.421349
  63 H     1.0000    0     1.008  -19.045038   -5.785397   -2.719505
  64 C     6.0000    0    12.011   -5.027049    2.087014    6.732527
  65 H     1.0000    0     1.008   -2.207200   -4.231475   -0.122643
  66 C     6.0000    0    12.011  -12.344447    6.503681   -4.189901
  67 C     6.0000    0    12.011   -4.684442   -0.082581  -10.784289
  68 C     6.0000    0    12.011    8.258670   12.105586   -1.138749
  69 C     6.0000    0    12.011   11.394104    3.600684   -6.117988
  70 H     1.0000    0     1.008   -2.106100   -8.881524   -0.855101
  71 H     1.0000    0     1.008   -5.231707   -7.728602   -0.814283
  72 H     1.0000    0     1.008   -4.014534   -9.354522    1.838515
  73 H     1.0000    0     1.008   -5.380050   -2.674151    9.066150
  74 H     1.0000    0     1.008   -7.917008   -3.739579    7.172267
  75 H     1.0000    0     1.008   -8.258103   -0.993240    9.005112
  76 H     1.0000    0     1.008   -3.462734    1.791649    8.036816
  77 H     1.0000    0     1.008   -6.540531    3.042459    7.742586
  78 H     1.0000    0     1.008   -4.391913    3.309666    5.208841
  79 H     1.0000    0     1.008   -0.585626   -7.079670    4.639656
  80 H     1.0000    0     1.008    0.734726   -4.247348    3.456498
  81 H     1.0000    0     1.008    1.143284   -7.087985    1.789193
  82 H     1.0000    0     1.008    5.162165   14.434673   -4.716001
  83 H     1.0000    0     1.008    7.371066   14.349824   -7.206660
  84 H     1.0000    0     1.008    8.068942   16.038295   -4.417613
  85 H     1.0000    0     1.008   13.385497    8.437249   -6.306205
  86 H     1.0000    0     1.008   11.187179    9.682579   -8.489595
  87 H     1.0000    0     1.008   13.129250    7.122378   -9.356034
  88 H     1.0000    0     1.008    9.100732   10.436957   -0.284215
  89 H     1.0000    0     1.008    6.318299   12.268291   -0.474132
  90 H     1.0000    0     1.008    9.291028   13.754561   -0.473754
  91 H     1.0000    0     1.008   10.035391    2.270128   -5.346602
  92 H     1.0000    0     1.008   12.830863    3.952740   -4.690867
  93 H     1.0000    0     1.008   12.299094    2.755221   -7.758460
  94 H     1.0000    0     1.008   -9.360380   10.054099   -6.079249
  95 H     1.0000    0     1.008  -10.397462    8.378479   -8.768329
  96 H     1.0000    0     1.008   -7.201368    8.218041   -7.807592
  97 H     1.0000    0     1.008   -9.096953   -1.533135  -12.664378
  98 H     1.0000    0     1.008   -9.174620    1.789571  -12.921758
  99 H     1.0000    0     1.008  -11.197005    0.215429  -10.779376
 100 H     1.0000    0     1.008   -4.653451   -1.926576  -11.691169
 101 H     1.0000    0     1.008   -3.203842   -0.035338   -9.361136
 102 H     1.0000    0     1.008   -4.277584    1.347186  -12.207631
 103 H     1.0000    0     1.008  -13.831661    6.657127   -5.604361
 104 H     1.0000    0     1.008  -12.302117    8.248088   -3.104442
 105 H     1.0000    0     1.008  -12.804973    4.960531   -2.914525
 106 H     1.0000    0     1.008    3.795704   10.528987   -3.263368
 107 N     7.0000    0    14.007    6.750480    5.289154   -3.691580
 108 H     1.0000    0     1.008    9.946007    7.437962   -3.023751
 109 H     1.0000    0     1.008    5.425782    7.276768   -0.594130
 110 H     1.0000    0     1.008    5.985519    4.384543   -5.206951

--------------------------------
INTERNAL COORDINATES (ANGSTROEM)
--------------------------------
 C      0   0   0     0.000000000000     0.00000000     0.00000000
 C      1   0   0     1.459683547897     0.00000000     0.00000000
 C      1   2   0     1.390529589761   121.08647151     0.00000000
 C      3   1   2     1.395161298919   120.37470791   180.52816916
 H      3   1   2     1.080787314877   121.22515408     0.26998853
 C      4   3   1     1.393649281563   119.87186521   359.84517335
 C      6   4   3     1.391732535367   120.24782167   359.74832922
 H      6   4   3     1.081789632969   119.57441247   180.03647233
 C      7   6   4     1.393301639990   119.29706788     0.40359484
 C      7   6   4     1.459597375991   121.06835900   180.46195110
 H      9   7   6     1.078425936261   119.45888396   179.83152763
 C      4   3   1     1.466998360599   119.71737629   179.85427900
 H     10   7   6     1.103775434588   116.28262387   355.46772716
 H      2   1   3     1.102878393115   116.24589557   356.07946296
 C     11   9   7     5.008507644998   165.78701328   162.81275681
 C     15  11   9     1.457575895108    73.31590847     2.70989826
 C     15  11   9     1.390690342959    46.21892881   181.94645022
 C     17  15  11     1.390608949346   120.56005868   179.16273065
 H     17  15  11     1.077571013901   119.68667464   359.19009150
 C     18  17  15     1.393774461669   119.37261881   359.85210831
 C     20  18  17     1.387460615657   120.51429257   359.80853490
 H     20  18  17     1.080323326602   120.75983500   180.34869817
 C     21  20  18     1.387039444284   119.67389482     0.49787678
 C     21  20  18     1.506060115002   120.09889511   178.40292052
 H     23  21  20     1.081150253203   119.46781211   179.59539507
 C     18  17  15     1.457587174065   119.59144248   180.00184890
 H     26  18  17     1.103835535757   116.36703498   176.05789153
 C     16  15  11     2.355039704549   150.74809159   355.62284959
 C     28  16  15     1.552629965575   120.90014743    63.79238027
 N     16  15  11     1.258036716475   120.21985102   355.33003678
 H     28  16  15     1.106256303937    86.42180645   173.77170602
 C     28  16  15     1.546488418967   116.52398546   282.19212898
 N      2   1   3     1.257331245138   120.08061541   175.61574104
 H     29  28  16     1.105785250399   109.10157040   152.29235332
 C     29  28  16     1.546646999157   111.77020353    32.67829532
 H     32  28  16     1.093870796758   107.18671109    83.62011075
 C     32  28  16     1.526526167480   111.99227764   203.84296396
 C     35  29  28     1.526426922588   111.92918697    58.95136721
 C     35  29  28     1.528131643544   109.81008296   180.83429072
 O     12   4   3     1.204847313978   125.48574615     0.07086653
 C     10   7   6     2.354099150418   150.64780477   175.00952005
 C     41  10   7     1.552795186108   120.77299065    64.73289240
 N     10   7   6     1.257039498186   120.14949072   175.04822412
 H     41  10   7     1.106148059710    86.37090713   174.85768704
 C     41  10   7     1.546695820128   116.58530916   283.36255462
 N     26  18  17     1.258052252492   120.23623203   355.92323343
 H     42  41  10     1.106400117498   108.92518302   152.20446187
 C     42  41  10     1.546308161396   111.83833186    32.77936657
 H     45  41  10     1.093823779226   107.11537188    83.60303937
 C     45  41  10     1.526337793544   111.92155110   203.73025644
 H     48  42  41     1.093876972059   107.16022804   298.73749470
 C     48  42  41     1.526492882394   112.01124302    58.96123151
 C     24  21  20     2.358783521224   142.55581487     1.61420043
 C     53  24  21     1.556965725377    68.84499143   238.34154360
 N     53  24  21     1.458507805944    36.19971811    41.96899612
 H     53  24  21     1.100244563722   127.59532353   336.82172196
 C     53  24  21     1.543288275080   121.20428526   132.68557481
 C     54  53  24     1.530973053323   114.85874650   140.16529758
 H     57  53  24     1.094972081836   107.03387170   127.35260443
 C     57  53  24     1.528810154990   110.20246905   244.75560629
 H     58  54  53     1.097211825492   107.95351013   300.83400463
 C     58  54  53     1.526853211674   111.97043242    60.34042762
 H     16  15  11     1.103856757012   116.38366969   175.60613070
 H     12   4   3     1.109293202900   113.67015781   180.05333630
 C     32  28  16     1.528188993548   109.77606911   325.71032719
 H     35  29  28     1.093714057695   107.12993418   298.84676462
 C     45  41  10     1.528167903079   109.83638686   325.61604566
 C     48  42  41     1.528053618169   109.76290712   180.86230772
 C     57  53  24     1.528219555561   113.22631145     8.40200281
 C     58  54  53     1.528357346958   109.78481592   182.38133042
 H     39  35  29     1.087526854841   110.13314758   178.98546424
 H     39  35  29     1.087053710725   110.77409607    59.14920043
 H     39  35  29     1.089045839256   110.50199006   298.65490826
 H     37  32  28     1.088763913803   110.57837192    53.18906060
 H     37  32  28     1.086144285995   111.64698259   291.98893234
 H     37  32  28     1.087865920047   109.71081433   172.55297277
 H     65  32  28     1.089063161621   110.46411311   298.35573011
 H     65  32  28     1.087548812698   110.16184913   178.67325902
 H     65  32  28     1.087056530269   110.70162651    58.80015669
 H     38  35  29     1.088774489966   110.61677078    53.07844964
 H     38  35  29     1.086090875572   111.57735539   291.82990464
 H     38  35  29     1.087836412334   109.68226390   172.46720029
 H     60  57  53     1.088388078766   110.86014231    60.97379143
 H     60  57  53     1.087905919646   110.64947360   300.99463022
 H     60  57  53     1.087839390719   110.43790503   181.00042862
 H     62  58  54     1.088102141345   110.35021831    58.26706730
 H     62  58  54     1.086781514381   111.51148775   297.38008484
 H     62  58  54     1.087839592955   109.82956950   177.48158367
 H     69  57  53     1.087535378735   111.32757840    56.08685148
 H     69  57  53     1.088771941226   111.26970907   294.99795844
 H     69  57  53     1.087983483331   109.76878835   175.76082434
 H     70  58  54     1.085976542104   110.70146443    53.88442260
 H     70  58  54     1.087699783948   110.03097819   294.29607301
 H     70  58  54     1.087708407617   110.38970612   174.60819931
 H     50  45  41     1.087887259784   109.68653094   172.53119892
 H     50  45  41     1.088838941258   110.61572913    53.15029529
 H     50  45  41     1.086087629982   111.57535214   291.92291327
 H     52  48  42     1.087888050307   109.70758258   172.64047601
 H     52  48  42     1.088670882315   110.58480070    53.26582672
 H     52  48  42     1.086317955297   111.63889395   292.07716416
 H     68  48  42     1.087547061051   110.16977004   178.66546778
 H     68  48  42     1.087040413232   110.66884343    58.81219617
 H     68  48  42     1.089085804700   110.47181672   298.37012620
 H     67  45  41     1.089134835546   110.49906482   298.67648048
 H     67  45  41     1.087451483975   110.13769903   179.01750811
 H     67  45  41     1.087067274827   110.77078861    59.20467158
 H     55  53  24     1.011395956092   113.03235906   125.09495060
 N     24  21  20     1.452061603376   111.27385942   270.46717757
 H     54  53  24     1.097188616419   109.32982678   262.56800014
 H     24  21  20     1.106843841741   109.33766401   152.23655918
 H    108  24  21     1.017870492745   108.00803562    42.63335072

---------------------------
INTERNAL COORDINATES (A.U.)
---------------------------
 C      0   0   0     0.000000000000     0.00000000     0.00000000
 C      1   0   0     2.758402147715     0.00000000     0.00000000
 C      1   2   0     2.627720105762   121.08647151     0.00000000
 C      3   1   2     2.636472767602   120.37470791   180.52816916
 H      3   1   2     2.042392034134   121.22515408     0.26998853
 C      4   3   1     2.633615468889   119.87186521   359.84517335
 C      6   4   3     2.629993343512   120.24782167   359.74832922
 H      6   4   3     2.044286140827   119.57441247   180.03647233
 C      7   6   4     2.632958521525   119.29706788     0.40359484
 C      7   6   4     2.758239306413   121.06835900   180.46195110
 H      9   7   6     2.037929675251   119.45888396   179.83152763
 C      4   3   1     2.772225140443   119.71737629   179.85427900
 H     10   7   6     2.085833284721   116.28262387   355.46772716
 H      2   1   3     2.084138122007   116.24589557   356.07946296
 C     11   9   7     9.464707788696   165.78701328   162.81275681
 C     15  11   9     2.754419261159    73.31590847     2.70989826
 C     15  11   9     2.628023885282    46.21892881   181.94645022
 C     17  15  11     2.627870073643   120.56005868   179.16273065
 H     17  15  11     2.036314106125   119.68667464   359.19009150
 C     18  17  15     2.633852025007   119.37261881   359.85210831
 C     20  18  17     2.621920585194   120.51429257   359.80853490
 H     20  18  17     2.041515223364   120.75983500   180.34869817
 C     21  20  18     2.621124686643   119.67389482     0.49787678
 C     21  20  18     2.846041158576   120.09889511   178.40292052
 H     23  21  20     2.043077888172   119.46781211   179.59539507
 C     18  17  15     2.754440575300   119.59144248   180.00184890
 H     26  18  17     2.085946859471   116.36703498   176.05789153
 C     16  15  11     4.450380076108   150.74809159   355.62284959
 C     28  16  15     2.934045422255   120.90014743    63.79238027
 N     16  15  11     2.377344860556   120.21985102   355.33003678
 H     28  16  15     2.090521448365    86.42180645   173.77170602
 C     28  16  15     2.922439581129   116.52398546   282.19212898
 N      2   1   3     2.376011712933   120.08061541   175.61574104
 H     29  28  16     2.089631286184   109.10157040   152.29235332
 C     29  28  16     2.922739254257   111.77020353    32.67829532
 H     32  28  16     2.067116231767   107.18671109    83.62011075
 C     32  28  16     2.884716392801   111.99227764   203.84296396
 C     35  29  28     2.884528847135   111.92918697    58.95136721
 C     35  29  28     2.887750302877   109.81008296   180.83429072
 O     12   4   3     2.276831456609   125.48574615     0.07086653
 C     10   7   6     4.448602686387   150.64780477   175.00952005
 C     41  10   7     2.934357643815   120.77299065    64.73289240
 N     10   7   6     2.375460391094   120.14949072   175.04822412
 H     41  10   7     2.090316896420    86.37090713   174.85768704
 C     41  10   7     2.922831512522   116.58530916   283.36255462
 N     26  18  17     2.377374219372   120.23623203   355.92323343
 H     42  41  10     2.090793216610   108.92518302   152.20446187
 C     42  41  10     2.922098943686   111.83833186    32.77936657
 H     45  41  10     2.067027381508   107.11537188    83.60303937
 C     45  41  10     2.884360417651   111.92155110   203.73025644
 H     48  42  41     2.067127901394   107.16022804   298.73749470
 C     48  42  41     2.884653493105   112.01124302    58.96123151
 C     24  21  20     4.457454864321   142.55581487     1.61420043
 C     53  24  21     2.942238820865    68.84499143   238.34154360
 N     53  24  21     2.756180317421    36.19971811    41.96899612
 H     53  24  21     2.079160905770   127.59532353   336.82172196
 C     53  24  21     2.916392185593   121.20428526   132.68557481
 C     54  53  24     2.893119789193   114.85874650   140.16529758
 H     57  53  24     2.069197358959   107.03387170   127.35260443
 C     57  53  24     2.889032503688   110.20246905   244.75560629
 H     58  54  53     2.073429861080   107.95351013   300.83400463
 C     58  54  53     2.885334416762   111.97043242    60.34042762
 H     16  15  11     2.085986961830   116.38366969   175.60613070
 H     12   4   3     2.096260355701   113.67015781   180.05333630
 C     32  28  16     2.887858678678   109.77606911   325.71032719
 H     35  29  28     2.066820037864   107.12993418   298.84676462
 C     45  41  10     2.887818823467   109.83638686   325.61604566
 C     48  42  41     2.887602856287   109.76290712   180.86230772
 C     57  53  24     2.887916432514   113.22631145     8.40200281
 C     58  54  53     2.888176820517   109.78481592   182.38133042
 H     39  35  29     2.055127918934   110.13314758   178.98546424
 H     39  35  29     2.054233806132   110.77409607    59.14920043
 H     39  35  29     2.057998383480   110.50199006   298.65490826
 H     37  32  28     2.057465621584   110.57837192    53.18906060
 H     37  32  28     2.052515242454   111.64698259   291.98893234
 H     37  32  28     2.055768659315   109.71081433   172.55297277
 H     65  32  28     2.058031118006   110.46411311   298.35573011
 H     65  32  28     2.055169413270   110.16184913   178.67325902
 H     65  32  28     2.054239134299   110.70162651    58.80015669
 H     38  35  29     2.057485607635   110.61677078    53.07844964
 H     38  35  29     2.052414311381   111.57735539   291.82990464
 H     38  35  29     2.055712897819   109.68226390   172.46720029
 H     60  57  53     2.056755396293   110.86014231    60.97379143
 H     60  57  53     2.055844247602   110.64947360   300.99463022
 H     60  57  53     2.055718526151   110.43790503   181.00042862
 H     62  58  54     2.056215052876   110.35021831    58.26706730
 H     62  58  54     2.053719429588   111.51148775   297.38008484
 H     62  58  54     2.055718908321   109.82956950   177.48158367
 H     69  57  53     2.055144026759   111.32757840    56.08685148
 H     69  57  53     2.057480791214   111.26970907   294.99795844
 H     69  57  53     2.055990821724   109.76878835   175.76082434
 H     70  58  54     2.052198252439   110.70146443    53.88442260
 H     70  58  54     2.055454707587   110.03097819   294.29607301
 H     70  58  54     2.055471003959   110.38970612   174.60819931
 H     50  45  41     2.055808985574   109.68653094   172.53119892
 H     50  45  41     2.057607402927   110.61572913    53.15029529
 H     50  45  41     2.052408178106   111.57535214   291.92291327
 H     52  48  42     2.055810479445   109.70758258   172.64047601
 H     52  48  42     2.057289817549   110.58480070    53.26582672
 H     52  48  42     2.052843429872   111.63889395   292.07716416
 H     68  48  42     2.055166103137   110.16977004   178.66546778
 H     68  48  42     2.054208677513   110.66884343    58.81219617
 H     68  48  42     2.058073907225   110.47181672   298.37012620
 H     67  45  41     2.058166562095   110.49906482   298.67648048
 H     67  45  41     2.054985488639   110.13769903   179.01750811
 H     67  45  41     2.054259438571   110.77078861    59.20467158
 H     55  53  24     1.911261369970   113.03235906   125.09495060
 N     24  21  20     2.743998759964   111.27385942   270.46717757
 H     54  53  24     2.073386002288   109.32982678   262.56800014
 H     24  21  20     2.091631733908   109.33766401   152.23655918
 H    108  24  21     1.923496471087   108.00803562    42.63335072

---------------------
BASIS SET INFORMATION
---------------------
There are 4 groups of distinct atoms

 Group   1 Type C   : 11s6p1d contracted to 5s3p1d pattern {62111/411/1}
 Group   2 Type H   : 5s contracted to 3s pattern {311}
 Group   3 Type N   : 11s6p1d contracted to 5s3p1d pattern {62111/411/1}
 Group   4 Type O   : 11s6p2d contracted to 5s3p2d pattern {62111/411/11}

Atom   0C    basis set group =>   1
Atom   1C    basis set group =>   1
Atom   2C    basis set group =>   1
Atom   3C    basis set group =>   1
Atom   4H    basis set group =>   2
Atom   5C    basis set group =>   1
Atom   6C    basis set group =>   1
Atom   7H    basis set group =>   2
Atom   8C    basis set group =>   1
Atom   9C    basis set group =>   1
Atom  10H    basis set group =>   2
Atom  11C    basis set group =>   1
Atom  12H    basis set group =>   2
Atom  13H    basis set group =>   2
Atom  14C    basis set group =>   1
Atom  15C    basis set group =>   1
Atom  16C    basis set group =>   1
Atom  17C    basis set group =>   1
Atom  18H    basis set group =>   2
Atom  19C    basis set group =>   1
Atom  20C    basis set group =>   1
Atom  21H    basis set group =>   2
Atom  22C    basis set group =>   1
Atom  23C    basis set group =>   1
Atom  24H    basis set group =>   2
Atom  25C    basis set group =>   1
Atom  26H    basis set group =>   2
Atom  27C    basis set group =>   1
Atom  28C    basis set group =>   1
Atom  29N    basis set group =>   3
Atom  30H    basis set group =>   2
Atom  31C    basis set group =>   1
Atom  32N    basis set group =>   3
Atom  33H    basis set group =>   2
Atom  34C    basis set group =>   1
Atom  35H    basis set group =>   2
Atom  36C    basis set group =>   1
Atom  37C    basis set group =>   1
Atom  38C    basis set group =>   1
Atom  39O    basis set group =>   4
Atom  40C    basis set group =>   1
Atom  41C    basis set group =>   1
Atom  42N    basis set group =>   3
Atom  43H    basis set group =>   2
Atom  44C    basis set group =>   1
Atom  45N    basis set group =>   3
Atom  46H    basis set group =>   2
Atom  47C    basis set group =>   1
Atom  48H    basis set group =>   2
Atom  49C    basis set group =>   1
Atom  50H    basis set group =>   2
Atom  51C    basis set group =>   1
Atom  52C    basis set group =>   1
Atom  53C    basis set group =>   1
Atom  54N    basis set group =>   3
Atom  55H    basis set group =>   2
Atom  56C    basis set group =>   1
Atom  57C    basis set group =>   1
Atom  58H    basis set group =>   2
Atom  59C    basis set group =>   1
Atom  60H    basis set group =>   2
Atom  61C    basis set group =>   1
Atom  62H    basis set group =>   2
Atom  63H    basis set group =>   2
Atom  64C    basis set group =>   1
Atom  65H    basis set group =>   2
Atom  66C    basis set group =>   1
Atom  67C    basis set group =>   1
Atom  68C    basis set group =>   1
Atom  69C    basis set group =>   1
Atom  70H    basis set group =>   2
Atom  71H    basis set group =>   2
Atom  72H    basis set group =>   2
Atom  73H    basis set group =>   2
Atom  74H    basis set group =>   2
Atom  75H    basis set group =>   2
Atom  76H    basis set group =>   2
Atom  77H    basis set group =>   2
Atom  78H    basis set group =>   2
Atom  79H    basis set group =>   2
Atom  80H    basis set group =>   2
Atom  81H    basis set group =>   2
Atom  82H    basis set group =>   2
Atom  83H    basis set group =>   2
Atom  84H    basis set group =>   2
Atom  85H    basis set group =>   2
Atom  86H    basis set group =>   2
Atom  87H    basis set group =>   2
Atom  88H    basis set group =>   2
Atom  89H    basis set group =>   2
Atom  90H    basis set group =>   2
Atom  91H    basis set group =>   2
Atom  92H    basis set group =>   2
Atom  93H    basis set group =>   2
Atom  94H    basis set group =>   2
Atom  95H    basis set group =>   2
Atom  96H    basis set group =>   2
Atom  97H    basis set group =>   2
Atom  98H    basis set group =>   2
Atom  99H    basis set group =>   2
Atom 100H    basis set group =>   2
Atom 101H    basis set group =>   2
Atom 102H    basis set group =>   2
Atom 103H    basis set group =>   2
Atom 104H    basis set group =>   2
Atom 105H    basis set group =>   2
Atom 106H    basis set group =>   2
Atom 107N    basis set group =>   3
Atom 108H    basis set group =>   2
Atom 109H    basis set group =>   2
Atom 110H    basis set group =>   2

-------------------------
BASIS SET IN INPUT FORMAT
-------------------------

 # Basis set for element : H 
 NewGTO H 
 S 3 
   1      34.0613410000      0.0254393072
   2       5.1235746000      0.1900859489
   3       1.1646626000      0.8524411301
 S 1 
   1       0.3272304100      1.0000000000
 S 1 
   1       0.1030724100      1.0000000000
  end;

 # Basis set for element : C 
 NewGTO C 
 S 6 
   1   13575.3496820000      0.0006064549
   2    2035.2333680000      0.0046979088
   3     463.2256235900      0.0243324776
   4     131.2001959800      0.0973999683
   5      42.8530158910      0.3019558425
   6      15.5841857660      0.6623360915
 S 2 
   1       6.2067138508      0.6559530854
   2       2.5764896527      0.3758563329
 S 1 
   1       0.5769633942      1.0000000000
 S 1 
   1       0.2297283136      1.0000000000
 S 1 
   1       0.0951644400      1.0000000000
 P 4 
   1      34.6972322440      0.0113272200
   2       7.9582622826      0.0761696592
   3       2.3780826883      0.3019225220
   4       0.8143320818      0.7278502735
 P 1 
   1       0.2888754725      1.0000000000
 P 1 
   1       0.1005682367      1.0000000000
 D 1 
   1       0.8000000000      1.0000000000
  end;

 # Basis set for element : N 
 NewGTO N 
 S 6 
   1   19730.8006470000      0.0005862639
   2    2957.8958745000      0.0045428821
   3     673.2213359500      0.0235584136
   4     190.6824949400      0.0947091933
   5      62.2954418980      0.2971978492
   6      22.6541611820      0.6691624689
 S 2 
   1       8.9791477428      0.6459668363
   2       3.6863002370      0.3870057440
 S 1 
   1       0.8466007680      1.0000000000
 S 1 
   1       0.3364713377      1.0000000000
 S 1 
   1       0.1364765367      1.0000000000
 P 4 
   1      49.2003805100      0.0114488252
   2      11.3467905370      0.0784223379
   3       3.4273972411      0.3081809474
   4       1.1785525134      0.7202719637
 P 1 
   1       0.4164220497      1.0000000000
 P 1 
   1       0.1426082601      1.0000000000
 D 1 
   1       0.8000000000      1.0000000000
  end;

 # Basis set for element : O 
 NewGTO O 
 S 6 
   1   27032.3826310000      0.0005722733
   2    4052.3871392000      0.0044353233
   3     922.3272271000      0.0230201076
   4     261.2407098900      0.0928224906
   5      85.3546413510      0.2937850002
   6      31.0350352450      0.6740160450
 S 2 
   1      12.2608607280      0.6383993702
   2       4.9987076005      0.3953458713
 S 1 
   1       1.1703108158      1.0000000000
 S 1 
   1       0.4647474099      1.0000000000
 S 1 
   1       0.1850453636      1.0000000000
 P 4 
   1      63.2749548010      0.0120183321
   2      14.6270493790      0.0830054217
   3       4.4501223456      0.3199174393
   4       1.5275799647      0.7071554292
 P 1 
   1       0.5293511794      1.0000000000
 P 1 
   1       0.1747842127      1.0000000000
 D 1 
   1       0.9000000000      1.0000000000
 D 1 
   1       0.1500000000      1.0000000000
  end;

---------------------------------
AUXILIARY/J BASIS SET INFORMATION
---------------------------------
There are 4 groups of distinct atoms

 Group   1 Type C   : 8s3p3d contracted to 6s3p3d pattern {311111/111/111}
 Group   2 Type H   : 5s2p contracted to 3s1p pattern {311/2}
 Group   3 Type N   : 8s3p3d contracted to 6s3p3d pattern {311111/111/111}
 Group   4 Type O   : 8s3p3d contracted to 6s3p3d pattern {311111/111/111}

Atom   0C    basis set group =>   1
Atom   1C    basis set group =>   1
Atom   2C    basis set group =>   1
Atom   3C    basis set group =>   1
Atom   4H    basis set group =>   2
Atom   5C    basis set group =>   1
Atom   6C    basis set group =>   1
Atom   7H    basis set group =>   2
Atom   8C    basis set group =>   1
Atom   9C    basis set group =>   1
Atom  10H    basis set group =>   2
Atom  11C    basis set group =>   1
Atom  12H    basis set group =>   2
Atom  13H    basis set group =>   2
Atom  14C    basis set group =>   1
Atom  15C    basis set group =>   1
Atom  16C    basis set group =>   1
Atom  17C    basis set group =>   1
Atom  18H    basis set group =>   2
Atom  19C    basis set group =>   1
Atom  20C    basis set group =>   1
Atom  21H    basis set group =>   2
Atom  22C    basis set group =>   1
Atom  23C    basis set group =>   1
Atom  24H    basis set group =>   2
Atom  25C    basis set group =>   1
Atom  26H    basis set group =>   2
Atom  27C    basis set group =>   1
Atom  28C    basis set group =>   1
Atom  29N    basis set group =>   3
Atom  30H    basis set group =>   2
Atom  31C    basis set group =>   1
Atom  32N    basis set group =>   3
Atom  33H    basis set group =>   2
Atom  34C    basis set group =>   1
Atom  35H    basis set group =>   2
Atom  36C    basis set group =>   1
Atom  37C    basis set group =>   1
Atom  38C    basis set group =>   1
Atom  39O    basis set group =>   4
Atom  40C    basis set group =>   1
Atom  41C    basis set group =>   1
Atom  42N    basis set group =>   3
Atom  43H    basis set group =>   2
Atom  44C    basis set group =>   1
Atom  45N    basis set group =>   3
Atom  46H    basis set group =>   2
Atom  47C    basis set group =>   1
Atom  48H    basis set group =>   2
Atom  49C    basis set group =>   1
Atom  50H    basis set group =>   2
Atom  51C    basis set group =>   1
Atom  52C    basis set group =>   1
Atom  53C    basis set group =>   1
Atom  54N    basis set group =>   3
Atom  55H    basis set group =>   2
Atom  56C    basis set group =>   1
Atom  57C    basis set group =>   1
Atom  58H    basis set group =>   2
Atom  59C    basis set group =>   1
Atom  60H    basis set group =>   2
Atom  61C    basis set group =>   1
Atom  62H    basis set group =>   2
Atom  63H    basis set group =>   2
Atom  64C    basis set group =>   1
Atom  65H    basis set group =>   2
Atom  66C    basis set group =>   1
Atom  67C    basis set group =>   1
Atom  68C    basis set group =>   1
Atom  69C    basis set group =>   1
Atom  70H    basis set group =>   2
Atom  71H    basis set group =>   2
Atom  72H    basis set group =>   2
Atom  73H    basis set group =>   2
Atom  74H    basis set group =>   2
Atom  75H    basis set group =>   2
Atom  76H    basis set group =>   2
Atom  77H    basis set group =>   2
Atom  78H    basis set group =>   2
Atom  79H    basis set group =>   2
Atom  80H    basis set group =>   2
Atom  81H    basis set group =>   2
Atom  82H    basis set group =>   2
Atom  83H    basis set group =>   2
Atom  84H    basis set group =>   2
Atom  85H    basis set group =>   2
Atom  86H    basis set group =>   2
Atom  87H    basis set group =>   2
Atom  88H    basis set group =>   2
Atom  89H    basis set group =>   2
Atom  90H    basis set group =>   2
Atom  91H    basis set group =>   2
Atom  92H    basis set group =>   2
Atom  93H    basis set group =>   2
Atom  94H    basis set group =>   2
Atom  95H    basis set group =>   2
Atom  96H    basis set group =>   2
Atom  97H    basis set group =>   2
Atom  98H    basis set group =>   2
Atom  99H    basis set group =>   2
Atom 100H    basis set group =>   2
Atom 101H    basis set group =>   2
Atom 102H    basis set group =>   2
Atom 103H    basis set group =>   2
Atom 104H    basis set group =>   2
Atom 105H    basis set group =>   2
Atom 106H    basis set group =>   2
Atom 107N    basis set group =>   3
Atom 108H    basis set group =>   2
Atom 109H    basis set group =>   2
Atom 110H    basis set group =>   2

-------------------------------------
AUXILIARY/J BASIS SET IN INPUT FORMAT
-------------------------------------

 # Auxiliary/J basis set for element : H 
 NewAuxJGTO H 
 S 3 
   1      15.6752927000      0.1007184237
   2       3.6063578000      0.3404257499
   3       1.2080016000      0.6491996172
 S 1 
   1       0.4726794000      1.0000000000
 S 1 
   1       0.2018100000      1.0000000000
 P 2 
   1       2.0281365000      0.5596620919
   2       0.5358730000      0.5596620919
  end;

 # Auxiliary/J basis set for element : C 
 NewAuxJGTO C 
 S 3 
   1     459.7023860000      0.1098751775
   2     132.9577920000      0.2844848472
   3      41.5658170000      0.6964707648
 S 1 
   1      13.9155610000      1.0000000000
 S 1 
   1       4.9305290000     -1.0000000000
 S 1 
   1       1.8229480000      1.0000000000
 S 1 
   1       0.6920510000      1.0000000000
 S 1 
   1       0.2650930000      1.0000000000
 P 1 
   1       0.3278473579      1.0000000000
 P 1 
   1       0.7868336591      1.0000000000
 P 1 
   1       1.9710183160      1.0000000000
 D 1 
   1       4.0133010000      1.0000000000
 D 1 
   1       1.2475050000      1.0000000000
 D 1 
   1       0.4081480000      1.0000000000
  end;

 # Auxiliary/J basis set for element : N 
 NewAuxJGTO N 
 S 3 
   1     680.5425300000      0.1043830093
   2     196.7562140000      0.2751518961
   3      61.2707930000      0.7090825511
 S 1 
   1      20.3644630000      1.0000000000
 S 1 
   1       7.1424770000     -1.0000000000
 S 1 
   1       2.6080260000      1.0000000000
 S 1 
   1       0.9763730000      1.0000000000
 S 1 
   1       0.3686330000      1.0000000000
 P 1 
   1       0.4707391941      1.0000000000
 P 1 
   1       1.1297740658     -1.0000000000
 P 1 
   1       2.8300840347      1.0000000000
 D 1 
   1       5.8329865000      1.0000000000
 D 1 
   1       1.7326865000      1.0000000000
 D 1 
   1       0.5452425000      1.0000000000
  end;

 # Auxiliary/J basis set for element : O 
 NewAuxJGTO O 
 S 3 
   1     896.1035700000      0.1049899981
   2     269.7252320000      0.2698166569
   3      85.6150770000      0.7109966875
 S 1 
   1      28.4450350000      1.0000000000
 S 1 
   1       9.8069810000     -1.0000000000
 S 1 
   1       3.4747220000      1.0000000000
 S 1 
   1       1.2519210000      1.0000000000
 S 1 
   1       0.4536130000      1.0000000000
 P 1 
   1       0.6147088630     -1.0000000000
 P 1 
   1       1.4753012711      1.0000000000
 P 1 
   1       3.6956296840     -1.0000000000
 D 1 
   1       7.6526720000      1.0000000000
 D 1 
   1       2.2178680000      1.0000000000
 D 1 
   1       0.6823370000      1.0000000000
  end;



           ************************************************************
           *        Program running with 32 parallel MPI-processes    *
           *              working on a common directory               *
           ************************************************************
------------------------------------------------------------------------------
                           ORCA GTO INTEGRAL CALCULATION
                           -- RI-GTO INTEGRALS CHOSEN --
------------------------------------------------------------------------------

                         BASIS SET STATISTICS AND STARTUP INFO

Gaussian basis set:
 # of primitive gaussian shells          ... 1193
 # of primitive gaussian functions       ... 1981
 # of contracted shells                  ...  628
 # of contracted basis functions         ... 1122
 Highest angular momentum                ...    2
 Maximum contraction depth               ...    6
Auxiliary gaussian basis set:
 # of primitive gaussian shells          ... 1120
 # of primitive gaussian functions       ... 2250
 # of contracted shells                  ...  836
 # of contracted aux-basis functions     ... 1842
 Highest angular momentum                ...    2
 Maximum contraction depth               ...    3
Ratio of auxiliary to basis functions    ...  1.64
Integral package used                  ... LIBINT
 One Electron integrals                  ... done
 Ordering auxiliary basis shells         ... done
 Integral threshhold             Thresh  ...  2.500e-11
 Primitive cut-off               TCut    ...  2.500e-12
 Pre-screening matrix                    ... done
 Shell pair data                         ... 
 Ordering of the shell pairs             ... done (   0.020 sec) 96356 of 197506 pairs
 Determination of significant pairs      ... done (   0.000 sec)
 Creation of shell pair data             ... done (   0.011 sec)
 Storage of shell pair data              ... done (   0.019 sec)
 Shell pair data done in (   0.050 sec)
 Computing two index integrals           ... done
 Cholesky decomposition of the V-matrix  ... done


Timings:
 Total evaluation time                   ...   1.945 sec (  0.032 min)
 One electron matrix time                ...   0.863 sec (  0.014 min) = 44.4%
 Schwartz matrix evaluation time         ...   0.635 sec (  0.011 min) = 32.7%
 Two index repulsion integral time       ...   0.110 sec (  0.002 min) =  5.7%
 Cholesky decomposition of V             ...   0.252 sec (  0.004 min) = 13.0%
 Three index repulsion integral time     ...   0.001 sec (  0.000 min) =  0.0%



           ************************************************************
           *        Program running with 32 parallel MPI-processes    *
           *              working on a common directory               *
           ************************************************************
-------------------------------------------------------------------------------
                                 ORCA SCF
-------------------------------------------------------------------------------

------------
SCF SETTINGS
------------
Hamiltonian:
 Density Functional     Method          .... DFT(GTOs)
 Exchange Functional    Exchange        .... B973C
 Correlation Functional Correlation     .... B973C
 Gradients option       PostSCFGGA      .... off
   Density functional embedding theory  .... OFF
 RI-approximation to the Coulomb term is turned on
   Number of auxiliary basis functions  .... 1842


General Settings:
 Integral files         IntName         .... _o_2_alde1_3_ami1_1_opt_B97-3c
 Hartree-Fock type      HFTyp           .... RHF
 Total Charge           Charge          ....    0
 Multiplicity           Mult            ....    1
 Number of Electrons    NEL             ....  364
 Basis Dimension        Dim             .... 1122
 Nuclear Repulsion      ENuc            ....   6418.3898164407 Eh

Convergence Acceleration:
 DIIS                   CNVDIIS         .... on
   Start iteration      DIISMaxIt       ....     0
   Startup error        DIISStart       ....  0.200000
   # of expansion vecs  DIISMaxEq       ....     5
   Bias factor          DIISBfac        ....   1.050
   Max. coefficient     DIISMaxC        ....  10.000
 Newton-Raphson         CNVNR           .... off
 SOSCF                  CNVSOSCF        .... on
   Start iteration      SOSCFMaxIt      ....   150
   Startup grad/error   SOSCFStart      ....  0.001000
 Level Shifting         CNVShift        .... on
   Level shift para.    LevelShift      ....    0.2500
   Turn off err/grad.   ShiftErr        ....    0.0000
 Zerner damping         CNVZerner       .... off
 Static damping         CNVDamp         .... on
   Fraction old density DampFac         ....    0.8500
   Max. Damping (<1)    DampMax         ....    0.9800
   Min. Damping (>=0)   DampMin         ....    0.0000
   Turn off err/grad.   DampErr         ....    0.0300
 Fernandez-Rico         CNVRico         .... off

SCF Procedure:
 Maximum # iterations   MaxIter         ....  2000
 SCF integral mode      SCFMode         .... Direct
   Integral package                     .... LIBINT
 Reset frequency        DirectResetFreq ....    20
 Integral Threshold     Thresh          ....  2.500e-11 Eh
 Primitive CutOff       TCut            ....  2.500e-12 Eh

Convergence Tolerance:
 Convergence Check Mode ConvCheckMode   .... Total+1el-Energy
 Convergence forced     ConvForced      .... 0
 Energy Change          TolE            ....  1.000e-08 Eh
 1-El. energy change                    ....  1.000e-05 Eh
 Orbital Gradient       TolG            ....  1.000e-05
 Orbital Rotation angle TolX            ....  1.000e-05
 DIIS Error             TolErr          ....  5.000e-07


Diagonalization of the overlap matrix:
Smallest eigenvalue                        ... 4.806e-06
Time for diagonalization                   ...    0.260 sec
Threshold for overlap eigenvalues          ... 1.000e-08
Number of eigenvalues below threshold      ... 0
Time for construction of square roots      ...    0.163 sec
Total time needed                          ...    0.425 sec

--------------------------------
INITIAL GUESS: MINIMAL BASIS EHT
--------------------------------
The minimal basis has 307 functions
EHT matrix was diagonalized
Basis set overlap was calculated now projecting the orbitals
Using GuessMode=FMatrix for the initial guess
C*T matrix was formed
Effective Fockian was calculated
Effective Fockian was diagonalized
Initial density was built
                      ------------------
                      INITIAL GUESS DONE
                      ------------------
-------------------
DFT GRID GENERATION
-------------------

General Integration Accuracy     IntAcc      ...  5.340
Radial Grid Type                 RadialGrid  ... Gauss-Chebyshev
Angular Grid (max. acc.)         AngularGrid ... Lebedev-590
Angular grid pruning method      GridPruning ... 3 (G Style)
Weight generation scheme         WeightScheme... Becke
Basis function cutoff            BFCut       ...    1.0000e-11
Integration weight cutoff        WCut        ...    1.0000e-14
Grids for H and He will be reduced by one unit

# of grid points (after initial pruning)     ... 1491736 (   0.0 sec)
# of grid points (after weights+screening)   ... 1228633 (   2.9 sec)
nearest neighbour list constructed           ...    0.0 sec
Grid point re-assignment to atoms done       ...    0.2 sec
Grid point division into batches done        ...   11.7 sec
Reduced shell lists constructed in   12.4 sec

Total number of grid points                  ...  1228633
Total number of batches                      ...    19257
Average number of points per batch           ...       63
Average number of grid points per atom       ...    11069
Average number of shells per batch           ...   181.18 (28.85%)
Average number of basis functions per batch  ...   335.57 (29.91%)
Average number of large shells per batch     ...   101.61 (56.08%)
Average number of large basis fcns per batch ...   200.01 (59.60%)
Maximum spatial batch extension              ...  13.77, 12.34, 10.55 au
Average spatial batch extension              ...   0.03,  0.03,  0.03 au

Time for grid setup =   15.809 sec

--------------
SCF ITERATIONS
--------------
ITER       Energy         Delta-E        Max-DP      RMS-DP      [F,P]     Damp
               ***  Starting incremental Fock matrix formation  ***
  0  -2034.1291260844   0.000000000000 0.36627064  0.00191164  0.4757456 0.8500
  1  -2035.2607568645  -1.131630780171 0.73028705  0.00249267  0.4057683 0.8500
                               ***Turning on DIIS***
  2  -2036.0489097945  -0.788152929983 0.48406879  0.00189761  0.3447965 0.8500
  3  -2036.6292179733  -0.580308178732 0.18228603  0.00117674  0.2927606 0.8500
  4  -2037.1210769235  -0.491858950288 0.21141442  0.00112110  0.2484477 0.8500
  5  -2037.5297913799  -0.408714456374 0.17054469  0.00096257  0.2110580 0.8500
  6  -2037.8851358955  -0.355344515553 0.13903304  0.00081475  0.1794636 0.8500
  7  -2038.1895148103  -0.304378914810 0.11076452  0.00067743  0.1526130 0.8500
  8  -2038.4484172431  -0.258902432821 0.10644039  0.00060512  0.1297514 0.8500
  9  -2038.6673986029  -0.218981359843 0.10182873  0.00054039  0.1102469 0.8500
 10  -2038.8524658683  -0.185067265361 0.08192052  0.00045272  0.0936657 0.8500
 11  -2039.0101617338  -0.157695865511 0.06345327  0.00037196  0.0796150 0.8500
 12  -2039.1444666500  -0.134304916167 0.05312789  0.00031274  0.0676878 0.8500
 13  -2039.2585349791  -0.114068329095 0.04808920  0.00027205  0.0575373 0.8500
 14  -2039.3553525396  -0.096817560470 0.04295444  0.00023499  0.0488925 0.8500
 15  -2039.4375537140  -0.082201174444 0.03459141  0.00019493  0.0415449 0.8500
 16  -2039.5074535716  -0.069899857559 0.02726304  0.00015974  0.0353110 0.8500
 17  -2039.5668813930  -0.059427821465 0.02267254  0.00013350  0.0300170 0.8500
 18  -2039.6173757326  -0.050494339594 0.13184312  0.00075917  0.0255131 0.0000
 19  -2039.9032545203  -0.285878787736 0.00808644  0.00005499  0.0010662 0.0000
               *** Restarting incremental Fock matrix formation ***
                                   *** Resetting DIIS ***
 20  -2039.9032455246   0.000008995710 0.01132300  0.00003797  0.0016247 0.0000
 21  -2039.9032187415   0.000026783159 0.00299590  0.00001288  0.0026924 0.0000
                      *** Initiating the SOSCF procedure ***
                           *** Shutting down DIIS ***
                      *** Re-Reading the Fockian *** 
                      *** Removing any level shift *** 
ITER      Energy       Delta-E        Grad      Rot      Max-DP    RMS-DP
 22  -2039.90325719  -0.0000384469  0.000121  0.000121  0.002810  0.000009
               *** Restarting incremental Fock matrix formation ***
 23  -2039.90326304  -0.0000058468  0.000129  0.000876  0.008794  0.000022
 24  -2039.90325691   0.0000061280  0.000417  0.000660  0.004388  0.000010
 25  -2039.90326370  -0.0000067935  0.000020  0.000116  0.002388  0.000010
 26  -2039.90326360   0.0000001028  0.000059  0.000080  0.001513  0.000006
 27  -2039.90326376  -0.0000001587  0.000009  0.000054  0.007158  0.000026
 28  -2039.90326372   0.0000000344  0.000018  0.000043  0.001127  0.000003
                  ***Gradient check signals convergence***
              ***Rediagonalizing the Fockian in SOSCF/NRSCF***

               *****************************************************
               *                     SUCCESS                       *
               *           SCF CONVERGED AFTER  29 CYCLES          *
               *****************************************************


----------------
TOTAL SCF ENERGY
----------------

Total Energy       :        -2039.90326375 Eh          -55508.58981 eV

Components:
Nuclear Repulsion  :         6418.38981644 Eh          174653.26611 eV
Electronic Energy  :        -8458.29308019 Eh         -230161.85591 eV
One Electron Energy:       -15546.79942240 Eh         -423049.91973 eV
Two Electron Energy:         7088.50634221 Eh          192888.06381 eV

Virial components:
Potential Energy   :        -4072.67410021 Eh         -110823.09640 eV
Kinetic Energy     :         2032.77083646 Eh           55314.50660 eV
Virial Ratio       :            2.00350872


DFT components:
N(Alpha)           :      182.000011850175 electrons
N(Beta)            :      182.000011850175 electrons
N(Total)           :      364.000023700350 electrons
E(XC)              :     -299.861678164692 Eh       
DFET-embed. en.    :        0.000000000000 Eh       

---------------
SCF CONVERGENCE
---------------

  Last Energy change         ...   -2.7816e-08  Tolerance :   1.0000e-08
  Last MAX-Density change    ...    3.9713e-03  Tolerance :   1.0000e-07
  Last RMS-Density change    ...    1.2849e-05  Tolerance :   5.0000e-09
  Last Orbital Gradient      ...    1.5328e-06  Tolerance :   1.0000e-05
  Last Orbital Rotation      ...    9.9033e-06  Tolerance :   1.0000e-05

             **** THE GBW FILE WAS UPDATED (_o_2_alde1_3_ami1_1_opt_B97-3c.gbw) ****
             **** DENSITY FILE WAS UPDATED (_o_2_alde1_3_ami1_1_opt_B97-3c.scfp) ****
             **** ENERGY FILE WAS UPDATED (_o_2_alde1_3_ami1_1_opt_B97-3c.en.tmp) ****
             **** THE GBW FILE WAS UPDATED (_o_2_alde1_3_ami1_1_opt_B97-3c.gbw) ****
             **** DENSITY FILE WAS UPDATED (_o_2_alde1_3_ami1_1_opt_B97-3c.scfp) ****
----------------
ORBITAL ENERGIES
----------------

  NO   OCC          E(Eh)            E(eV) 
   0   2.0000     -18.737992      -509.8867 
   1   2.0000     -13.975473      -380.2920 
   2   2.0000     -13.975267      -380.2864 
   3   2.0000     -13.974183      -380.2569 
   4   2.0000     -13.971489      -380.1835 
   5   2.0000     -13.968432      -380.1003 
   6   2.0000     -13.968183      -380.0936 
   7   2.0000      -9.973608      -271.3957 
   8   2.0000      -9.945983      -270.6440 
   9   2.0000      -9.933293      -270.2986 
  10   2.0000      -9.931372      -270.2464 
  11   2.0000      -9.926130      -270.1037 
  12   2.0000      -9.926110      -270.1032 
  13   2.0000      -9.920092      -269.9394 
  14   2.0000      -9.918597      -269.8987 
  15   2.0000      -9.918518      -269.8966 
  16   2.0000      -9.917668      -269.8735 
  17   2.0000      -9.917370      -269.8654 
  18   2.0000      -9.917319      -269.8640 
  19   2.0000      -9.915497      -269.8144 
  20   2.0000      -9.912503      -269.7329 
  21   2.0000      -9.911669      -269.7102 
  22   2.0000      -9.911422      -269.7035 
  23   2.0000      -9.911048      -269.6933 
  24   2.0000      -9.902676      -269.4655 
  25   2.0000      -9.899700      -269.3845 
  26   2.0000      -9.899596      -269.3817 
  27   2.0000      -9.898664      -269.3563 
  28   2.0000      -9.898442      -269.3503 
  29   2.0000      -9.898096      -269.3409 
  30   2.0000      -9.897813      -269.3332 
  31   2.0000      -9.893878      -269.2261 
  32   2.0000      -9.890541      -269.1353 
  33   2.0000      -9.889748      -269.1137 
  34   2.0000      -9.888960      -269.0923 
  35   2.0000      -9.888899      -269.0906 
  36   2.0000      -9.885222      -268.9906 
  37   2.0000      -9.884295      -268.9654 
  38   2.0000      -9.882944      -268.9286 
  39   2.0000      -9.882519      -268.9170 
  40   2.0000      -9.876762      -268.7604 
  41   2.0000      -9.876668      -268.7578 
  42   2.0000      -9.875272      -268.7198 
  43   2.0000      -9.874952      -268.7111 
  44   2.0000      -9.874732      -268.7051 
  45   2.0000      -9.871814      -268.6257 
  46   2.0000      -9.870445      -268.5885 
  47   2.0000      -9.869892      -268.5734 
  48   2.0000      -9.869769      -268.5701 
  49   2.0000      -0.967047       -26.3147 
  50   2.0000      -0.890981       -24.2448 
  51   2.0000      -0.870353       -23.6835 
  52   2.0000      -0.868521       -23.6337 
  53   2.0000      -0.850233       -23.1360 
  54   2.0000      -0.846894       -23.0452 
  55   2.0000      -0.805783       -21.9265 
  56   2.0000      -0.792544       -21.5662 
  57   2.0000      -0.790363       -21.5069 
  58   2.0000      -0.750171       -20.4132 
  59   2.0000      -0.749823       -20.4037 
  60   2.0000      -0.740564       -20.1518 
  61   2.0000      -0.729020       -19.8376 
  62   2.0000      -0.726433       -19.7672 
  63   2.0000      -0.721297       -19.6275 
  64   2.0000      -0.711594       -19.3635 
  65   2.0000      -0.709577       -19.3086 
  66   2.0000      -0.701351       -19.0847 
  67   2.0000      -0.699017       -19.0212 
  68   2.0000      -0.661898       -18.0112 
  69   2.0000      -0.657869       -17.9015 
  70   2.0000      -0.646507       -17.5923 
  71   2.0000      -0.629654       -17.1338 
  72   2.0000      -0.625121       -17.0104 
  73   2.0000      -0.622473       -16.9383 
  74   2.0000      -0.620822       -16.8934 
  75   2.0000      -0.619953       -16.8698 
  76   2.0000      -0.618620       -16.8335 
  77   2.0000      -0.609206       -16.5773 
  78   2.0000      -0.607228       -16.5235 
  79   2.0000      -0.601002       -16.3541 
  80   2.0000      -0.585039       -15.9197 
  81   2.0000      -0.574445       -15.6315 
  82   2.0000      -0.569169       -15.4879 
  83   2.0000      -0.565346       -15.3839 
  84   2.0000      -0.556600       -15.1459 
  85   2.0000      -0.554365       -15.0850 
  86   2.0000      -0.528920       -14.3927 
  87   2.0000      -0.514984       -14.0134 
  88   2.0000      -0.512283       -13.9399 
  89   2.0000      -0.509613       -13.8673 
  90   2.0000      -0.507894       -13.8205 
  91   2.0000      -0.507304       -13.8044 
  92   2.0000      -0.502718       -13.6796 
  93   2.0000      -0.499775       -13.5996 
  94   2.0000      -0.496416       -13.5082 
  95   2.0000      -0.478940       -13.0326 
  96   2.0000      -0.473315       -12.8795 
  97   2.0000      -0.468405       -12.7459 
  98   2.0000      -0.460478       -12.5302 
  99   2.0000      -0.458631       -12.4800 
 100   2.0000      -0.444925       -12.1070 
 101   2.0000      -0.438557       -11.9338 
 102   2.0000      -0.437489       -11.9047 
 103   2.0000      -0.429925       -11.6988 
 104   2.0000      -0.428715       -11.6659 
 105   2.0000      -0.423971       -11.5368 
 106   2.0000      -0.421047       -11.4573 
 107   2.0000      -0.419920       -11.4266 
 108   2.0000      -0.414413       -11.2767 
 109   2.0000      -0.413326       -11.2472 
 110   2.0000      -0.409109       -11.1324 
 111   2.0000      -0.407071       -11.0770 
 112   2.0000      -0.405742       -11.0408 
 113   2.0000      -0.400198       -10.8900 
 114   2.0000      -0.397056       -10.8044 
 115   2.0000      -0.394047       -10.7226 
 116   2.0000      -0.391705       -10.6588 
 117   2.0000      -0.389262       -10.5924 
 118   2.0000      -0.387904       -10.5554 
 119   2.0000      -0.386558       -10.5188 
 120   2.0000      -0.378643       -10.3034 
 121   2.0000      -0.377829       -10.2812 
 122   2.0000      -0.376878       -10.2554 
 123   2.0000      -0.375707       -10.2235 
 124   2.0000      -0.371932       -10.1208 
 125   2.0000      -0.366100        -9.9621 
 126   2.0000      -0.363086        -9.8801 
 127   2.0000      -0.360601        -9.8125 
 128   2.0000      -0.359661        -9.7869 
 129   2.0000      -0.357978        -9.7411 
 130   2.0000      -0.356199        -9.6927 
 131   2.0000      -0.354397        -9.6436 
 132   2.0000      -0.352404        -9.5894 
 133   2.0000      -0.348289        -9.4774 
 134   2.0000      -0.346370        -9.4252 
 135   2.0000      -0.345013        -9.3883 
 136   2.0000      -0.343664        -9.3516 
 137   2.0000      -0.341925        -9.3042 
 138   2.0000      -0.341105        -9.2819 
 139   2.0000      -0.340101        -9.2546 
 140   2.0000      -0.338283        -9.2052 
 141   2.0000      -0.336167        -9.1476 
 142   2.0000      -0.333366        -9.0714 
 143   2.0000      -0.330926        -9.0049 
 144   2.0000      -0.328602        -8.9417 
 145   2.0000      -0.326752        -8.8914 
 146   2.0000      -0.323677        -8.8077 
 147   2.0000      -0.321070        -8.7368 
 148   2.0000      -0.318324        -8.6620 
 149   2.0000      -0.315873        -8.5954 
 150   2.0000      -0.314728        -8.5642 
 151   2.0000      -0.310690        -8.4543 
 152   2.0000      -0.305742        -8.3197 
 153   2.0000      -0.301839        -8.2135 
 154   2.0000      -0.300117        -8.1666 
 155   2.0000      -0.299578        -8.1519 
 156   2.0000      -0.296120        -8.0578 
 157   2.0000      -0.294825        -8.0226 
 158   2.0000      -0.293828        -7.9955 
 159   2.0000      -0.292545        -7.9606 
 160   2.0000      -0.291553        -7.9336 
 161   2.0000      -0.290060        -7.8929 
 162   2.0000      -0.289773        -7.8851 
 163   2.0000      -0.288843        -7.8598 
 164   2.0000      -0.288413        -7.8481 
 165   2.0000      -0.276567        -7.5258 
 166   2.0000      -0.274898        -7.4803 
 167   2.0000      -0.274203        -7.4614 
 168   2.0000      -0.272475        -7.4144 
 169   2.0000      -0.269730        -7.3397 
 170   2.0000      -0.256491        -6.9795 
 171   2.0000      -0.228142        -6.2081 
 172   2.0000      -0.225751        -6.1430 
 173   2.0000      -0.221094        -6.0163 
 174   2.0000      -0.220106        -5.9894 
 175   2.0000      -0.214876        -5.8471 
 176   2.0000      -0.212558        -5.7840 
 177   2.0000      -0.211247        -5.7483 
 178   2.0000      -0.199176        -5.4199 
 179   2.0000      -0.195117        -5.3094 
 180   2.0000      -0.194139        -5.2828 
 181   2.0000      -0.186171        -5.0660 
 182   0.0000      -0.100176        -2.7259 
 183   0.0000      -0.082029        -2.2321 
 184   0.0000      -0.071709        -1.9513 
 185   0.0000      -0.070879        -1.9287 
 186   0.0000      -0.058008        -1.5785 
 187   0.0000      -0.003288        -0.0895 
 188   0.0000       0.014176         0.3858 
 189   0.0000       0.015047         0.4094 
 190   0.0000       0.023498         0.6394 
 191   0.0000       0.024209         0.6588 
 192   0.0000       0.026620         0.7244 
 193   0.0000       0.027400         0.7456 
 194   0.0000       0.028396         0.7727 
 195   0.0000       0.032118         0.8740 
 196   0.0000       0.039760         1.0819 
 197   0.0000       0.041117         1.1188 
 198   0.0000       0.042235         1.1493 
 199   0.0000       0.044595         1.2135 
 200   0.0000       0.045919         1.2495 
 201   0.0000       0.048622         1.3231 
 202   0.0000       0.051527         1.4021 
 203   0.0000       0.055169         1.5012 
 204   0.0000       0.059810         1.6275 
 205   0.0000       0.062044         1.6883 
 206   0.0000       0.063484         1.7275 
 207   0.0000       0.067180         1.8281 
 208   0.0000       0.069191         1.8828 
 209   0.0000       0.070292         1.9127 
 210   0.0000       0.073655         2.0043 
 211   0.0000       0.075529         2.0553 
 212   0.0000       0.078728         2.1423 
 213   0.0000       0.079757         2.1703 
 214   0.0000       0.081634         2.2214 
 215   0.0000       0.082939         2.2569 
 216   0.0000       0.085793         2.3345 
 217   0.0000       0.087221         2.3734 
 218   0.0000       0.087805         2.3893 
 219   0.0000       0.088020         2.3952 
 220   0.0000       0.089737         2.4419 
 221   0.0000       0.090389         2.4596 
 222   0.0000       0.093716         2.5501 
 223   0.0000       0.095796         2.6067 
 224   0.0000       0.099697         2.7129 
 225   0.0000       0.100752         2.7416 
 226   0.0000       0.101728         2.7682 
 227   0.0000       0.102701         2.7946 
 228   0.0000       0.104354         2.8396 
 229   0.0000       0.106165         2.8889 
 230   0.0000       0.108455         2.9512 
 231   0.0000       0.111841         3.0434 
 232   0.0000       0.113165         3.0794 
 233   0.0000       0.115150         3.1334 
 234   0.0000       0.116122         3.1598 
 235   0.0000       0.116932         3.1819 
 236   0.0000       0.118953         3.2369 
 237   0.0000       0.120775         3.2864 
 238   0.0000       0.121889         3.3168 
 239   0.0000       0.125173         3.4061 
 240   0.0000       0.127222         3.4619 
 241   0.0000       0.128133         3.4867 
 242   0.0000       0.129796         3.5319 
 243   0.0000       0.132113         3.5950 
 244   0.0000       0.134640         3.6637 
 245   0.0000       0.136347         3.7102 
 246   0.0000       0.137420         3.7394 
 247   0.0000       0.138694         3.7740 
 248   0.0000       0.139220         3.7884 
 249   0.0000       0.139509         3.7962 
 250   0.0000       0.141085         3.8391 
 251   0.0000       0.142602         3.8804 
 252   0.0000       0.143129         3.8947 
 253   0.0000       0.144342         3.9277 
 254   0.0000       0.146001         3.9729 
 255   0.0000       0.149764         4.0753 
 256   0.0000       0.150099         4.0844 
 257   0.0000       0.153436         4.1752 
 258   0.0000       0.156551         4.2600 
 259   0.0000       0.158121         4.3027 
 260   0.0000       0.160277         4.3613 
 261   0.0000       0.162101         4.4110 
 262   0.0000       0.163753         4.4559 
 263   0.0000       0.164299         4.4708 
 264   0.0000       0.167276         4.5518 
 265   0.0000       0.168887         4.5957 
 266   0.0000       0.170050         4.6273 
 267   0.0000       0.172192         4.6856 
 268   0.0000       0.173986         4.7344 
 269   0.0000       0.176100         4.7919 
 270   0.0000       0.179667         4.8890 
 271   0.0000       0.180916         4.9230 
 272   0.0000       0.182426         4.9641 
 273   0.0000       0.183030         4.9805 
 274   0.0000       0.185115         5.0372 
 275   0.0000       0.185593         5.0502 
 276   0.0000       0.187168         5.0931 
 277   0.0000       0.188742         5.1359 
 278   0.0000       0.190010         5.1704 
 279   0.0000       0.192217         5.2305 
 280   0.0000       0.193569         5.2673 
 281   0.0000       0.197709         5.3799 
 282   0.0000       0.198592         5.4040 
 283   0.0000       0.201125         5.4729 
 284   0.0000       0.203992         5.5509 
 285   0.0000       0.204341         5.5604 
 286   0.0000       0.207251         5.6396 
 287   0.0000       0.209680         5.7057 
 288   0.0000       0.211249         5.7484 
 289   0.0000       0.214671         5.8415 
 290   0.0000       0.218023         5.9327 
 291   0.0000       0.219478         5.9723 
 292   0.0000       0.222603         6.0573 
 293   0.0000       0.223516         6.0822 
 294   0.0000       0.225636         6.1399 
 295   0.0000       0.228260         6.2113 
 296   0.0000       0.229528         6.2458 
 297   0.0000       0.229934         6.2568 
 298   0.0000       0.230947         6.2844 
 299   0.0000       0.232925         6.3382 
 300   0.0000       0.235214         6.4005 
 301   0.0000       0.236273         6.4293 
 302   0.0000       0.239504         6.5172 
 303   0.0000       0.242214         6.5910 
 304   0.0000       0.244790         6.6611 
 305   0.0000       0.246625         6.7110 
 306   0.0000       0.247029         6.7220 
 307   0.0000       0.252279         6.8649 
 308   0.0000       0.254324         6.9205 
 309   0.0000       0.254939         6.9372 
 310   0.0000       0.257568         7.0088 
 311   0.0000       0.258837         7.0433 
 312   0.0000       0.259425         7.0593 
 313   0.0000       0.260855         7.0982 
 314   0.0000       0.263759         7.1773 
 315   0.0000       0.265223         7.2171 
 316   0.0000       0.267845         7.2884 
 317   0.0000       0.269893         7.3442 
 318   0.0000       0.271432         7.3860 
 319   0.0000       0.273545         7.4435 
 320   0.0000       0.274249         7.4627 
 321   0.0000       0.276601         7.5267 
 322   0.0000       0.277760         7.5582 
 323   0.0000       0.280318         7.6278 
 324   0.0000       0.281662         7.6644 
 325   0.0000       0.285058         7.7568 
 326   0.0000       0.286237         7.7889 
 327   0.0000       0.287387         7.8202 
[...]
      px      :     1.135888
      py      :     1.097048
      dz2     :     0.007339  d :     0.061765
      dxz     :     0.017990
      dyz     :     0.010718
      dx2y2   :     0.008576
      dxy     :     0.017142
 70 H s       :     0.845881  s :     0.845881
 71 H s       :     0.839159  s :     0.839159
 72 H s       :     0.848778  s :     0.848778
 73 H s       :     0.846567  s :     0.846567
 74 H s       :     0.849654  s :     0.849654
 75 H s       :     0.843242  s :     0.843242
 76 H s       :     0.849280  s :     0.849280
 77 H s       :     0.846489  s :     0.846489
 78 H s       :     0.838091  s :     0.838091
 79 H s       :     0.846694  s :     0.846694
 80 H s       :     0.848827  s :     0.848827
 81 H s       :     0.843165  s :     0.843165
 82 H s       :     0.850771  s :     0.850771
 83 H s       :     0.845243  s :     0.845243
 84 H s       :     0.845725  s :     0.845725
 85 H s       :     0.845644  s :     0.845644
 86 H s       :     0.846262  s :     0.846262
 87 H s       :     0.843609  s :     0.843609
 88 H s       :     0.845730  s :     0.845730
 89 H s       :     0.850839  s :     0.850839
 90 H s       :     0.842862  s :     0.842862
 91 H s       :     0.840345  s :     0.840345
 92 H s       :     0.844682  s :     0.844682
 93 H s       :     0.848141  s :     0.848141
 94 H s       :     0.843440  s :     0.843440
 95 H s       :     0.846804  s :     0.846804
 96 H s       :     0.849035  s :     0.849035
 97 H s       :     0.843382  s :     0.843382
 98 H s       :     0.846581  s :     0.846581
 99 H s       :     0.850651  s :     0.850651
100 H s       :     0.846604  s :     0.846604
101 H s       :     0.837517  s :     0.837517
102 H s       :     0.849266  s :     0.849266
103 H s       :     0.849455  s :     0.849455
104 H s       :     0.845898  s :     0.845898
105 H s       :     0.839030  s :     0.839030
106 H s       :     0.736758  s :     0.736758
107 N s       :     3.233291  s :     3.233291
      pz      :     1.392369  p :     4.023661
      px      :     1.235459
      py      :     1.395833
      dz2     :     0.011684  d :     0.078350
      dxz     :     0.016778
      dyz     :     0.015653
      dx2y2   :     0.010224
      dxy     :     0.024011
108 H s       :     0.843243  s :     0.843243
109 H s       :     0.857005  s :     0.857005
110 H s       :     0.729179  s :     0.729179


                      *****************************
                      * MAYER POPULATION ANALYSIS *
                      *****************************

  NA   - Mulliken gross atomic population
  ZA   - Total nuclear charge
  QA   - Mulliken gross atomic charge
  VA   - Mayer's total valence
  BVA  - Mayer's bonded valence
  FA   - Mayer's free valence

  ATOM       NA         ZA         QA         VA         BVA        FA
  0 C      5.7262     6.0000     0.2738     3.2615     3.2615    -0.0000
  1 C      6.4082     6.0000    -0.4082     3.9191     3.9191    -0.0000
  2 C      6.1441     6.0000    -0.1441     3.3680     3.3680    -0.0000
  3 C      5.8348     6.0000     0.1652     3.4005     3.4005    -0.0000
  4 H      0.7826     1.0000     0.2174     0.9247     0.9247    -0.0000
  5 C      6.1338     6.0000    -0.1338     3.5118     3.5118    -0.0000
  6 C      5.8061     6.0000     0.1939     3.5529     3.5529    -0.0000
  7 H      0.7885     1.0000     0.2115     0.8965     0.8965    -0.0000
  8 C      6.0529     6.0000    -0.0529     3.2800     3.2800    -0.0000
  9 C      6.4186     6.0000    -0.4186     3.8912     3.8912    -0.0000
 10 H      0.6931     1.0000     0.3069     0.8317     0.8317    -0.0000
 11 C      6.1532     6.0000    -0.1532     4.0297     4.0297    -0.0000
 12 H      0.8937     1.0000     0.1063     0.9635     0.9635    -0.0000
 13 H      0.8824     1.0000     0.1176     0.9597     0.9597    -0.0000
 14 C      5.7324     6.0000     0.2676     3.3952     3.3952    -0.0000
 15 C      6.4379     6.0000    -0.4379     3.8870     3.8870    -0.0000
 16 C      6.0626     6.0000    -0.0626     3.2633     3.2633    -0.0000
 17 C      5.6413     6.0000     0.3587     3.1759     3.1759    -0.0000
 18 H      0.7016     1.0000     0.2984     0.8356     0.8356    -0.0000
 19 C      6.2042     6.0000    -0.2042     3.3480     3.3480    -0.0000
 20 C      5.7525     6.0000     0.2475     3.3575     3.3575    -0.0000
 21 H      0.7981     1.0000     0.2019     0.9543     0.9543     0.0000
 22 C      6.2197     6.0000    -0.2197     3.5690     3.5690    -0.0000
 23 C      6.5693     6.0000    -0.5693     4.0004     4.0004    -0.0000
 24 H      0.8126     1.0000     0.1874     0.9155     0.9155    -0.0000
 25 C      6.4554     6.0000    -0.4554     3.9075     3.9075    -0.0000
 26 H      0.8885     1.0000     0.1115     0.9612     0.9612    -0.0000
 27 C      6.1906     6.0000    -0.1906     3.4785     3.4785    -0.0000
 28 C      6.1942     6.0000    -0.1942     3.4724     3.4724    -0.0000
 29 N      7.0368     7.0000    -0.0368     2.8576     2.8576    -0.0000
 30 H      0.8442     1.0000     0.1558     0.9497     0.9497    -0.0000
 31 C      6.1426     6.0000    -0.1426     3.5913     3.5913    -0.0000
 32 N      7.0360     7.0000    -0.0360     2.8598     2.8598    -0.0000
 33 H      0.8421     1.0000     0.1579     0.9483     0.9483    -0.0000
 34 C      6.1432     6.0000    -0.1432     3.5958     3.5958    -0.0000
 35 H      0.8093     1.0000     0.1907     0.9505     0.9505     0.0000
 36 C      6.5277     6.0000    -0.5277     3.7567     3.7567    -0.0000
 37 C      6.5296     6.0000    -0.5296     3.7587     3.7587    -0.0000
 38 C      6.4947     6.0000    -0.4947     3.7281     3.7281    -0.0000
 39 O      8.3116     8.0000    -0.3116     2.1596     2.1596    -0.0000
 40 C      6.1928     6.0000    -0.1928     3.4866     3.4866    -0.0000
 41 C      6.1854     6.0000    -0.1854     3.4694     3.4694    -0.0000
 42 N      7.0332     7.0000    -0.0332     2.8656     2.8656    -0.0000
 43 H      0.8451     1.0000     0.1549     0.9489     0.9489    -0.0000
 44 C      6.1443     6.0000    -0.1443     3.5884     3.5884    -0.0000
 45 N      7.0295     7.0000    -0.0295     2.8472     2.8472    -0.0000
 46 H      0.8457     1.0000     0.1543     0.9508     0.9508    -0.0000
 47 C      6.1427     6.0000    -0.1427     3.5918     3.5918    -0.0000
 48 H      0.8034     1.0000     0.1966     0.9488     0.9488    -0.0000
 49 C      6.5280     6.0000    -0.5280     3.7572     3.7572    -0.0000
 50 H      0.8096     1.0000     0.1904     0.9504     0.9504    -0.0000
 51 C      6.5272     6.0000    -0.5272     3.7559     3.7559    -0.0000
 52 C      5.8807     6.0000     0.1193     3.1234     3.1234    -0.0000
 53 C      6.1868     6.0000    -0.1868     3.5377     3.5377    -0.0000
 54 N      7.3232     7.0000    -0.3232     2.7194     2.7194     0.0000
 55 H      0.8559     1.0000     0.1441     0.9665     0.9665    -0.0000
 56 C      6.3281     6.0000    -0.3281     3.9121     3.9121    -0.0000
 57 C      6.2182     6.0000    -0.2182     3.8402     3.8402    -0.0000
 58 H      0.8250     1.0000     0.1750     0.9313     0.9313     0.0000
 59 C      6.4560     6.0000    -0.4560     3.7136     3.7136    -0.0000
 60 H      0.8378     1.0000     0.1622     0.9438     0.9438    -0.0000
 61 C      6.5163     6.0000    -0.5163     3.7302     3.7302    -0.0000
 62 H      0.8919     1.0000     0.1081     0.9623     0.9623     0.0000
 63 H      0.8988     1.0000     0.1012     0.9410     0.9410    -0.0000
 64 C      6.4961     6.0000    -0.4961     3.7314     3.7314    -0.0000
 65 H      0.8048     1.0000     0.1952     0.9490     0.9490     0.0000
 66 C      6.4962     6.0000    -0.4962     3.7293     3.7293    -0.0000
 67 C      6.4959     6.0000    -0.4959     3.7309     3.7309    -0.0000
 68 C      6.5204     6.0000    -0.5204     3.7542     3.7542    -0.0000
 69 C      6.4549     6.0000    -0.4549     3.7097     3.7097    -0.0000
 70 H      0.8322     1.0000     0.1678     0.9502     0.9502    -0.0000
 71 H      0.8125     1.0000     0.1875     0.9511     0.9511    -0.0000
 72 H      0.8546     1.0000     0.1454     0.9615     0.9615     0.0000
 73 H      0.8430     1.0000     0.1570     0.9572     0.9572    -0.0000
 74 H      0.8292     1.0000     0.1708     0.9518     0.9518    -0.0000
 75 H      0.8280     1.0000     0.1720     0.9498     0.9498    -0.0000
 76 H      0.8564     1.0000     0.1436     0.9621     0.9621    -0.0000
 77 H      0.8331     1.0000     0.1669     0.9502     0.9502    -0.0000
 78 H      0.8105     1.0000     0.1895     0.9510     0.9510    -0.0000
 79 H      0.8429     1.0000     0.1571     0.9568     0.9568    -0.0000
 80 H      0.8277     1.0000     0.1723     0.9518     0.9518    -0.0000
 81 H      0.8282     1.0000     0.1718     0.9498     0.9498    -0.0000
 82 H      0.8536     1.0000     0.1464     0.9639     0.9639    -0.0000
 83 H      0.8319     1.0000     0.1681     0.9529     0.9529    -0.0000
 84 H      0.8272     1.0000     0.1728     0.9517     0.9517    -0.0000
 85 H      0.8373     1.0000     0.1627     0.9569     0.9569    -0.0000
 86 H      0.8221     1.0000     0.1779     0.9474     0.9474    -0.0000
 87 H      0.8252     1.0000     0.1748     0.9510     0.9510    -0.0000
 88 H      0.8179     1.0000     0.1821     0.9472     0.9472    -0.0000
 89 H      0.8512     1.0000     0.1488     0.9632     0.9632     0.0000
 90 H      0.8205     1.0000     0.1795     0.9532     0.9532    -0.0000
 91 H      0.8207     1.0000     0.1793     0.9634     0.9634    -0.0000
 92 H      0.8503     1.0000     0.1497     0.9626     0.9626    -0.0000
 93 H      0.8327     1.0000     0.1673     0.9479     0.9479    -0.0000
 94 H      0.8290     1.0000     0.1710     0.9499     0.9499    -0.0000
 95 H      0.8435     1.0000     0.1565     0.9570     0.9570    -0.0000
 96 H      0.8283     1.0000     0.1717     0.9526     0.9526    -0.0000
 97 H      0.8280     1.0000     0.1720     0.9498     0.9498     0.0000
 98 H      0.8429     1.0000     0.1571     0.9575     0.9575     0.0000
 99 H      0.8318     1.0000     0.1682     0.9519     0.9519    -0.0000
100 H      0.8331     1.0000     0.1669     0.9499     0.9499    -0.0000
101 H      0.8092     1.0000     0.1908     0.9511     0.9511    -0.0000
102 H      0.8566     1.0000     0.1434     0.9620     0.9620     0.0000
103 H      0.8561     1.0000     0.1439     0.9615     0.9615    -0.0000
104 H      0.8321     1.0000     0.1679     0.9504     0.9504    -0.0000
105 H      0.8119     1.0000     0.1881     0.9509     0.9509    -0.0000
106 H      0.7041     1.0000     0.2959     0.8908     0.8908    -0.0000
107 N      7.2349     7.0000    -0.2349     2.8777     2.8777    -0.0000
108 H      0.8589     1.0000     0.1411     0.9505     0.9505    -0.0000
109 H      0.8444     1.0000     0.1556     0.9067     0.9067    -0.0000
110 H      0.6957     1.0000     0.3043     0.8791     0.8791    -0.0000

  Mayer bond orders larger than 0.100000
B(  0-C ,  1-C ) :   0.9597 B(  0-C ,  2-C ) :   1.0672 B(  0-C ,  3-C ) :   0.1498 
B(  0-C ,  6-C ) :   0.2308 B(  0-C ,  8-C ) :   1.1803 B(  0-C , 32-N ) :  -0.1573 
B(  1-C , 13-H ) :   0.9037 B(  1-C , 32-N ) :   1.9079 B(  2-C ,  3-C ) :   1.2509 
B(  2-C ,  4-H ) :   0.9192 B(  3-C ,  5-C ) :   1.2645 B(  3-C ,  6-C ) :   0.1384 
B(  3-C , 11-C ) :   0.8841 B(  3-C , 39-O ) :  -0.1683 B(  3-C , 63-H ) :  -0.1019 
B(  5-C ,  6-C ) :   1.2567 B(  5-C ,  7-H ) :   0.8688 B(  6-C ,  8-C ) :   1.2383 
B(  6-C ,  9-C ) :   0.9359 B(  6-C , 42-N ) :  -0.1652 B(  8-C , 10-H ) :   0.8967 
B(  8-C , 32-N ) :   0.1056 B(  8-C , 42-N ) :   0.1129 B(  9-C , 12-H ) :   0.9098 
B(  9-C , 42-N ) :   1.9142 B( 11-C , 39-O ) :   2.0743 B( 11-C , 63-H ) :   0.9585 
B( 14-C , 15-C ) :   0.9331 B( 14-C , 16-C ) :   1.2183 B( 14-C , 17-C ) :   0.2149 
B( 14-C , 20-C ) :   0.1632 B( 14-C , 22-C ) :   1.1550 B( 14-C , 29-N ) :  -0.1648 
B( 15-C , 29-N ) :   1.9057 B( 15-C , 62-H ) :   0.9065 B( 16-C , 17-C ) :   1.2252 
B( 16-C , 18-H ) :   0.8993 B( 16-C , 29-N ) :   0.1139 B( 16-C , 45-N ) :   0.1076 
B( 17-C , 19-C ) :   1.0273 B( 17-C , 20-C ) :   0.1469 B( 17-C , 25-C ) :   0.9252 
B( 17-C , 45-N ) :  -0.1617 B( 19-C , 20-C ) :   1.3677 B( 19-C , 21-H ) :   0.9140 
B( 20-C , 22-C ) :   1.3096 B( 20-C , 23-C ) :   0.6704 B( 22-C , 24-H ) :   0.9185 
B( 23-C , 54-N ) :   0.9755 B( 23-C ,107-N ) :   1.2225 B( 23-C ,109-H ) :   0.9592 
B( 25-C , 26-H ) :   0.9079 B( 25-C , 45-N ) :   1.9001 B( 27-C , 28-C ) :   0.8252 
B( 27-C , 29-N ) :   0.9344 B( 27-C , 30-H ) :   0.9333 B( 27-C , 31-C ) :   0.8669 
B( 28-C , 32-N ) :   0.9268 B( 28-C , 33-H ) :   0.9345 B( 28-C , 34-C ) :   0.8654 
B( 31-C , 35-H ) :   0.9763 B( 31-C , 36-C ) :   0.9448 B( 31-C , 64-C ) :   0.9584 
B( 34-C , 37-C ) :   0.9453 B( 34-C , 38-C ) :   0.9568 B( 34-C , 65-H ) :   0.9761 
B( 36-C , 73-H ) :   0.9566 B( 36-C , 74-H ) :   0.9642 B( 36-C , 75-H ) :   0.9558 
B( 37-C , 79-H ) :   0.9567 B( 37-C , 80-H ) :   0.9636 B( 37-C , 81-H ) :   0.9555 
B( 38-C , 70-H ) :   0.9556 B( 38-C , 71-H ) :   0.9619 B( 38-C , 72-H ) :   0.9637 
B( 40-C , 41-C ) :   0.8258 B( 40-C , 42-N ) :   0.9344 B( 40-C , 43-H ) :   0.9356 
B( 40-C , 44-C ) :   0.8621 B( 41-C , 45-N ) :   0.9243 B( 41-C , 46-H ) :   0.9313 
B( 41-C , 47-C ) :   0.8693 B( 44-C , 48-H ) :   0.9765 B( 44-C , 49-C ) :   0.9444 
B( 44-C , 66-C ) :   0.9567 B( 47-C , 50-H ) :   0.9768 B( 47-C , 51-C ) :   0.9436 
B( 47-C , 67-C ) :   0.9593 B( 49-C , 94-H ) :   0.9556 B( 49-C , 95-H ) :   0.9565 
B( 49-C , 96-H ) :   0.9642 B( 51-C , 97-H ) :   0.9562 B( 51-C , 98-H ) :   0.9567 
B( 51-C , 99-H ) :   0.9649 B( 52-C , 53-C ) :   0.7448 B( 52-C , 54-N ) :   0.9987 
B( 52-C , 55-H ) :   0.9574 B( 52-C , 56-C ) :   0.8380 B( 52-C , 68-C ) :  -0.1322 
B( 53-C , 57-C ) :   0.9551 B( 53-C ,107-N ) :   1.0770 B( 53-C ,108-H ) :   0.9384 
B( 54-N ,106-H ) :   0.8558 B( 56-C , 58-H ) :   0.9482 B( 56-C , 59-C ) :   0.9893 
B( 56-C , 68-C ) :   1.0267 B( 57-C , 60-H ) :   0.9455 B( 57-C , 61-C ) :   0.9673 
B( 57-C , 69-C ) :   1.0047 B( 59-C , 82-H ) :   0.9539 B( 59-C , 83-H ) :   0.9580 
B( 59-C , 84-H ) :   0.9604 B( 61-C , 85-H ) :   0.9626 B( 61-C , 86-H ) :   0.9531 
B( 61-C , 87-H ) :   0.9559 B( 64-C , 76-H ) :   0.9639 B( 64-C , 77-H ) :   0.9555 
B( 64-C , 78-H ) :   0.9615 B( 66-C ,103-H ) :   0.9640 B( 66-C ,104-H ) :   0.9558 
B( 66-C ,105-H ) :   0.9618 B( 67-C ,100-H ) :   0.9555 B( 67-C ,101-H ) :   0.9613 
B( 67-C ,102-H ) :   0.9636 B( 68-C , 88-H ) :   0.9585 B( 68-C , 89-H ) :   0.9521 
B( 68-C , 90-H ) :   0.9543 B( 69-C , 91-H ) :   0.9501 B( 69-C , 92-H ) :   0.9566 
B( 69-C , 93-H ) :   0.9596 B(107-N ,110-H ) :   0.8239 

-------
TIMINGS
-------

Total SCF time: 0 days 0 hours 0 min 41 sec 

Total time                  ....      41.729 sec
Sum of individual times     ....      38.781 sec  ( 92.9%)

Fock matrix formation       ....      17.042 sec  ( 40.8%)
  Split-RI-J                ....       6.024 sec  ( 35.3% of F)
  XC integration            ....      10.148 sec  ( 59.6% of F)
    Basis function eval.    ....       2.144 sec  ( 21.1% of XC)
    Density eval.           ....       3.914 sec  ( 38.6% of XC)
    XC-Functional eval.     ....       0.821 sec  (  8.1% of XC)
    XC-Potential eval.      ....       0.928 sec  (  9.1% of XC)
Diagonalization             ....       0.275 sec  (  0.7%)
Density matrix formation    ....       0.120 sec  (  0.3%)
Population analysis         ....       1.246 sec  (  3.0%)
Initial guess               ....       1.272 sec  (  3.0%)
Orbital Transformation      ....       0.000 sec  (  0.0%)
Orbital Orthonormalization  ....       1.204 sec  (  2.9%)
DIIS solution               ....       0.589 sec  (  1.4%)
SOSCF solution              ....       2.383 sec  (  5.7%)
Grid generation             ....      15.855 sec  ( 38.0%)


-------------------------------------------------------------------------------
                          DFT DISPERSION CORRECTION                            
                                                                               
                              DFTD3 V3.1  Rev 1                                
                          USING Becke-Johnson damping                          
-------------------------------------------------------------------------------
The B97-3c composite method is recognized
Using three-body term ABC
Active option DFTDOPT                   ...         4   

molecular C6(AA) [au] = 108478.343475 


            DFT-D V3
 parameters
 s6 scaling factor         :     1.0000 
 a1 scaling factor         :     0.3700 
 s8 scaling factor         :     1.5000 
 a2 scaling factor         :     4.1000 
 Damping factor alpha9(ATM):    16.0000 
 ad hoc parameters k1-k3   :    16.0000     1.3333    -4.0000 

 Edisp/kcal,au: -199.346869348252  -0.317679423695 
 E6   /kcal   : -105.132660794 
 E8   /kcal   : -94.904045368 
 E6(ABC)      :   0.689836814 
 % E8         :  47.607492246 
 % E6(ABC)    :  -0.346048481 

-------------------------   ----------------
Dispersion correction           -0.317679424
-------------------------   ----------------

------------------   -----------------
SRB correction            -0.316922148
------------------   -----------------

-------------------------   --------------------
FINAL SINGLE POINT ENERGY     -2040.546016362839
-------------------------   --------------------

                                *** OPTIMIZATION RUN DONE ***

                            ***************************************
                            *     ORCA property calculations      *
                            ***************************************

                                    ---------------------
                                    Active property flags
                                    ---------------------
   (+) Dipole Moment


------------------------------------------------------------------------------
                       ORCA ELECTRIC PROPERTIES CALCULATION
------------------------------------------------------------------------------

Dipole Moment Calculation                       ... on
Quadrupole Moment Calculation                   ... off
Polarizability Calculation                      ... off
GBWName                                         ... _o_2_alde1_3_ami1_1_opt_B97-3c.gbw
Electron density file                           ... _o_2_alde1_3_ami1_1_opt_B97-3c.scfp
The origin for moment calculation is the CENTER OF MASS  = (-3.528144,  1.771217 -2.532660)

-------------
DIPOLE MOMENT
-------------
                                X             Y             Z
Electronic contribution:    -48.43310     -29.35249       9.53172
Nuclear contribution   :     49.90268      30.97748     -10.19492
                        -----------------------------------------
Total Dipole Moment    :      1.46958       1.62499      -0.66320
                        -----------------------------------------
Magnitude (a.u.)       :      2.28913
Magnitude (Debye)      :      5.81849



--------------------
Rotational spectrum 
--------------------
 
Rotational constants in cm-1:     0.002775     0.000974     0.000838 
Rotational constants in MHz :    83.188758    29.199011    25.115663 

 Dipole components along the rotational axes: 
x,y,z [a.u.] :    -2.177904    -0.633984     0.308049 
x,y,z [Debye]:    -5.535791    -1.611460     0.782999 

 

Timings for individual modules:

Sum of individual times         ...     3637.345 sec (=  60.622 min)
GTO integral calculation        ...      131.411 sec (=   2.190 min)   3.6 %
SCF iterations                  ...     2459.922 sec (=  40.999 min)  67.6 %
SCF Gradient evaluation         ...      883.035 sec (=  14.717 min)  24.3 %
Geometry relaxation             ...      162.978 sec (=   2.716 min)   4.5 %
                             ****ORCA TERMINATED NORMALLY****
TOTAL RUN TIME: 0 days 1 hours 3 minutes 0 seconds 641 msec
