Job execution start: Thu Mar 10 22:39:31 GMT 2022
Shared library path: /work/e05/e05/atarzia/orca_4_2_1_linux_x86-64_openmpi314:/work/e05/e05/atarzia/openmpi-3.1.4/lib:/opt/cray/pe/papi/6.0.0.6/lib64:/opt/cray/libfabric/1.11.0.4.71/lib64
Slurm Job ID is: 1234940
Slurm Job name is: o_2_alde1_3_ami3_1_opt_MP2
nid002546

                                 *****************
                                 * O   R   C   A *
                                 *****************

           --- An Ab Initio, DFT and Semiempirical electronic structure package ---

                  #######################################################
                  #                        -***-                        #
                  #          Department of theory and spectroscopy      #
                  #               Directorship: Frank Neese             #
                  #        Max Planck Institute fuer Kohlenforschung    #
                  #                Kaiser Wilhelm Platz 1               #
                  #                 D-45470 Muelheim/Ruhr               #
                  #                      Germany                        #
                  #                                                     #
                  #                  All rights reserved                #
                  #                        -***-                        #
                  #######################################################


                         Program Version 4.2.1 -  RELEASE  -


 With contributions from (in alphabetic order):
   Daniel Aravena         : Magnetic Suceptibility
   Michael Atanasov       : Ab Initio Ligand Field Theory (pilot matlab implementation)
   Alexander A. Auer      : GIAO ZORA, VPT2
   Ute Becker             : Parallelization
   Giovanni Bistoni       : ED, misc. LED, open-shell LED, HFLD
   Martin Brehm           : Molecular dynamics
   Dmytro Bykov           : SCF Hessian
   Vijay G. Chilkuri      : MRCI spin determinant printing, contributions to CSF-ICE
   Dipayan Datta          : RHF DLPNO-CCSD density
   Achintya Kumar Dutta   : EOM-CC, STEOM-CC
   Dmitry Ganyushin       : Spin-Orbit,Spin-Spin,Magnetic field MRCI
   Miquel Garcia          : C-PCM Hessian, Gaussian charge scheme
   Yang Guo               : DLPNO-NEVPT2, CIM, IAO-localization
   Andreas Hansen         : Spin unrestricted coupled pair/coupled cluster methods
   Benjamin Helmich-Paris : CASSCF linear response (MC-RPA)
   Lee Huntington         : MR-EOM, pCC
   Robert Izsak           : Overlap fitted RIJCOSX, COSX-SCS-MP3, EOM
   Christian Kollmar      : KDIIS, OOCD, Brueckner-CCSD(T), CCSD density
   Simone Kossmann        : Meta GGA functionals, TD-DFT gradient, OOMP2, MP2 Hessian
   Martin Krupicka        : AUTO-CI
   Lucas Lang             : DCDCAS
   Dagmar Lenk            : GEPOL surface, SMD
   Dimitrios Liakos       : Extrapolation schemes; Compound Job, initial MDCI parallelization
   Dimitrios Manganas     : Further ROCIS development; embedding schemes
   Dimitrios Pantazis     : SARC Basis sets
   Taras Petrenko         : DFT Hessian,TD-DFT gradient, ASA, ECA, R-Raman, ABS, FL, XAS/XES, NRVS
   Peter Pinski           : DLPNO-MP2, DLPNO-MP2 Gradient
   Christoph Reimann      : Effective Core Potentials
   Marius Retegan         : Local ZFS, SOC
   Christoph Riplinger    : Optimizer, TS searches, QM/MM, DLPNO-CCSD(T), (RO)-DLPNO pert. Triples
   Tobias Risthaus        : Range-separated hybrids, TD-DFT gradient, RPA, STAB
   Michael Roemelt        : Original ROCIS implementation
   Masaaki Saitow         : Open-shell DLPNO-CCSD energy and density
   Barbara Sandhoefer     : DKH picture change effects
   Avijit Sen             : IP-ROCIS
   Kantharuban Sivalingam : CASSCF convergence, NEVPT2, FIC-MRCI
   Bernardo de Souza      : ESD, SOC TD-DFT
   Georgi Stoychev        : AutoAux, RI-MP2 NMR
   Willem Van den Heuvel  : Paramagnetic NMR
   Boris Wezisla          : Elementary symmetry handling
   Frank Wennmohs         : Technical directorship


 We gratefully acknowledge several colleagues who have allowed us to
 interface, adapt or use parts of their codes:
   Stefan Grimme, W. Hujo, H. Kruse,             : VdW corrections, initial TS optimization,
                  C. Bannwarth                     DFT functionals, gCP, sTDA/sTD-DF
   Ed Valeev, F. Pavosevic, A. Kumar             : LibInt (2-el integral package), F12 methods
   Garnet Chan, S. Sharma, J. Yang, R. Olivares  : DMRG
   Ulf Ekstrom                                   : XCFun DFT Library
   Mihaly Kallay                                 : mrcc  (arbitrary order and MRCC methods)
   Andreas Klamt, Michael Diedenhofen            : otool_cosmo (COSMO solvation model)
   Jiri Pittner, Ondrej Demel                    : Mk-CCSD
   Frank Weinhold                                : gennbo (NPA and NBO analysis)
   Christopher J. Cramer and Donald G. Truhlar   : smd solvation model
   Lars Goerigk                                  : TD-DFT with DH, B97 family of functionals
   V. Asgeirsson, H. Jonsson                     : NEB implementation
   FAccTs GmbH                                   : IRC, NEB, NEB-TS, Multilevel, MM, QM/MM, CI optimization
   S Lehtola, MJT Oliveira, MAL Marques          : LibXC Library


 Your calculation uses the libint2 library for the computation of 2-el integrals
 For citations please refer to: http://libint.valeyev.net

 Your ORCA version has been built with support for libXC version: 4.2.3
 For citations please refer to: https://tddft.org/programs/libxc/

 This ORCA versions uses:
   CBLAS   interface :  Fast vector & matrix operations
   LAPACKE interface :  Fast linear algebra routines
   SCALAPACK package :  Parallel linear algebra routines




***************************************
The coordinates will be read from file: _o_2_alde1_3_ami3_1_opt_B97-3c.xyz
***************************************


----- Orbital basis set information -----
Your calculation utilizes the basis: cc-pVTZ 
       H, B-Ne : Obtained from the ccRepo (grant-hill.group.shef.ac.uk/ccrepo) Feb. 2017
                 T. H. Dunning, Jr., J. Chem. Phys. 90, 1007 (1989)
            He : Obtained from the ccRepo (grant-hill.group.shef.ac.uk/ccrepo) Feb. 2017
                 D. E. Woon, T. H. Dunning, Jr., J. Chem. Phys. 100, 2975 (1994)
  Li-Be, Na-Mg : Obtained from the ccRepo (grant-hill.group.shef.ac.uk/ccrepo) Feb. 2017
                 B. P. Prascher, D. E. Woon, K. A. Peterson, T. H. Dunning, Jr., A. K. Wilson, Theor. Chem. Acc. 128, 69 (2011)
         Al-Ar : Obtained from the ccRepo (grant-hill.group.shef.ac.uk/ccrepo) Feb. 2017
                 D. E. Woon, T. H. Dunning, Jr., J. Chem. Phys. 98, 1358 (1993)
            Ca : Obtained from the Peterson Research Group Website (tyr0.chem.wsu.edu/~kipeters) Feb. 2017
                 J. Koput, K. A. Peterson, J. Phys. Chem. 106, 9595 (2002)
         Sc-Zn : Obtained from the ccRepo (grant-hill.group.shef.ac.uk/ccrepo) Feb. 2017
                 N. B. Balabanov, K. A. Peterson, J. Chem. Phys. 123, 064107 (2005)
                 N. B. Balabanov, K. A. Peterson, J. Chem. Phys. 125, 074110 (2006)
         Ga-Kr : Obtained from the ccRepo (grant-hill.group.shef.ac.uk/ccrepo) Feb. 2017
                 A. K. Wilson, D. E. Woon, K. A. Peterson, T. H. Dunning, Jr., J. Chem. Phys. 110, 7667 (1999)
             Y : Obtained from the ccRepo (grant-hill.group.shef.ac.uk/ccrepo) Feb. 2017
                 K. A. Peterson, D. Figgen, M. Dolg, H. Stoll, J. Chem. Phys. 126, 124101 (2007)
        Ag, Au : Obtained from the Peterson Research Group Website (tyr0.chem.wsu.edu/~kipeters) Feb. 2017
                 K. A. Peterson, C. Puzzarini, Theor. Chem. Acc. 114, 283 (2005)

----- AuxC basis set information -----
Your calculation utilizes the auxiliary basis: cc-pVTZ/C 
  Obtained from the EMSL Basis Set Exchange (bse.pnl.gov) Feb. 2017
  H-He, B-F, Al-Ar, Ga-Kr : F. Weigend, A. Kohn, C. Hattig, J. Chem. Phys. 116, 3175 (2002)
             Li-Be, Na-Mg : C. Haettig, Phys. Chem. Chem. Phys. 7, 59 (2005)
                       Ne : C. Haettig, Phys. Chem. Chem. Phys. 7, 59 (2005)
                            F. Weigend, A. Kohn, C. Hattig, J. Chem. Phys. 116, 3175 (2002)
                    Sc-Zn : J. G. Hill, J. A. Platts, J. Chem. Phys. 128, 044104 (2008)

================================================================================
                                        WARNINGS
                       Please study these warnings very carefully!
================================================================================


WARNING: No MP2 level density has been requested!
         To caclulate MP2 level properties use
         %mp2 Density relaxed end
         or
         %mp2 Density unrelaxed end

WARNING: Post HF methods need fully converged wavefunctions
  ===> : Setting SCFConvForced true
         You can overwrite this default with %scf ConvForced false 


INFO   : the flag for use of LIBINT has been found!

================================================================================
                                       INPUT FILE
================================================================================
NAME = o_2_alde1_3_ami3_1_opt_MP2.in
|  1> ! RI-MP2 cc-pVTZ cc-pVTZ/C TIGHTSCF printbasis Grid6 NOFINALGRID SlowConv
|  2> 
|  3> %base "_o_2_alde1_3_ami3_1_opt_MP2"
|  4> %maxcore 3000
|  5> %pal
|  6>    nprocs 32
|  7> end
|  8> 
|  9> * xyzfile 0 1 _o_2_alde1_3_ami3_1_opt_B97-3c.xyz
| 10> 
| 11>                          ****END OF INPUT****
================================================================================

                       ****************************
                       * Single Point Calculation *
                       ****************************

---------------------------------
CARTESIAN COORDINATES (ANGSTROEM)
---------------------------------
  C     -3.725549   -1.450002   -0.661633
  C     -3.616479   -1.110596    0.755335
  C     -3.206139   -2.637941   -1.181784
  C     -3.210636   -2.863629   -2.550315
  H     -2.778498   -3.364296   -0.502726
  C     -3.701938   -1.885427   -3.419429
  C     -4.225470   -0.702955   -2.919289
  H     -3.652573   -2.066420   -4.485465
  C     -4.254435   -0.508371   -1.534190
  C     -4.619542    0.370077   -3.832582
  H     -4.648799    0.425551   -1.157073
  C     -2.655408   -4.120566   -3.073597
  H     -4.281108    0.248312   -4.870777
  H     -4.131226   -0.188077    1.052262
  C     -0.533139    1.339014   -0.265498
  C     -0.485920    0.513431    0.938928
  C     -1.705711    1.993459   -0.635994
  C     -1.801111    2.630094   -1.866681
  H     -2.559461    1.942936    0.025916
  C     -0.688164    2.663576   -2.711348
  C      0.506755    2.069928   -2.328186
  H     -0.781963    3.147056   -3.674450
  C      0.566353    1.383231   -1.120014
  C      1.712789    2.173531   -3.230340
  H      1.484852    0.871930   -0.865361
  C     -3.105050    3.139822   -2.277168
  H     -3.868765    3.137006   -1.487866
  C     -1.348847   -0.452302    2.878488
  C     -2.710234   -1.184922    2.882480
  N     -1.384292    0.542645    1.836192
  H     -0.568968   -1.205535    2.692320
  C     -1.103191    0.183715    4.241389
  N     -2.908489   -1.771509    1.577259
  H     -3.469226   -0.417276    3.091411
  C     -2.743470   -2.234941    3.980539
  C     -1.154005   -0.852130    5.354319
  C     -2.468800   -1.618709    5.344211
  O     -2.596626   -4.423191   -4.248399
  C     -5.401238    2.495500   -4.382380
  C     -4.778093    3.758552   -3.746729
  N     -5.240748    1.407483   -3.449155
  H     -4.866282    2.300493   -5.323114
  C     -6.871728    2.742915   -4.695075
  N     -3.387646    3.486119   -3.466735
  H     -5.341331    3.943698   -2.820049
  C     -4.936518    4.951242   -4.674743
  C     -7.042610    3.943143   -5.614034
  C     -6.396725    5.190190   -5.027599
  C      3.726353    2.719424   -2.217849
  C      3.428658    3.767128   -3.281276
  N      2.929029    1.573163   -2.641573
  H      3.295012    3.084561   -1.277532
  C      5.207599    2.536085   -2.016315
  N      1.998552    3.612696   -3.523446
  H      3.963446    3.471286   -4.193513
  C      3.933782    5.124827   -2.861172
  C      5.802647    3.892275   -1.625513
  C      5.438546    5.013215   -2.600808
  H      0.356027   -0.192067    0.989890
  H      3.428922    1.079115   -3.370320
  H      1.499265    1.651956   -4.166185
  H      1.495935    4.173873   -2.844161
  H     -2.273566   -4.809401   -2.291989
  H     -8.102828    4.117315   -5.803903
  H     -6.588441    3.722157   -6.584146
  H     -6.480552    6.024569   -5.725322
  H     -6.941669    5.485492   -4.126406
  H     -4.506507    5.831072   -4.194452
  H     -4.348067    4.772697   -5.576986
  H     -7.293423    1.845251   -5.149144
  H     -7.408723    2.900399   -3.757353
  H      3.731271    5.881324   -3.620058
  H      3.417007    5.439358   -1.948507
  H      5.824603    5.962438   -2.226554
  H      5.943807    4.833017   -3.553523
  H      6.887955    3.814714   -1.546239
  H      5.443028    4.156575   -0.627101
  H      5.666283    2.179998   -2.944174
  H      5.416945    1.789855   -1.249642
  H     -2.000488   -3.002404    3.753606
  H     -3.714537   -2.731270    3.969986
  H     -1.855622    0.957637    4.406270
  H     -0.135871    0.687622    4.226102
  H     -1.003954   -0.366692    6.319988
  H     -0.325811   -1.555796    5.230727
  H     -2.460670   -2.395761    6.110180
  H     -3.283992   -0.937617    5.605257

----------------------------
CARTESIAN COORDINATES (A.U.)
----------------------------
  NO LB      ZA    FRAG     MASS         X           Y           Z
   0 C     6.0000    0    12.011   -7.040266   -2.740106   -1.250305
   1 C     6.0000    0    12.011   -6.834155   -2.098722    1.427376
   2 C     6.0000    0    12.011   -6.058724   -4.984986   -2.233248
   3 C     6.0000    0    12.011   -6.067223   -5.411475   -4.819398
   4 H     1.0000    0     1.008   -5.250601   -6.357598   -0.950014
   5 C     6.0000    0    12.011   -6.995649   -3.562941   -6.461785
   6 C     6.0000    0    12.011   -7.984980   -1.328393   -5.516656
   7 H     1.0000    0     1.008   -6.902362   -3.904969   -8.476301
   8 C     6.0000    0    12.011   -8.039716   -0.960682   -2.899199
   9 C     6.0000    0    12.011   -8.729669    0.699344   -7.242531
  10 H     1.0000    0     1.008   -8.784957    0.804175   -2.186552
  11 C     6.0000    0    12.011   -5.017995   -7.786742   -5.808257
  12 H     1.0000    0     1.008   -8.090122    0.469242   -9.204435
  13 H     1.0000    0     1.008   -7.806885   -0.355415    1.988487
  14 C     6.0000    0    12.011   -1.007487    2.530369   -0.501719
  15 C     6.0000    0    12.011   -0.918257    0.970244    1.774318
  16 C     6.0000    0    12.011   -3.223327    3.767091   -1.201855
  17 C     6.0000    0    12.011   -3.403606    4.970157   -3.527515
  18 H     1.0000    0     1.008   -4.836681    3.671617    0.048975
  19 C     6.0000    0    12.011   -1.300441    5.033428   -5.123705
  20 C     6.0000    0    12.011    0.957628    3.911597   -4.399634
  21 H     1.0000    0     1.008   -1.477695    5.947074   -6.943704
  22 C     6.0000    0    12.011    1.070252    2.613927   -2.116520
  23 C     6.0000    0    12.011    3.236703    4.107378   -6.104457
  24 H     1.0000    0     1.008    2.805964    1.647708   -1.635295
  25 C     6.0000    0    12.011   -5.867693    5.933404   -4.303223
  26 H     1.0000    0     1.008   -7.310905    5.928082   -2.811660
  27 C     6.0000    0    12.011   -2.548951   -0.854727    5.439554
  28 C     6.0000    0    12.011   -5.121600   -2.239178    5.447099
  29 N     7.0000    0    14.007   -2.615933    1.025450    3.469900
  30 H     1.0000    0     1.008   -1.075194   -2.278131    5.087748
  31 C     6.0000    0    12.011   -2.084728    0.347170    8.015064
  32 N     7.0000    0    14.007   -5.496248   -3.347668    2.980588
  33 H     1.0000    0     1.008   -6.555887   -0.788537    5.841921
  34 C     6.0000    0    12.011   -5.184407   -4.223426    7.522129
  35 C     6.0000    0    12.011   -2.180753   -1.610293   10.118197
  36 C     6.0000    0    12.011   -4.665356   -3.058916   10.099095
  37 O     8.0000    0    15.999   -4.906913   -8.358620   -8.028310
  38 C     6.0000    0    12.011  -10.206860    4.715812   -8.281498
  39 C     6.0000    0    12.011   -9.029286    7.102633   -7.080293
  40 N     7.0000    0    14.007   -9.903578    2.659757   -6.517959
  41 H     1.0000    0     1.008   -9.195940    4.347302  -10.059227
  42 C     6.0000    0    12.011  -12.985683    5.183359   -8.872405
  43 N     7.0000    0    14.007   -6.401722    6.587811   -6.551181
  44 H     1.0000    0     1.008  -10.093653    7.452510   -5.329119
  45 C     6.0000    0    12.011   -9.328668    9.356492   -8.833985
  46 C     6.0000    0    12.011  -13.308603    7.451460  -10.608987
  47 C     6.0000    0    12.011  -12.088059    9.808037   -9.500785
  48 C     6.0000    0    12.011    7.041786    5.138968   -4.191128
  49 C     6.0000    0    12.011    6.479225    7.118840   -6.200714
  50 N     7.0000    0    14.007    5.535062    2.972847   -4.991849
  51 H     1.0000    0     1.008    6.226671    5.828975   -2.414186
  52 C     6.0000    0    12.011    9.840935    4.792506   -3.810282
  53 N     7.0000    0    14.007    3.776716    6.827005   -6.658349
  54 H     1.0000    0     1.008    7.489827    6.559779   -7.924592
  55 C     6.0000    0    12.011    7.433771    9.684519   -5.406831
  56 C     6.0000    0    12.011   10.965413    7.355334   -3.071774
  57 C     6.0000    0    12.011   10.277363    9.473604   -4.914814
  58 H     1.0000    0     1.008    0.672794   -0.362953    1.870621
  59 H     1.0000    0     1.008    6.479724    2.039232   -6.368981
  60 H     1.0000    0     1.008    2.833199    3.121745   -7.872949
  61 H     1.0000    0     1.008    2.826907    7.887477   -5.374686
  62 H     1.0000    0     1.008   -4.296418   -9.088450   -4.331232
  63 H     1.0000    0     1.008  -15.312127    7.780597  -10.967787
  64 H     1.0000    0     1.008  -12.450348    7.033858  -12.442232
  65 H     1.0000    0     1.008  -12.246468   11.384785  -10.819291
  66 H     1.0000    0     1.008  -13.117854   10.366077   -7.797778
  67 H     1.0000    0     1.008   -8.516065   11.019129   -7.926365
  68 H     1.0000    0     1.008   -8.216655    9.019090  -10.538976
  69 H     1.0000    0     1.008  -13.782572    3.487020   -9.730472
  70 H     1.0000    0     1.008  -14.000457    5.480960   -7.100368
  71 H     1.0000    0     1.008    7.051080   11.114092   -6.840919
  72 H     1.0000    0     1.008    6.457207   10.278898   -3.682145
  73 H     1.0000    0     1.008   11.006905   11.267375   -4.207577
  74 H     1.0000    0     1.008   11.232168    9.133079   -6.715185
  75 H     1.0000    0     1.008   13.016349    7.208765   -2.921968
  76 H     1.0000    0     1.008   10.285833    7.854789   -1.185049
  77 H     1.0000    0     1.008   10.707724    4.119599   -5.563682
  78 H     1.0000    0     1.008   10.236543    3.382335   -2.361481
  79 H     1.0000    0     1.008   -3.780374   -5.673722    7.093287
  80 H     1.0000    0     1.008   -7.019458   -5.161353    7.502186
  81 H     1.0000    0     1.008   -3.506618    1.809672    8.326643
  82 H     1.0000    0     1.008   -0.256759    1.299418    7.986176
  83 H     1.0000    0     1.008   -1.897199   -0.692947   11.943047
  84 H     1.0000    0     1.008   -0.615693   -2.940029    9.884642
  85 H     1.0000    0     1.008   -4.649993   -4.527333   11.546568
  86 H     1.0000    0     1.008   -6.205845   -1.771839   10.592400

--------------------------------
INTERNAL COORDINATES (ANGSTROEM)
--------------------------------
 C      0   0   0     0.000000000000     0.00000000     0.00000000
 C      1   0   0     1.461126596855     0.00000000     0.00000000
 C      1   2   0     1.396976346784   122.06386468     0.00000000
 C      3   1   2     1.387023598329   120.30063406   186.45522336
 H      3   1   2     1.082399059889   118.94369838     4.87190671
 C      4   3   1     1.397718154203   120.05175097     1.78649343
 C      6   4   3     1.386529812886   120.35022061   357.98001435
 H      6   4   3     1.082417807614   118.64250047   177.20700054
 C      1   2   3     1.388432068394   118.70832317   185.89750585
 C      7   6   4     1.463146295520   120.13107586   174.11518153
 H      9   1   2     1.081642563438   120.35456697   355.22005350
 C      4   3   1     1.470371414167   119.27554083   179.86106519
 H     10   7   6     1.098732341615   115.18685905   347.90786839
 H      2   1   3     1.097346971038   115.00358716   184.50435920
 C      2   1   3     4.068129191005    87.31180902   101.01241774
 C     15   2   1     1.460978975526    58.49052341   220.65058061
 C     15   2   1     1.393015449975    73.24059270    76.38460951
 C     17  15   2     1.388882522590   120.58656515   223.99190252
 H     17  15   2     1.081465086392   118.67086974    40.19757967
 C     18  17  15     1.397581317990   119.46033808   357.08132393
 C     20  18  17     1.388186335474   120.55772912   359.85578664
 H     20  18  17     1.081719474209   118.66966838   178.89723832
 C     21  20  18     1.390965566494   119.19246986     3.11479866
 C     21  20  18     1.509679869077   119.56155362   182.76626626
 H     23  21  20     1.081627528750   118.31063838   176.09110237
 C     18  17  15     1.458965222459   118.08910910   171.79631252
 H     26  18  17     1.098301000777   114.73231989    10.75975770
 C     16  15   2     2.332203374058   155.18128117   317.56038199
 C     28  16  15     1.546002564651   121.61411520    49.03920972
 N     16  15   2     1.270041837988   123.13152782   305.43189138
 H     28  16  15     1.100104271682    83.13581195   155.35910934
 C     28  16  15     1.523930331251   120.75051845   263.22168959
 N      2   1   3     1.270281764221   123.24583558     9.12509255
 H     29  28  16     1.099545771827   106.11107363   271.47971926
 C     29  28  16     1.519663494633   110.39892690   153.19331482
 C     32  28  16     1.521240122790   111.39033183   206.47868125
 C     35  29  28     1.521442163170   111.33569764    57.00676881
 O     12   4   3     1.214576505471   125.13453612   180.56308856
 C     10   7   6     2.330396700132   155.02273214   183.94503139
 C     39  10   7     1.545205793465   120.87583769    50.37880088
 N     10   7   6     1.268512383758   122.88698237   171.78582135
 H     39  10   7     1.099629366172    82.92941884   156.57141689
 C     39  10   7     1.523591966450   121.35036622   264.34521353
 N     26  18  17     1.270768845242   123.87185365   195.08643713
 H     40  39  10     1.100115756958   106.11779205   271.10943863
 C     40  39  10     1.519480064094   110.38435558   152.90029357
 C     43  39  10     1.521260427828   111.13166840   206.60864217
 C     46  40  39     1.521120244587   111.41159884    56.52806810
 C     24  21  20     2.318959478363   116.67336937   134.60358975
 C     49  24  21     1.522228931894    71.77158466   238.06939420
 N     49  24  21     1.459171763998    38.17088270    93.73932878
 H     49  24  21     1.097075797582    96.38349022   343.93378425
 C     49  24  21     1.506094213234   152.09776349   135.97055874
 N     50  49  24     1.458663619722   103.58278139    18.55642762
 H     50  49  24     1.098042265434   107.43956482   264.26894203
 C     50  49  24     1.508305281838   111.06777215   146.22554302
 C     53  49  24     1.531685435685   107.96527249   149.76130240
 C     57  53  49     1.529795995901   113.18222953   307.30884359
 H     16  15   2     1.099636501535   115.18216199   121.64150918
 H     51  49  24     1.012446937684   108.81736396   115.64386688
 H     24  21  20     1.092446580527   108.84501949   295.92359786
 H     54  50  49     1.014382961908   108.42374226    85.99710721
 H     12   4   3     1.109597884002   114.20121727     0.49826793
 H     47  43  39     1.091077426727   109.89020572   181.44222005
 H     47  43  39     1.093718749419   109.25368199    65.12353596
 H     48  46  40     1.090886710777   110.01596267   182.28710513
 H     48  46  40     1.093761909548   109.24201839    65.84672107
 H     46  40  39     1.090729279015   108.85180496   178.90974894
 H     46  40  39     1.091876844020   108.67061585   294.46344007
 H     43  39  10     1.090782501158   108.96076165   328.92068327
 H     43  39  10     1.092010244293   108.77128311    84.78246722
 H     56  50  49     1.090507870967   111.61844977   179.60248765
 H     56  50  49     1.094962566081   109.43096801   297.90659182
 H     58  57  53     1.090930837777   109.54953849   175.58409004
 H     58  57  53     1.093355647619   108.95192741   291.35330069
 H     57  53  49     1.090960452472   110.00312865   184.35705774
 H     57  53  49     1.093620716492   108.61258390    68.58807780
 H     53  49  24     1.094583370114   109.77373473    29.88698684
 H     53  49  24     1.090171010351   111.48724474   271.45460834
 H     35  29  28     1.092026406549   108.69671922   295.22405051
 H     35  29  28     1.090608370032   109.08257944   179.48511572
 H     32  28  16     1.091922445854   108.64909944    84.61296136
 H     32  28  16     1.090808609361   108.85752486   328.89226334
 H     36  32  28     1.091183516688   109.87226362   181.62475021
 H     36  32  28     1.093766927390   109.27511849    65.25542947
 H     37  35  29     1.091139757642   110.00474697   182.11513848
 H     37  35  29     1.093877831554   109.36263094    65.66576482

---------------------------
INTERNAL COORDINATES (A.U.)
---------------------------
 C      0   0   0     0.000000000000     0.00000000     0.00000000
 C      1   0   0     2.761129115045     0.00000000     0.00000000
 C      1   2   0     2.639902710987   122.06386468     0.00000000
 C      3   1   2     2.621094742129   120.30063406   186.45522336
 H      3   1   2     2.045437790805   118.94369838     4.87190671
 C      4   3   1     2.641304523854   120.05175097     1.78649343
 C      6   4   3     2.620161622871   120.35022061   357.98001435
 H      6   4   3     2.045473218869   118.64250047   177.20700054
 C      1   2   3     2.623756364819   118.70832317   185.89750585
 C      7   6   4     2.764945792395   120.13107586   174.11518153
 H      9   1   2     2.044008219690   120.35456697   355.22005350
 C      4   3   1     2.778599287923   119.27554083   179.86106519
 H     10   7   6     2.076303220134   115.18685905   347.90786839
 H      2   1   3     2.073685249150   115.00358716   184.50435920
 C      2   1   3     7.687650048411    87.31180902   101.01241774
 C     15   2   1     2.760850151160    58.49052341   220.65058061
 C     15   2   1     2.632417700774    73.24059270    76.38460951
 C     17  15   2     2.624607599885   120.58656515   223.99190252
 H     17  15   2     2.043672836679   118.67086974    40.19757967
 C     18  17  15     2.641045940886   119.46033808   357.08132393
 C     20  18  17     2.623291996897   120.55772912   359.85578664
 H     20  18  17     2.044153559985   118.66966838   178.89723832
 C     21  20  18     2.628543982388   119.19246986     3.11479866
 C     21  20  18     2.852881502450   119.56155362   182.76626626
 H     23  21  20     2.043979808248   118.31063838   176.09110237
 C     18  17  15     2.757044709363   118.08910910   171.79631252
 H     26  18  17     2.075488104081   114.73231989    10.75975770
 C     16  15   2     4.407225665576   155.18128117   317.56038199
 C     28  16  15     2.921521449530   121.61411520    49.03920972
 N     16  15   2     2.400031252419   123.13152782   305.43189138
 H     28  16  15     2.078895792236    83.13581195   155.35910934
 C     28  16  15     2.879810973240   120.75051845   263.22168959
 N      2   1   3     2.400484647291   123.24583558     9.12509255
 H     29  28  16     2.077840380464   106.11107363   271.47971926
 C     29  28  16     2.871747820575   110.39892690   153.19331482
 C     32  28  16     2.874727216006   111.39033183   206.47868125
 C     35  29  28     2.875109016992   111.33569764    57.00676881
 O     12   4   3     2.295216964035   125.13453612   180.56308856
 C     10   7   6     4.403811546643   155.02273214   183.94503139
 C     39  10   7     2.920015770197   120.87583769    50.37880088
 N     10   7   6     2.397141002790   122.88698237   171.78582135
 H     39  10   7     2.077998350883    82.92941884   156.57141689
 C     39  10   7     2.879171556433   121.35036622   264.34521353
 N     26  18  17     2.401405097027   123.87185365   195.08643713
 H     40  39  10     2.078917496262   106.11779205   271.10943863
 C     40  39  10     2.871401187091   110.38435558   152.90029357
 C     43  39  10     2.874765586968   111.13166840   206.60864217
 C     46  40  39     2.874500679033   111.41159884    56.52806810
 C     24  21  20     4.382198329767   116.67336937   134.60358975
 C     49  24  21     2.876595794412    71.77158466   238.06939420
 N     49  24  21     2.757435016307    38.17088270    93.73932878
 H     49  24  21     2.073172805583    96.38349022   343.93378425
 C     49  24  21     2.846105594896   152.09776349   135.97055874
 N     50  49  24     2.756474762789   103.58278139    18.55642762
 H     50  49  24     2.074999165140   107.43956482   264.26894203
 C     50  49  24     2.850283909021   111.06777215   146.22554302
 C     53  49  24     2.894465996761   107.96527249   149.76130240
 C     57  53  49     2.890895473022   113.18222953   307.30884359
 H     16  15   2     2.078011834764   115.18216199   121.64150918
 H     51  49  24     1.913247437350   108.81736396   115.64386688
 H     24  21  20     2.064424853135   108.84501949   295.92359786
 H     54  50  49     1.916905992922   108.42374226    85.99710721
 H     12   4   3     2.096836119542   114.20121727     0.49826793
 H     47  43  39     2.061837527418   109.89020572   181.44222005
 H     47  43  39     2.066828903937   109.25368199    65.12353596
 H     48  46  40     2.061477126502   110.01596267   182.28710513
 H     48  46  40     2.066910464761   109.24201839    65.84672107
 H     46  40  39     2.061179623588   108.85180496   178.90974894
 H     46  40  39     2.063348207168   108.67061585   294.46344007
 H     43  39  10     2.061280198863   108.96076165   328.92068327
 H     43  39  10     2.063600297151   108.77128311    84.78246722
 H     56  50  49     2.060761223013   111.61844977   179.60248765
 H     56  50  49     2.069179376788   109.43096801   297.90659182
 H     58  57  53     2.061560514448   109.54953849   175.58409004
 H     58  57  53     2.066142740976   108.95192741   291.35330069
 H     57  53  49     2.061616478112   110.00312865   184.35705774
 H     57  53  49     2.066643648553   108.61258390    68.58807780
 H     53  49  24     2.068462800260   109.77373473    29.88698684
 H     53  49  24     2.060124648703   111.48724474   271.45460834
 H     35  29  28     2.063630839388   108.69671922   295.22405051
 H     35  29  28     2.060951138722   109.08257944   179.48511572
 H     32  28  16     2.063434382145   108.64909944    84.61296136
 H     32  28  16     2.061329536216   108.85752486   328.89226334
 H     36  32  28     2.062038008390   109.87226362   181.62475021
 H     36  32  28     2.066919947108   109.27511849    65.25542947
 H     37  35  29     2.061955315777   110.00474697   182.11513848
 H     37  35  29     2.067129525604   109.36263094    65.66576482

---------------------
BASIS SET INFORMATION
---------------------
There are 4 groups of distinct atoms

 Group   1 Type C   : 18s5p2d1f contracted to 4s3p2d1f pattern {8811/311/11/1}
 Group   2 Type H   : 5s2p1d contracted to 3s2p1d pattern {311/11/1}
 Group   3 Type N   : 18s5p2d1f contracted to 4s3p2d1f pattern {8811/311/11/1}
 Group   4 Type O   : 18s5p2d1f contracted to 4s3p2d1f pattern {8811/311/11/1}

Atom   0C    basis set group =>   1
Atom   1C    basis set group =>   1
Atom   2C    basis set group =>   1
Atom   3C    basis set group =>   1
Atom   4H    basis set group =>   2
Atom   5C    basis set group =>   1
Atom   6C    basis set group =>   1
Atom   7H    basis set group =>   2
Atom   8C    basis set group =>   1
Atom   9C    basis set group =>   1
Atom  10H    basis set group =>   2
Atom  11C    basis set group =>   1
Atom  12H    basis set group =>   2
Atom  13H    basis set group =>   2
Atom  14C    basis set group =>   1
Atom  15C    basis set group =>   1
Atom  16C    basis set group =>   1
Atom  17C    basis set group =>   1
Atom  18H    basis set group =>   2
Atom  19C    basis set group =>   1
Atom  20C    basis set group =>   1
Atom  21H    basis set group =>   2
Atom  22C    basis set group =>   1
Atom  23C    basis set group =>   1
Atom  24H    basis set group =>   2
Atom  25C    basis set group =>   1
Atom  26H    basis set group =>   2
Atom  27C    basis set group =>   1
Atom  28C    basis set group =>   1
Atom  29N    basis set group =>   3
Atom  30H    basis set group =>   2
Atom  31C    basis set group =>   1
Atom  32N    basis set group =>   3
Atom  33H    basis set group =>   2
Atom  34C    basis set group =>   1
Atom  35C    basis set group =>   1
Atom  36C    basis set group =>   1
Atom  37O    basis set group =>   4
Atom  38C    basis set group =>   1
Atom  39C    basis set group =>   1
Atom  40N    basis set group =>   3
Atom  41H    basis set group =>   2
Atom  42C    basis set group =>   1
Atom  43N    basis set group =>   3
Atom  44H    basis set group =>   2
Atom  45C    basis set group =>   1
Atom  46C    basis set group =>   1
Atom  47C    basis set group =>   1
Atom  48C    basis set group =>   1
Atom  49C    basis set group =>   1
Atom  50N    basis set group =>   3
Atom  51H    basis set group =>   2
Atom  52C    basis set group =>   1
Atom  53N    basis set group =>   3
Atom  54H    basis set group =>   2
Atom  55C    basis set group =>   1
Atom  56C    basis set group =>   1
Atom  57C    basis set group =>   1
Atom  58H    basis set group =>   2
Atom  59H    basis set group =>   2
Atom  60H    basis set group =>   2
Atom  61H    basis set group =>   2
Atom  62H    basis set group =>   2
Atom  63H    basis set group =>   2
Atom  64H    basis set group =>   2
Atom  65H    basis set group =>   2
Atom  66H    basis set group =>   2
Atom  67H    basis set group =>   2
Atom  68H    basis set group =>   2
Atom  69H    basis set group =>   2
Atom  70H    basis set group =>   2
Atom  71H    basis set group =>   2
Atom  72H    basis set group =>   2
Atom  73H    basis set group =>   2
Atom  74H    basis set group =>   2
Atom  75H    basis set group =>   2
Atom  76H    basis set group =>   2
Atom  77H    basis set group =>   2
Atom  78H    basis set group =>   2
Atom  79H    basis set group =>   2
Atom  80H    basis set group =>   2
Atom  81H    basis set group =>   2
Atom  82H    basis set group =>   2
Atom  83H    basis set group =>   2
Atom  84H    basis set group =>   2
Atom  85H    basis set group =>   2
Atom  86H    basis set group =>   2

-------------------------
BASIS SET IN INPUT FORMAT
-------------------------

 # Basis set for element : H 
 NewGTO H 
 S 3 
   1      33.8700000000      0.0254948632
   2       5.0950000000      0.1903627659
   3       1.1590000000      0.8521620222
 S 1 
   1       0.3258000000      1.0000000000
 S 1 
   1       0.1027000000      1.0000000000
 P 1 
   1       1.4070000000      1.0000000000
 P 1 
   1       0.3880000000      1.0000000000
 D 1 
   1       1.0570000000      1.0000000000
  end;

 # Basis set for element : C 
 NewGTO C 
 S 8 
   1    8236.0000000000      0.0005424302
   2    1235.0000000000      0.0041964279
   3     280.8000000000      0.0215409141
   4      79.2700000000      0.0836149496
   5      25.5900000000      0.2398716189
   6       8.9970000000      0.4437518201
   7       3.3190000000      0.3535796965
   8       0.3643000000     -0.0091763661
 S 8 
   1    8236.0000000000     -0.0001963922
   2    1235.0000000000     -0.0015259503
   3     280.8000000000     -0.0078904490
   4      79.2700000000     -0.0315148705
   5      25.5900000000     -0.0969100083
   6       8.9970000000     -0.2205415263
   7       3.3190000000     -0.2960691129
   8       0.3643000000      1.0405034329
 S 1 
   1       0.9059000000      1.0000000000
 S 1 
   1       0.1285000000      1.0000000000
 P 3 
   1      18.7100000000      0.0394263872
   2       4.1330000000      0.2440889849
   3       1.2000000000      0.8154920089
 P 1 
   1       0.3827000000      1.0000000000
 P 1 
   1       0.1209000000      1.0000000000
 D 1 
   1       1.0970000000      1.0000000000
 D 1 
   1       0.3180000000      1.0000000000
 F 1 
   1       0.7610000000      1.0000000000
  end;

 # Basis set for element : N 
 NewGTO N 
 S 8 
   1   11420.0000000000      0.0005349809
   2    1712.0000000000      0.0041376631
   3     389.3000000000      0.0212509149
   4     110.0000000000      0.0825762988
   5      35.5700000000      0.2384132727
   6      12.5400000000      0.4434316661
   7       4.6440000000      0.3554319088
   8       0.5118000000     -0.0087029018
 S 8 
   1   11420.0000000000     -0.0001987770
   2    1712.0000000000     -0.0015470035
   3     389.3000000000     -0.0079925633
   4     110.0000000000     -0.0320255651
   5      35.5700000000     -0.0991102048
   6      12.5400000000     -0.2282927747
   7       4.6440000000     -0.2981827627
   8       0.5118000000      1.0370005182
 S 1 
   1       1.2930000000      1.0000000000
 S 1 
   1       0.1787000000      1.0000000000
 P 3 
   1      26.6300000000      0.0398072123
   2       5.9480000000      0.2490026605
   3       1.7420000000      0.8104797267
 P 1 
   1       0.5550000000      1.0000000000
 P 1 
   1       0.1725000000      1.0000000000
 D 1 
   1       1.6540000000      1.0000000000
 D 1 
   1       0.4690000000      1.0000000000
 F 1 
   1       1.0930000000      1.0000000000
  end;

 # Basis set for element : O 
 NewGTO O 
 S 8 
   1   15330.0000000000      0.0005201983
   2    2299.0000000000      0.0040233448
   3     522.4000000000      0.0207290833
   4     147.3000000000      0.0810823271
   5      47.5500000000      0.2362263521
   6      16.7600000000      0.4435182094
   7       6.2070000000      0.3586705887
   8       0.6882000000     -0.0083497972
 S 8 
   1   15330.0000000000     -0.0001972360
   2    2299.0000000000     -0.0015350107
   3     522.4000000000     -0.0079511839
   4     147.3000000000     -0.0321134529
   5      47.5500000000     -0.1002696430
   6      16.7600000000     -0.2340471118
   7       6.2070000000     -0.3014109278
   8       0.6882000000      1.0349196495
 S 1 
   1       1.7520000000      1.0000000000
 S 1 
   1       0.2384000000      1.0000000000
 P 3 
   1      34.4600000000      0.0411634896
   2       7.7490000000      0.2577628359
   3       2.2800000000      0.8024192744
 P 1 
   1       0.7156000000      1.0000000000
 P 1 
   1       0.2140000000      1.0000000000
 D 1 
   1       2.3140000000      1.0000000000
 D 1 
   1       0.6450000000      1.0000000000
 F 1 
   1       1.4280000000      1.0000000000
  end;

---------------------------------
AUXILIARY/C BASIS SET INFORMATION
---------------------------------
There are 4 groups of distinct atoms

 Group   1 Type C   : 8s6p5d3f1g contracted to 8s6p5d3f1g pattern {11111111/111111/11111/111/1}
 Group   2 Type H   : 4s3p2d1f contracted to 4s3p2d1f pattern {1111/111/11/1}
 Group   3 Type N   : 8s6p5d3f1g contracted to 8s6p5d3f1g pattern {11111111/111111/11111/111/1}
 Group   4 Type O   : 8s6p5d3f1g contracted to 8s6p5d3f1g pattern {11111111/111111/11111/111/1}

Atom   0C    basis set group =>   1
Atom   1C    basis set group =>   1
Atom   2C    basis set group =>   1
Atom   3C    basis set group =>   1
Atom   4H    basis set group =>   2
Atom   5C    basis set group =>   1
Atom   6C    basis set group =>   1
Atom   7H    basis set group =>   2
Atom   8C    basis set group =>   1
Atom   9C    basis set group =>   1
Atom  10H    basis set group =>   2
Atom  11C    basis set group =>   1
Atom  12H    basis set group =>   2
Atom  13H    basis set group =>   2
Atom  14C    basis set group =>   1
Atom  15C    basis set group =>   1
Atom  16C    basis set group =>   1
Atom  17C    basis set group =>   1
Atom  18H    basis set group =>   2
Atom  19C    basis set group =>   1
Atom  20C    basis set group =>   1
Atom  21H    basis set group =>   2
Atom  22C    basis set group =>   1
Atom  23C    basis set group =>   1
Atom  24H    basis set group =>   2
Atom  25C    basis set group =>   1
Atom  26H    basis set group =>   2
Atom  27C    basis set group =>   1
Atom  28C    basis set group =>   1
Atom  29N    basis set group =>   3
Atom  30H    basis set group =>   2
Atom  31C    basis set group =>   1
Atom  32N    basis set group =>   3
Atom  33H    basis set group =>   2
Atom  34C    basis set group =>   1
Atom  35C    basis set group =>   1
Atom  36C    basis set group =>   1
Atom  37O    basis set group =>   4
Atom  38C    basis set group =>   1
Atom  39C    basis set group =>   1
Atom  40N    basis set group =>   3
Atom  41H    basis set group =>   2
Atom  42C    basis set group =>   1
Atom  43N    basis set group =>   3
Atom  44H    basis set group =>   2
Atom  45C    basis set group =>   1
Atom  46C    basis set group =>   1
Atom  47C    basis set group =>   1
Atom  48C    basis set group =>   1
Atom  49C    basis set group =>   1
Atom  50N    basis set group =>   3
Atom  51H    basis set group =>   2
Atom  52C    basis set group =>   1
Atom  53N    basis set group =>   3
Atom  54H    basis set group =>   2
Atom  55C    basis set group =>   1
Atom  56C    basis set group =>   1
Atom  57C    basis set group =>   1
Atom  58H    basis set group =>   2
Atom  59H    basis set group =>   2
Atom  60H    basis set group =>   2
Atom  61H    basis set group =>   2
Atom  62H    basis set group =>   2
Atom  63H    basis set group =>   2
Atom  64H    basis set group =>   2
Atom  65H    basis set group =>   2
Atom  66H    basis set group =>   2
Atom  67H    basis set group =>   2
Atom  68H    basis set group =>   2
Atom  69H    basis set group =>   2
Atom  70H    basis set group =>   2
Atom  71H    basis set group =>   2
Atom  72H    basis set group =>   2
Atom  73H    basis set group =>   2
Atom  74H    basis set group =>   2
Atom  75H    basis set group =>   2
Atom  76H    basis set group =>   2
Atom  77H    basis set group =>   2
Atom  78H    basis set group =>   2
Atom  79H    basis set group =>   2
Atom  80H    basis set group =>   2
Atom  81H    basis set group =>   2
Atom  82H    basis set group =>   2
Atom  83H    basis set group =>   2
Atom  84H    basis set group =>   2
Atom  85H    basis set group =>   2
Atom  86H    basis set group =>   2

-------------------------------------
AUXILIARY/C BASIS SET IN INPUT FORMAT
-------------------------------------

 # Auxiliary/C basis set for element : H 
 NewAuxCGTO H 
 S 1 
   1       8.5128275910      1.0000000000
 S 1 
   1       1.8730891166      1.0000000000
 S 1 
   1       0.5261842694      1.0000000000
 S 1 
   1       0.2897398994      1.0000000000
 P 1 
   1       2.3725491635      1.0000000000
 P 1 
   1       1.1804084468      1.0000000000
 P 1 
   1       0.6038220424      1.0000000000
 D 1 
   1       1.8096373189      1.0000000000
 D 1 
   1       1.1439726055      1.0000000000
 F 1 
   1       1.8063060576      1.0000000000
  end;

 # Auxiliary/C basis set for element : C 
 NewAuxCGTO C 
 S 1 
   1     280.5566118800      1.0000000000
 S 1 
   1      60.2302471910      1.0000000000
 S 1 
   1      22.1166508240      1.0000000000
 S 1 
   1       6.8620932896      1.0000000000
 S 1 
   1       1.5622549539      1.0000000000
 S 1 
   1       0.9124504549      1.0000000000
 S 1 
   1       0.5027491704      1.0000000000
 S 1 
   1       0.2158234875      1.0000000000
 P 1 
   1      24.2318651760      1.0000000000
 P 1 
   1       6.4764514185      1.0000000000
 P 1 
   1       2.1290884677      1.0000000000
 P 1 
   1       1.0375639746      1.0000000000
 P 1 
   1       0.5494127505      1.0000000000
 P 1 
   1       0.2815265223      1.0000000000
 D 1 
   1       9.7189810815      1.0000000000
 D 1 
   1       3.0351475003      1.0000000000
 D 1 
   1       1.4677737562      1.0000000000
 D 1 
   1       0.5737082791      1.0000000000
 D 1 
   1       0.2905558967      1.0000000000
 F 1 
   1       2.2756201303      1.0000000000
 F 1 
   1       1.1968898852      1.0000000000
 F 1 
   1       0.5415748722      1.0000000000
 G 1 
   1       1.2166101638      1.0000000000
  end;

 # Auxiliary/C basis set for element : N 
 NewAuxCGTO N 
 S 1 
   1     287.5092694700      1.0000000000
 S 1 
   1      64.2760308980      1.0000000000
 S 1 
   1      21.6819240160      1.0000000000
 S 1 
   1       7.9068743193      1.0000000000
 S 1 
   1       2.4319673913      1.0000000000
 S 1 
   1       1.2226681474      1.0000000000
 S 1 
   1       0.7667482736      1.0000000000
 S 1 
   1       0.3115884699      1.0000000000
 P 1 
   1      34.9650273710      1.0000000000
 P 1 
   1      10.3238966480      1.0000000000
 P 1 
   1       2.8981582643      1.0000000000
 P 1 
   1       1.4077404555      1.0000000000
 P 1 
   1       0.8508338654      1.0000000000
 P 1 
   1       0.3735327414      1.0000000000
 D 1 
   1      13.9086370890      1.0000000000
 D 1 
   1       4.5847232531      1.0000000000
 D 1 
   1       2.2101848651      1.0000000000
 D 1 
   1       0.8376830121      1.0000000000
 D 1 
   1       0.4194837561      1.0000000000
 F 1 
   1       3.4730665788      1.0000000000
 F 1 
   1       1.5589463548      1.0000000000
 F 1 
   1       0.8467763824      1.0000000000
 G 1 
   1       1.7764066281      1.0000000000
  end;

 # Auxiliary/C basis set for element : O 
 NewAuxCGTO O 
 S 1 
   1     366.5453150300      1.0000000000
 S 1 
   1      76.6933148580      1.0000000000
 S 1 
   1      24.5738350910      1.0000000000
 S 1 
   1       8.4165585072      1.0000000000
 S 1 
   1       3.0202080356      1.0000000000
 S 1 
   1       1.3331563617      1.0000000000
 S 1 
   1       0.8125065873      1.0000000000
 S 1 
   1       0.3650525366      1.0000000000
 P 1 
   1      52.8543864230      1.0000000000
 P 1 
   1      15.0217958240      1.0000000000
 P 1 
   1       3.9137719482      1.0000000000
 P 1 
   1       2.1678840611      1.0000000000
 P 1 
   1       0.9741924398      1.0000000000
 P 1 
   1       0.5184561541      1.0000000000
 D 1 
   1      15.9077331320      1.0000000000
 D 1 
   1       5.3799329215      1.0000000000
 D 1 
   1       2.9552623921      1.0000000000
 D 1 
   1       1.1624458997      1.0000000000
 D 1 
   1       0.5035339942      1.0000000000
 F 1 
   1       4.6873846701      1.0000000000
 F 1 
   1       2.1512789489      1.0000000000
 F 1 
   1       1.0894068169      1.0000000000
 G 1 
   1       2.3270964878      1.0000000000
  end;



           ************************************************************
           *        Program running with 32 parallel MPI-processes    *
           *              working on a common directory               *
           ************************************************************
------------------------------------------------------------------------------
                           ORCA GTO INTEGRAL CALCULATION
------------------------------------------------------------------------------

                         BASIS SET STATISTICS AND STARTUP INFO

 # of primitive gaussian shells          ... 1470
 # of primitive gaussian functions       ... 2854
 # of contracted shells                  ...  694
 # of contracted basis functions         ... 1906
 Highest angular momentum                ...    3
 Maximum contraction depth               ...    8
 Integral package used                   ... LIBINT
 Integral threshhold            Thresh   ...  2.500e-11
 Primitive cut-off              TCut     ...  2.500e-12


------------------------------ INTEGRAL EVALUATION ----------------------------


 * One electron integrals 
 Pre-screening matrix                    ... done
 Shell pair data                         ... done (   0.038 sec)



           ************************************************************
           *        Program running with 32 parallel MPI-processes    *
           *              working on a common directory               *
           ************************************************************
-------------------------------------------------------------------------------
                                 ORCA SCF
-------------------------------------------------------------------------------

------------
SCF SETTINGS
------------
Hamiltonian:
 Ab initio Hamiltonian  Method          .... Hartree-Fock(GTOs)


General Settings:
 Integral files         IntName         .... _o_2_alde1_3_ami3_1_opt_MP2
 Hartree-Fock type      HFTyp           .... RHF
 Total Charge           Charge          ....    0
 Multiplicity           Mult            ....    1
 Number of Electrons    NEL             ....  310
 Basis Dimension        Dim             .... 1906
 Nuclear Repulsion      ENuc            ....   5003.8305167946 Eh

Convergence Acceleration:
 DIIS                   CNVDIIS         .... on
   Start iteration      DIISMaxIt       ....     0
   Startup error        DIISStart       ....  0.200000
   # of expansion vecs  DIISMaxEq       ....     5
   Bias factor          DIISBfac        ....   1.050
   Max. coefficient     DIISMaxC        ....  10.000
 Newton-Raphson         CNVNR           .... off
 SOSCF                  CNVSOSCF        .... on
   Start iteration      SOSCFMaxIt      ....   150
   Startup grad/error   SOSCFStart      ....  0.001000
 Level Shifting         CNVShift        .... on
   Level shift para.    LevelShift      ....    0.2500
   Turn off err/grad.   ShiftErr        ....    0.0000
 Zerner damping         CNVZerner       .... off
 Static damping         CNVDamp         .... on
   Fraction old density DampFac         ....    0.8500
   Max. Damping (<1)    DampMax         ....    0.9800
   Min. Damping (>=0)   DampMin         ....    0.0000
   Turn off err/grad.   DampErr         ....    0.0300
 Fernandez-Rico         CNVRico         .... off

SCF Procedure:
 Maximum # iterations   MaxIter         ....   125
 SCF integral mode      SCFMode         .... Direct
   Integral package                     .... LIBINT
 Reset frequency        DirectResetFreq ....    20
 Integral Threshold     Thresh          ....  2.500e-11 Eh
 Primitive CutOff       TCut            ....  2.500e-12 Eh

Convergence Tolerance:
 Convergence Check Mode ConvCheckMode   .... Total+1el-Energy
 Convergence forced     ConvForced      .... 1
 Energy Change          TolE            ....  1.000e-08 Eh
 1-El. energy change                    ....  1.000e-05 Eh
 Orbital Gradient       TolG            ....  1.000e-05
 Orbital Rotation angle TolX            ....  1.000e-05
 DIIS Error             TolErr          ....  5.000e-07


Diagonalization of the overlap matrix:
Smallest eigenvalue                        ... 2.121e-05
Time for diagonalization                   ...    0.957 sec
Threshold for overlap eigenvalues          ... 1.000e-08
Number of eigenvalues below threshold      ... 0
Time for construction of square roots      ...    0.408 sec
Total time needed                          ...    1.372 sec

-------------------
DFT GRID GENERATION
-------------------

General Integration Accuracy     IntAcc      ...  5.340
Radial Grid Type                 RadialGrid  ... Gauss-Chebyshev
Angular Grid (max. acc.)         AngularGrid ... Lebedev-590
Angular grid pruning method      GridPruning ... 3 (G Style)
Weight generation scheme         WeightScheme... Becke
Basis function cutoff            BFCut       ...    1.0000e-11
Integration weight cutoff        WCut        ...    1.0000e-14
Grids for H and He will be reduced by one unit

# of grid points (after initial pruning)     ... 1193812 (   0.0 sec)
# of grid points (after weights+screening)   ... 994926 (   1.5 sec)
nearest neighbour list constructed           ...    0.0 sec
Grid point re-assignment to atoms done       ...    0.1 sec
Grid point division into batches done        ...    9.8 sec
Reduced shell lists constructed in   10.6 sec

Total number of grid points                  ...   994926
Total number of batches                      ...    15590
Average number of points per batch           ...       63
Average number of grid points per atom       ...    11436
Average number of shells per batch           ...   206.69 (29.78%)
Average number of basis functions per batch  ...   503.81 (26.43%)
Average number of large shells per batch     ...   117.68 (56.93%)
Average number of large basis fcns per batch ...   298.71 (59.29%)
Maximum spatial batch extension              ...  14.19,  9.37,  7.19 au
Average spatial batch extension              ...   0.03,  0.03,  0.03 au

Time for grid setup =   12.549 sec

------------------------------
INITIAL GUESS: MODEL POTENTIAL
------------------------------
Loading Hartree-Fock densities                     ... done
Calculating cut-offs                               ... done
Setting up the integral package                    ... done
Initializing the effective Hamiltonian             ... done
Starting the Coulomb interaction                   ... done (   0.6 sec)
Reading the grid                                   ... done
Mapping shells                                     ... done
Starting the XC term evaluation                    ... done (   0.7 sec)
Transforming the Hamiltonian                       ... done (   0.3 sec)
Diagonalizing the Hamiltonian                      ... done (   0.5 sec)
Back transforming the eigenvectors                 ... done (   0.2 sec)
Now organizing SCF variables                       ... done
                      ------------------
                      INITIAL GUESS DONE (  15.0 sec)
                      ------------------
--------------
SCF ITERATIONS
--------------
ITER       Energy         Delta-E        Max-DP      RMS-DP      [F,P]     Damp
               ***  Starting incremental Fock matrix formation  ***
  0  -1789.1622486110   0.000000000000 0.04936129  0.00018535  0.3049011 0.8500
  1  -1789.4831826594  -0.320934048460 0.05937533  0.00020616  0.2445875 0.8500
                               ***Turning on DIIS***
  2  -1789.7405993481  -0.257416688725 0.04904783  0.00017539  0.1907149 0.8500
  3  -1796.0864543451  -6.345854996948 0.02926876  0.00012063  0.1486715 0.8500
  4  -1798.7723122471  -2.685857901960 0.01614768  0.00008565  0.1218469 0.8500
  5  -1798.7310601090   0.041252138038 0.00950531  0.00006745  0.1033965 0.8500
  6  -1797.9654182943   0.765641814693 0.00612127  0.00005625  0.0885844 0.8500
  7  -1796.7203404649   1.245077829446 0.00523530  0.00004830  0.0759315 0.8500
  8  -1795.7148899681   1.005450496779 0.00446225  0.00004151  0.0645496 0.8500
  9  -1794.9502797119   0.764610256218 0.00379587  0.00003551  0.0547136 0.8500
 10  -1794.3393540584   0.610925653443 0.00322757  0.00003032  0.0464369 0.8500
 11  -1793.8298395093   0.509514549100 0.00274491  0.00002590  0.0394712 0.8500
 12  -1793.3956253478   0.434214161537 0.00233521  0.00002213  0.0335597 0.8500
 13  -1793.0257049673   0.369920380463 0.01324587  0.00012621  0.0285130 0.0000
 14  -1790.9860146918   2.039690275521 0.00348751  0.00000934  0.0011436 0.0000
                      *** Initiating the SOSCF procedure ***
                           *** Shutting down DIIS ***
                      *** Re-Reading the Fockian *** 
                      *** Removing any level shift *** 
ITER      Energy       Delta-E        Grad      Rot      Max-DP    RMS-DP
 15  -1790.99734531  -0.0113306144  0.000175  0.000175  0.001926  0.000005
               *** Restarting incremental Fock matrix formation ***
 16  -1790.98550765   0.0118376599  0.000093  0.000235  0.001727  0.000004
 17  -1790.98551072  -0.0000030739  0.000062  0.000340  0.001542  0.000004
 18  -1790.98551181  -0.0000010895  0.000026  0.000046  0.000077  0.000001
 19  -1790.98551190  -0.0000000901  0.000015  0.000032  0.000087  0.000000
 20  -1790.98551192  -0.0000000235  0.000007  0.000039  0.000032  0.000000
 21  -1790.98551187   0.0000000486  0.000003  0.000010  0.000018  0.000000
                  ***Gradient check signals convergence***
              ***Rediagonalizing the Fockian in SOSCF/NRSCF***

               *****************************************************
               *                     SUCCESS                       *
               *           SCF CONVERGED AFTER  22 CYCLES          *
               *****************************************************


----------------
TOTAL SCF ENERGY
----------------

Total Energy       :        -1790.98551178 Eh          -48735.19342 eV

Components:
Nuclear Repulsion  :         5003.83051679 Eh          136161.15066 eV
Electronic Energy  :        -6794.81602857 Eh         -184896.34409 eV
One Electron Energy:       -12396.91089716 Eh         -337337.09540 eV
Two Electron Energy:         5602.09486859 Eh          152440.75131 eV

Virial components:
Potential Energy   :        -3580.33281113 Eh          -97425.80882 eV
Kinetic Energy     :         1789.34729935 Eh           48690.61540 eV
Virial Ratio       :            2.00091554


---------------
SCF CONVERGENCE
---------------

  Last Energy change         ...    9.4469e-08  Tolerance :   1.0000e-08
  Last MAX-Density change    ...    5.2998e-06  Tolerance :   1.0000e-07
  Last RMS-Density change    ...    3.7804e-08  Tolerance :   5.0000e-09
  Last Orbital Gradient      ...    9.7992e-07  Tolerance :   1.0000e-05
  Last Orbital Rotation      ...    2.9718e-06  Tolerance :   1.0000e-05

             **** THE GBW FILE WAS UPDATED (_o_2_alde1_3_ami3_1_opt_MP2.gbw) ****
             **** DENSITY FILE WAS UPDATED (_o_2_alde1_3_ami3_1_opt_MP2.scfp) ****
             **** ENERGY FILE WAS UPDATED (_o_2_alde1_3_ami3_1_opt_MP2.en.tmp) ****
             **** THE GBW FILE WAS UPDATED (_o_2_alde1_3_ami3_1_opt_MP2.gbw) ****
             **** DENSITY FILE WAS UPDATED (_o_2_alde1_3_ami3_1_opt_MP2.scfp) ****
----------------
ORBITAL ENERGIES
----------------

  NO   OCC          E(Eh)            E(eV) 
   0   2.0000     -20.551963      -559.2473 
   1   2.0000     -15.554834      -423.2685 
   2   2.0000     -15.552515      -423.2054 
   3   2.0000     -15.550605      -423.1535 
   4   2.0000     -15.546967      -423.0545 
   5   2.0000     -15.546561      -423.0434 
   6   2.0000     -15.541318      -422.9008 
   7   2.0000     -11.332324      -308.3682 
   8   2.0000     -11.288401      -307.1730 
   9   2.0000     -11.282681      -307.0174 
  10   2.0000     -11.280918      -306.9694 
  11   2.0000     -11.279003      -306.9173 
  12   2.0000     -11.274517      -306.7952 
  13   2.0000     -11.259691      -306.3918 
  14   2.0000     -11.257715      -306.3380 
  15   2.0000     -11.257453      -306.3309 
  16   2.0000     -11.252012      -306.1828 
  17   2.0000     -11.252010      -306.1828 
  18   2.0000     -11.251537      -306.1699 
  19   2.0000     -11.251517      -306.1693 
  20   2.0000     -11.250799      -306.1498 
  21   2.0000     -11.250087      -306.1304 
  22   2.0000     -11.248211      -306.0794 
  23   2.0000     -11.246339      -306.0284 
  24   2.0000     -11.244440      -305.9768 
  25   2.0000     -11.240786      -305.8773 
  26   2.0000     -11.240448      -305.8681 
  27   2.0000     -11.239048      -305.8300 
  28   2.0000     -11.237838      -305.7971 
  29   2.0000     -11.236180      -305.7520 
  30   2.0000     -11.235385      -305.7304 
  31   2.0000     -11.225279      -305.4554 
  32   2.0000     -11.224393      -305.4313 
  33   2.0000     -11.224177      -305.4254 
  34   2.0000     -11.222557      -305.3813 
  35   2.0000     -11.217556      -305.2452 
  36   2.0000     -11.216783      -305.2242 
  37   2.0000     -11.216099      -305.2056 
  38   2.0000     -11.215989      -305.2026 
  39   2.0000     -11.215248      -305.1824 
  40   2.0000     -11.214824      -305.1709 
  41   2.0000     -11.213970      -305.1476 
  42   2.0000     -11.211213      -305.0726 
  43   2.0000      -1.386548       -37.7299 
  44   2.0000      -1.276953       -34.7477 
  45   2.0000      -1.257267       -34.2120 
  46   2.0000      -1.255229       -34.1565 
  47   2.0000      -1.227542       -33.4031 
  48   2.0000      -1.222215       -33.2582 
  49   2.0000      -1.178660       -32.0730 
  50   2.0000      -1.163037       -31.6479 
  51   2.0000      -1.147107       -31.2144 
  52   2.0000      -1.117045       -30.3963 
  53   2.0000      -1.116084       -30.3702 
  54   2.0000      -1.108717       -30.1697 
  55   2.0000      -1.062912       -28.9233 
  56   2.0000      -1.061157       -28.8755 
  57   2.0000      -1.050313       -28.5805 
  58   2.0000      -1.049350       -28.5543 
  59   2.0000      -1.006448       -27.3868 
  60   2.0000      -1.005300       -27.3556 
  61   2.0000      -1.001953       -27.2645 
  62   2.0000      -0.998275       -27.1644 
  63   2.0000      -0.987436       -26.8695 
  64   2.0000      -0.981127       -26.6978 
  65   2.0000      -0.901555       -24.5326 
  66   2.0000      -0.899841       -24.4859 
  67   2.0000      -0.889361       -24.2007 
  68   2.0000      -0.881238       -23.9797 
  69   2.0000      -0.878307       -23.9000 
  70   2.0000      -0.864137       -23.5144 
  71   2.0000      -0.835061       -22.7232 
  72   2.0000      -0.831371       -22.6227 
  73   2.0000      -0.824206       -22.4278 
  74   2.0000      -0.821012       -22.3409 
  75   2.0000      -0.818155       -22.2631 
  76   2.0000      -0.808899       -22.0113 
  77   2.0000      -0.783561       -21.3218 
  78   2.0000      -0.770655       -20.9706 
  79   2.0000      -0.768265       -20.9056 
  80   2.0000      -0.761896       -20.7323 
  81   2.0000      -0.756397       -20.5826 
  82   2.0000      -0.753364       -20.5001 
  83   2.0000      -0.741715       -20.1831 
  84   2.0000      -0.711937       -19.3728 
  85   2.0000      -0.699358       -19.0305 
  86   2.0000      -0.693320       -18.8662 
  87   2.0000      -0.687319       -18.7029 
  88   2.0000      -0.672495       -18.2995 
  89   2.0000      -0.669218       -18.2103 
  90   2.0000      -0.666805       -18.1447 
  91   2.0000      -0.659290       -17.9402 
  92   2.0000      -0.651104       -17.7174 
  93   2.0000      -0.644538       -17.5388 
  94   2.0000      -0.641656       -17.4604 
  95   2.0000      -0.634540       -17.2667 
  96   2.0000      -0.630280       -17.1508 
  97   2.0000      -0.629542       -17.1307 
  98   2.0000      -0.626677       -17.0527 
  99   2.0000      -0.623080       -16.9549 
 100   2.0000      -0.617611       -16.8060 
 101   2.0000      -0.607576       -16.5330 
 102   2.0000      -0.605345       -16.4723 
 103   2.0000      -0.600951       -16.3527 
 104   2.0000      -0.598221       -16.2784 
 105   2.0000      -0.596037       -16.2190 
 106   2.0000      -0.589402       -16.0384 
 107   2.0000      -0.588628       -16.0174 
 108   2.0000      -0.577313       -15.7095 
 109   2.0000      -0.576107       -15.6767 
 110   2.0000      -0.563085       -15.3223 
 111   2.0000      -0.560874       -15.2622 
 112   2.0000      -0.559427       -15.2228 
 113   2.0000      -0.555393       -15.1130 
 114   2.0000      -0.550665       -14.9844 
 115   2.0000      -0.543798       -14.7975 
 116   2.0000      -0.541147       -14.7254 
 117   2.0000      -0.538111       -14.6427 
 118   2.0000      -0.530512       -14.4360 
 119   2.0000      -0.529881       -14.4188 
 120   2.0000      -0.527057       -14.3420 
 121   2.0000      -0.516426       -14.0527 
 122   2.0000      -0.513476       -13.9724 
 123   2.0000      -0.506429       -13.7806 
 124   2.0000      -0.503388       -13.6979 
 125   2.0000      -0.496502       -13.5105 
 126   2.0000      -0.492852       -13.4112 
 127   2.0000      -0.492132       -13.3916 
 128   2.0000      -0.490987       -13.3604 
 129   2.0000      -0.487366       -13.2619 
 130   2.0000      -0.482780       -13.1371 
 131   2.0000      -0.473756       -12.8916 
 132   2.0000      -0.471918       -12.8415 
 133   2.0000      -0.468076       -12.7370 
 134   2.0000      -0.465690       -12.6721 
 135   2.0000      -0.461131       -12.5480 
 136   2.0000      -0.460425       -12.5288 
 137   2.0000      -0.458277       -12.4703 
 138   2.0000      -0.456843       -12.4313 
 139   2.0000      -0.454646       -12.3715 
 140   2.0000      -0.438172       -11.9233 
 141   2.0000      -0.429145       -11.6776 
 142   2.0000      -0.426863       -11.6155 
 143   2.0000      -0.416407       -11.3310 
 144   2.0000      -0.410347       -11.1661 
 145   2.0000      -0.409101       -11.1322 
 146   2.0000      -0.405821       -11.0430 
 147   2.0000      -0.398798       -10.8518 
 148   2.0000      -0.397692       -10.8217 
 149   2.0000      -0.385490       -10.4897 
 150   2.0000      -0.376327       -10.2404 
 151   2.0000      -0.343468        -9.3462 
 152   2.0000      -0.328147        -8.9293 
 153   2.0000      -0.324547        -8.8314 
 154   2.0000      -0.316966        -8.6251 
 155   0.0000       0.062206         1.6927 
 156   0.0000       0.070234         1.9112 
 157   0.0000       0.078304         2.1308 
 158   0.0000       0.100342         2.7304 
 159   0.0000       0.130889         3.5617 
 160   0.0000       0.135551         3.6885 
 161   0.0000       0.136729         3.7206 
 162   0.0000       0.138282         3.7629 
 163   0.0000       0.141921         3.8619 
 164   0.0000       0.143604         3.9077 
 165   0.0000       0.145587         3.9616 
 166   0.0000       0.148823         4.0497 
 167   0.0000       0.156143         4.2489 
 168   0.0000       0.160184         4.3588 
 169   0.0000       0.162485         4.4215 
 170   0.0000       0.168194         4.5768 
 171   0.0000       0.171239         4.6597 
 172   0.0000       0.172201         4.6858 
 173   0.0000       0.176471         4.8020 
 174   0.0000       0.179939         4.8964 
 175   0.0000       0.183480         4.9927 
 176   0.0000       0.190839         5.1930 
 177   0.0000       0.194239         5.2855 
 178   0.0000       0.196056         5.3350 
 179   0.0000       0.201273         5.4769 
 180   0.0000       0.204363         5.5610 
 181   0.0000       0.206346         5.6150 
 182   0.0000       0.210738         5.7345 
 183   0.0000       0.211788         5.7630 
 184   0.0000       0.213323         5.8048 
 185   0.0000       0.215514         5.8644 
 186   0.0000       0.218167         5.9366 
 187   0.0000       0.218851         5.9552 
 188   0.0000       0.221726         6.0335 
 189   0.0000       0.225082         6.1248 
 190   0.0000       0.226284         6.1575 
 191   0.0000       0.228702         6.2233 
 192   0.0000       0.232578         6.3288 
 193   0.0000       0.235297         6.4028 
 194   0.0000       0.238798         6.4980 
 195   0.0000       0.242031         6.5860 
 196   0.0000       0.244757         6.6602 
 197   0.0000       0.246395         6.7048 
 198   0.0000       0.249106         6.7785 
 199   0.0000       0.251165         6.8346 
 200   0.0000       0.252562         6.8726 
 201   0.0000       0.254359         6.9215 
 202   0.0000       0.259294         7.0557 
 203   0.0000       0.266340         7.2475 
 204   0.0000       0.275252         7.4900 
 205   0.0000       0.280484         7.6324 
 206   0.0000       0.289594         7.8803 
 207   0.0000       0.294477         8.0131 
 208   0.0000       0.304204         8.2778 
 209   0.0000       0.307408         8.3650 
 210   0.0000       0.309741         8.4285 
 211   0.0000       0.313708         8.5364 
 212   0.0000       0.318852         8.6764 
 213   0.0000       0.322800         8.7838 
 214   0.0000       0.327417         8.9095 
 215   0.0000       0.331978         9.0336 
 216   0.0000       0.335601         9.1322 
 217   0.0000       0.337786         9.1916 
 218   0.0000       0.341642         9.2965 
 219   0.0000       0.344852         9.3839 
 220   0.0000       0.346484         9.4283 
 221   0.0000       0.350458         9.5364 
 222   0.0000       0.354202         9.6383 
 223   0.0000       0.357130         9.7180 
 224   0.0000       0.358683         9.7603 
 225   0.0000       0.365120         9.9354 
 226   0.0000       0.366552         9.9744 
 227   0.0000       0.370113        10.0713 
 228   0.0000       0.374937        10.2026 
 229   0.0000       0.378181        10.2908 
 230   0.0000       0.382265        10.4020 
 231   0.0000       0.383609        10.4385 
 232   0.0000       0.385675        10.4947 
 233   0.0000       0.387774        10.5519 
 234   0.0000       0.392554        10.6819 
 235   0.0000       0.392849        10.6900 
 236   0.0000       0.394044        10.7225 
 237   0.0000       0.398383        10.8405 
 238   0.0000       0.398550        10.8451 
 239   0.0000       0.403040        10.9673 
 240   0.0000       0.404190        10.9986 
 241   0.0000       0.408953        11.1282 
 242   0.0000       0.413193        11.2436 
 243   0.0000       0.414436        11.2774 
 244   0.0000       0.416670        11.3382 
 245   0.0000       0.420097        11.4314 
 246   0.0000       0.423403        11.5214 
 247   0.0000       0.427212        11.6250 
 248   0.0000       0.431498        11.7416 
 249   0.0000       0.433380        11.7929 
 250   0.0000       0.435261        11.8441 
 251   0.0000       0.437089        11.8938 
 252   0.0000       0.441484        12.0134 
 253   0.0000       0.445577        12.1248 
 254   0.0000       0.446593        12.1524 
 255   0.0000       0.447636        12.1808 
 256   0.0000       0.451974        12.2988 
 257   0.0000       0.454676        12.3724 
 258   0.0000       0.456970        12.4348 
 259   0.0000       0.459017        12.4905 
 260   0.0000       0.464008        12.6263 
 261   0.0000       0.465851        12.6765 
 262   0.0000       0.469498        12.7757 
 263   0.0000       0.470808        12.8113 
 264   0.0000       0.475987        12.9523 
 265   0.0000       0.477367        12.9898 
 266   0.0000       0.484954        13.1963 
 267   0.0000       0.488315        13.2877 
 268   0.0000       0.492496        13.4015 
 269   0.0000       0.494630        13.4596 
 270   0.0000       0.496143        13.5007 
 271   0.0000       0.498422        13.5628 
 272   0.0000       0.502644        13.6776 
 273   0.0000       0.504184        13.7195 
 274   0.0000       0.509948        13.8764 
 275   0.0000       0.510801        13.8996 
 276   0.0000       0.513662        13.9774 
 277   0.0000       0.514659        14.0046 
 278   0.0000       0.516624        14.0581 
 279   0.0000       0.519811        14.1448 
 280   0.0000       0.524776        14.2799 
 281   0.0000       0.528580        14.3834 
 282   0.0000       0.531885        14.4733 
 283   0.0000       0.535437        14.5700 
 284   0.0000       0.539733        14.6869 
 285   0.0000       0.540642        14.7116 
 286   0.0000       0.543091        14.7783 
 287   0.0000       0.544566        14.8184 
 288   0.0000       0.547136        14.8883 
 289   0.0000       0.549936        14.9645 
 290   0.0000       0.552702        15.0398 
 291   0.0000       0.554533        15.0896 
 292   0.0000       0.556097        15.1322 
 293   0.0000       0.557114        15.1598 
 294   0.0000       0.560695        15.2573 
 295   0.0000       0.565467        15.3871 
 296   0.0000       0.568263        15.4632 
 297   0.0000       0.569800        15.5051 
 298   0.0000       0.573938        15.6176 
 299   0.0000       0.575774        15.6676 
 300   0.0000       0.576701        15.6928 
 301   0.0000       0.578905        15.7528 
 302   0.0000       0.582740        15.8571 
 303   0.0000       0.586030        15.9467 
 304   0.0000       0.588014        16.0007 
 305   0.0000       0.589630        16.0446 
 306   0.0000       0.593468        16.1491 
 307   0.0000       0.594815        16.1857 
 308   0.0000       0.596530        16.2324 
 309   0.0000       0.597871        16.2689 
 310   0.0000       0.600672        16.3451 
 311   0.0000       0.601374        16.3642 
 312   0.0000       0.602829        16.4038 
 313   0.0000       0.603144        16.4124 
 314   0.0000       0.606093        16.4926 
 315   0.0000       0.606716        16.5096 
 316   0.0000       0.608518        16.5586 
 317   0.0000       0.612132        16.6570 
 318   0.0000       0.614050        16.7092 
 319   0.0000       0.615815        16.7572 
 320   0.0000       0.617819        16.8117 
 321   0.0000       0.619052        16.8453 
 322   0.0000       0.621445        16.9104 
 323   0.0000       0.624900        17.0044 
 324   0.0000       0.626387        17.0449 
 325   0.0000       0.629761        17.1367 
 326   0.0000       0.631360        17.1802 
 327   0.0000       0.632666        17.2157 
 328   0.0000       0.634108        17.2549 
 329   0.0000       0.634861        17.2755 
 330   0.0000       0.635851        17.3024 
 331   0.0000       0.637345        17.3430 
 332   0.0000       0.639130        17.3916 
 333   0.0000       0.640953        17.4412 
 334   0.0000       0.642534        17.4842 
 335   0.0000       0.644624        17.5411 
 336   0.0000       0.647480        17.6188 
 337   0.0000       0.650469        17.7002 
 338   0.0000       0.651328        17.7235 
 339   0.0000       0.652510        17.7557 
 340   0.0000       0.654152        17.8004 
 341   0.0000       0.659423        17.9438 
 342   0.0000       0.660602        17.9759 
 343   0.0000       0.663465        18.0538 
 344   0.0000       0.663759        18.0618 
 345   0.0000       0.669323        18.2132 
 346   0.0000       0.671571        18.2744 
 347   0.0000       0.674590        18.3565 
 348   0.0000       0.676022        18.3955 
 349   0.0000       0.678415        18.4606 
 350   0.0000       0.680986        18.5306 
 351   0.0000       0.683319        18.5941 
 352   0.0000       0.685216        18.6457 
 353   0.0000       0.686230        18.6733 
 354   0.0000       0.691244        18.8097 
 355   0.0000       0.691990        18.8300 
 356   0.0000       0.693946        18.8832 
 357   0.0000       0.696019        18.9396 
 358   0.0000       0.697539        18.9810 
 359   0.0000       0.699376        19.0310 
 360   0.0000       0.702349        19.1119 
 361   0.0000       0.705829        19.2066 
 362   0.0000       0.706980        19.2379 
 363   0.0000       0.708435        19.2775 
 364   0.0000       0.711748        19.3676 
 365   0.0000       0.713694        19.4206 
 366   0.0000       0.716952        19.5092 
 367   0.0000       0.719986        19.5918 
 368   0.0000       0.723152        19.6780 
 369   0.0000       0.724502        19.7147 
 370   0.0000       0.726343        19.7648 
 371   0.0000       0.729095        19.8397 
 372   0.0000       0.731114        19.8946 
 373   0.0000       0.737198        20.0602 
 374   0.0000       0.738922        20.1071 
 375   0.0000       0.739338        20.1184 
 376   0.0000       0.743626        20.2351 
 377   0.0000       0.747384        20.3374 
 378   0.0000       0.749135        20.3850 
 379   0.0000       0.752949        20.4888 
 380   0.0000       0.757828        20.6215 
 381   0.0000       0.762940        20.7607 
 382   0.0000       0.765779        20.8379 
 383   0.0000       0.768905        20.9230 
 384   0.0000       0.772145        21.0111 
 385   0.0000       0.775297        21.0969 
 386   0.0000       0.778392        21.1811 
 387   0.0000       0.780156        21.2291 
 388   0.0000       0.782203        21.2848 
 389   0.0000       0.785532        21.3754 
 390   0.0000       0.790355        21.5067 
 391   0.0000       0.793715        21.5981 
 392   0.0000       0.796112        21.6633 
 393   0.0000       0.800395        21.7799 
 394   0.0000       0.805136        21.9089 
 395   0.0000       0.806318        21.9410 
 396   0.0000       0.812520        22.1098 
 397   0.0000       0.817620        22.2486 
 398   0.0000       0.819193        22.2914 
 399   0.0000       0.821169        22.3451 
 400   0.0000       0.823081        22.3972 
 401   0.0000       0.825602        22.4658 
 402   0.0000       0.830241        22.5920 
 403   0.0000       0.834695        22.7132 
 404   0.0000       0.837158        22.7802 
 405   0.0000       0.842738        22.9321 
 406   0.0000       0.853533        23.2258 
 407   0.0000       0.854135        23.2422 
 408   0.0000       0.856991        23.3199 
 409   0.0000       0.860442        23.4138 
 410   0.0000       0.862241        23.4628 
 411   0.0000       0.866453        23.5774 
 412   0.0000       0.869668        23.6649 
 413   0.0000       0.875664        23.8280 
 414   0.0000       0.877905        23.8890 
 415   0.0000       0.879388        23.9294 
 416   0.0000       0.883565        24.0430 
 417   0.0000       0.885767        24.1030 
 418   0.0000       0.891252        24.2522 
 419   0.0000       0.892327        24.2814 
 420   0.0000       0.897770        24.4296 
 421   0.0000       0.899813        24.4852 
 422   0.0000       0.905980        24.6530 
 423   0.0000       0.908913        24.7328 
 424   0.0000       0.911800        24.8113 
 425   0.0000       0.916610        24.9422 
 426   0.0000       0.919496        25.0208 
 427   0.0000       0.921518        25.0758 
 428   0.0000       0.929687        25.2981 
 429   0.0000       0.931065        25.3356 
 430   0.0000       0.932184        25.3660 
 431   0.0000       0.935235        25.4490 
 432   0.0000       0.936493        25.4833 
 433   0.0000       0.939923        25.5766 
 434   0.0000       0.946150        25.7461 
 435   0.0000       0.948152        25.8005 
 436   0.0000       0.952802        25.9271 
 437   0.0000       0.958250        26.0753 
 438   0.0000       0.960402        26.1339 
 439   0.0000       0.962819        26.1996 
 440   0.0000       0.966758        26.3068 
 441   0.0000       0.969837        26.3906 
 442   0.0000       0.970959        26.4211 
 443   0.0000       0.971960        26.4484 
 444   0.0000       0.977809        26.6075 
 445   0.0000       0.980160        26.6715 
 446   0.0000       0.981185        26.6994 
 447   0.0000       0.985786        26.8246 
 448   0.0000       0.990593        26.9554 
 449   0.0000       0.995874        27.0991 
 450   0.0000       0.997247        27.1365 
 451   0.0000       0.998032        27.1578 
 452   0.0000       1.005179        27.3523 
 453   0.0000       1.007359        27.4116 
 454   0.0000       1.008301        27.4373 
 455   0.0000       1.013665        27.5832 
 456   0.0000       1.016349        27.6563 
 457   0.0000       1.020539        27.7703 
 458   0.0000       1.022737        27.8301 
 459   0.0000       1.025969        27.9180 
 460   0.0000       1.027378        27.9564 
 461   0.0000       1.028220        27.9793 
 462   0.0000       1.033017        28.1098 
 463   0.0000       1.035983        28.1905 
 464   0.0000       1.036758        28.2116 
 465   0.0000       1.043896        28.4058 
 466   0.0000       1.044723        28.4284 
 467   0.0000       1.046826        28.4856 
 468   0.0000       1.053166        28.6581 
 469   0.0000       1.054364        28.6907 
 470   0.0000       1.058634        28.8069 
 471   0.0000       1.064934        28.9783 
 472   0.0000       1.066679        29.0258 
 473   0.0000       1.067893        29.0588 
 474   0.0000       1.069313        29.0975 
 475   0.0000       1.072217        29.1765 
 476   0.0000       1.081005        29.4156 
 477   0.0000       1.081507        29.4293 
 478   0.0000       1.088206        29.6116 
 479   0.0000       1.089618        29.6500 
[...]
      dxy     :     0.006964
 80 H s       :     0.842028  s :     0.842028
      pz      :     0.039513  p :     0.154110
      px      :     0.066635
      py      :     0.047962
      dz2     :     0.002543  d :     0.028858
      dxz     :     0.007007
      dyz     :     0.002544
      dx2y2   :     0.008217
      dxy     :     0.008546
 81 H s       :     0.841773  s :     0.841773
      pz      :     0.039110  p :     0.153270
      px      :     0.056531
      py      :     0.057630
      dz2     :     0.002854  d :     0.028988
      dxz     :     0.004021
      dyz     :     0.005672
      dx2y2   :     0.009376
      dxy     :     0.007066
 82 H s       :     0.843065  s :     0.843065
      pz      :     0.039342  p :     0.154135
      px      :     0.066413
      py      :     0.048379
      dz2     :     0.002514  d :     0.028874
      dxz     :     0.006925
      dyz     :     0.002675
      dx2y2   :     0.008230
      dxy     :     0.008530
 83 H s       :     0.842616  s :     0.842616
      pz      :     0.066724  p :     0.154370
      px      :     0.040876
      py      :     0.046770
      dz2     :     0.009354  d :     0.028611
      dxz     :     0.006932
      dyz     :     0.008127
      dx2y2   :     0.001533
      dxy     :     0.002666
 84 H s       :     0.843891  s :     0.843891
      pz      :     0.039763  p :     0.153523
      px      :     0.059740
      py      :     0.054020
      dz2     :     0.002739  d :     0.028691
      dxz     :     0.004671
      dyz     :     0.004738
      dx2y2   :     0.009266
      dxy     :     0.007277
 85 H s       :     0.842632  s :     0.842632
      pz      :     0.057177  p :     0.154322
      px      :     0.040111
      py      :     0.057034
      dz2     :     0.008189  d :     0.028611
      dxz     :     0.003972
      dyz     :     0.007203
      dx2y2   :     0.003672
      dxy     :     0.005576
 86 H s       :     0.843846  s :     0.843846
      pz      :     0.041180  p :     0.153502
      px      :     0.059235
      py      :     0.053086
      dz2     :     0.003190  d :     0.028678
      dxz     :     0.004989
      dyz     :     0.004674
      dx2y2   :     0.008910
      dxy     :     0.006914


                      *****************************
                      * MAYER POPULATION ANALYSIS *
                      *****************************

  NA   - Mulliken gross atomic population
  ZA   - Total nuclear charge
  QA   - Mulliken gross atomic charge
  VA   - Mayer's total valence
  BVA  - Mayer's bonded valence
  FA   - Mayer's free valence

  ATOM       NA         ZA         QA         VA         BVA        FA
  0 C      5.8312     6.0000     0.1688     3.5948     3.5948    -0.0000
  1 C      6.1062     6.0000    -0.1062     4.0402     4.0402    -0.0000
  2 C      6.1996     6.0000    -0.1996     3.9022     3.9022    -0.0000
  3 C      5.9200     6.0000     0.0800     3.4272     3.4272    -0.0000
  4 H      0.8351     1.0000     0.1649     1.0111     1.0111    -0.0000
  5 C      6.2158     6.0000    -0.2158     3.9199     3.9199    -0.0000
  6 C      5.8041     6.0000     0.1959     3.5666     3.5666    -0.0000
  7 H      0.8268     1.0000     0.1732     0.9966     0.9966    -0.0000
  8 C      6.1963     6.0000    -0.1963     3.9031     3.9031    -0.0000
  9 C      6.0905     6.0000    -0.0905     4.0327     4.0327    -0.0000
 10 H      0.8333     1.0000     0.1667     1.0100     1.0100    -0.0000
 11 C      5.8267     6.0000     0.1733     4.0585     4.0585    -0.0000
 12 H      0.9079     1.0000     0.0921     0.9996     0.9996    -0.0000
 13 H      0.8966     1.0000     0.1034     0.9975     0.9975    -0.0000
 14 C      5.7813     6.0000     0.2187     3.5650     3.5650    -0.0000
 15 C      6.0963     6.0000    -0.0963     4.0363     4.0363    -0.0000
 16 C      6.2379     6.0000    -0.2379     3.9183     3.9183    -0.0000
 17 C      5.8190     6.0000     0.1810     3.5744     3.5744    -0.0000
 18 H      0.8418     1.0000     0.1582     1.0125     1.0125    -0.0000
 19 C      6.2447     6.0000    -0.2447     3.8893     3.8893    -0.0000
 20 C      5.9538     6.0000     0.0462     3.7585     3.7585    -0.0000
 21 H      0.8220     1.0000     0.1780     1.0108     1.0108    -0.0000
 22 C      6.2533     6.0000    -0.2533     3.8719     3.8719    -0.0000
 23 C      5.9232     6.0000     0.0768     4.1095     4.1095    -0.0000
 24 H      0.8307     1.0000     0.1693     1.0165     1.0165    -0.0000
 25 C      6.1107     6.0000    -0.1107     4.0404     4.0404    -0.0000
 26 H      0.9002     1.0000     0.0998     0.9975     0.9975    -0.0000
 27 C      5.9090     6.0000     0.0910     3.8353     3.8353    -0.0000
 28 C      5.9047     6.0000     0.0953     3.8358     3.8358    -0.0000
 29 N      7.2970     7.0000    -0.2970     2.9734     2.9734    -0.0000
 30 H      0.9223     1.0000     0.0777     1.0013     1.0013    -0.0000
 31 C      6.2034     6.0000    -0.2034     3.8801     3.8801    -0.0000
 32 N      7.2893     7.0000    -0.2893     2.9789     2.9789    -0.0000
 33 H      0.9214     1.0000     0.0786     0.9998     0.9998    -0.0000
 34 C      6.2045     6.0000    -0.2045     3.8818     3.8818    -0.0000
 35 C      6.2068     6.0000    -0.2068     3.8635     3.8635    -0.0000
 36 C      6.2049     6.0000    -0.2049     3.8643     3.8643    -0.0000
 37 O      8.3664     8.0000    -0.3664     2.1194     2.1194    -0.0000
 38 C      5.9120     6.0000     0.0880     3.8360     3.8360    -0.0000
 39 C      5.9022     6.0000     0.0978     3.8318     3.8318    -0.0000
 40 N      7.2945     7.0000    -0.2945     2.9746     2.9746    -0.0000
 41 H      0.9200     1.0000     0.0800     1.0009     1.0009    -0.0000
 42 C      6.2042     6.0000    -0.2042     3.8803     3.8803    -0.0000
 43 N      7.2868     7.0000    -0.2868     2.9809     2.9809    -0.0000
 44 H      0.9229     1.0000     0.0771     0.9997     0.9997    -0.0000
 45 C      6.2047     6.0000    -0.2047     3.8817     3.8817    -0.0000
 46 C      6.2068     6.0000    -0.2068     3.8642     3.8642    -0.0000
 47 C      6.2049     6.0000    -0.2049     3.8634     3.8634    -0.0000
 48 C      5.9496     6.0000     0.0504     3.8295     3.8295    -0.0000
 49 C      5.9651     6.0000     0.0349     3.8862     3.8862    -0.0000
 50 N      7.2878     7.0000    -0.2878     2.9928     2.9928    -0.0000
 51 H      0.9150     1.0000     0.0850     0.9970     0.9970    -0.0000
 52 C      6.2243     6.0000    -0.2243     3.8854     3.8854    -0.0000
 53 N      7.2887     7.0000    -0.2887     3.0136     3.0136    -0.0000
 54 H      0.9073     1.0000     0.0927     0.9996     0.9996    -0.0000
 55 C      6.2222     6.0000    -0.2222     3.8806     3.8806    -0.0000
 56 C      6.2040     6.0000    -0.2040     3.8594     3.8594    -0.0000
 57 C      6.2022     6.0000    -0.2022     3.8613     3.8613    -0.0000
 58 H      0.9121     1.0000     0.0879     1.0001     1.0001    -0.0000
 59 H      0.9078     1.0000     0.0922     1.0418     1.0418    -0.0000
 60 H      0.8865     1.0000     0.1135     0.9865     0.9865    -0.0000
 61 H      0.8925     1.0000     0.1075     1.0405     1.0405    -0.0000
 62 H      0.9085     1.0000     0.0915     0.9765     0.9765    -0.0000
 63 H      0.8871     1.0000     0.1129     0.9786     0.9786    -0.0000
 64 H      0.9106     1.0000     0.0894     0.9847     0.9847    -0.0000
 65 H      0.8876     1.0000     0.1124     0.9790     0.9790    -0.0000
 66 H      0.9123     1.0000     0.0877     0.9851     0.9851    -0.0000
 67 H      0.8908     1.0000     0.1092     0.9888     0.9888    -0.0000
 68 H      0.9015     1.0000     0.0985     0.9941     0.9941    -0.0000
 69 H      0.8916     1.0000     0.1084     0.9891     0.9891    -0.0000
 70 H      0.9014     1.0000     0.0986     0.9931     0.9931    -0.0000
 71 H      0.8771     1.0000     0.1229     0.9807     0.9807    -0.0000
 72 H      0.9106     1.0000     0.0894     0.9912     0.9912    -0.0000
 73 H      0.8857     1.0000     0.1143     0.9790     0.9790    -0.0000
 74 H      0.9074     1.0000     0.0926     0.9843     0.9843    -0.0000
 75 H      0.8861     1.0000     0.1139     0.9791     0.9791    -0.0000
 76 H      0.9065     1.0000     0.0935     0.9836     0.9836    -0.0000
 77 H      0.9108     1.0000     0.0892     0.9915     0.9915    -0.0000
 78 H      0.8804     1.0000     0.1196     0.9810     0.9810    -0.0000
 79 H      0.9043     1.0000     0.0957     0.9943     0.9943    -0.0000
 80 H      0.8902     1.0000     0.1098     0.9884     0.9884    -0.0000
 81 H      0.9009     1.0000     0.0991     0.9932     0.9932    -0.0000
 82 H      0.8928     1.0000     0.1072     0.9893     0.9893    -0.0000
 83 H      0.8872     1.0000     0.1128     0.9786     0.9786    -0.0000
 84 H      0.9113     1.0000     0.0887     0.9846     0.9846    -0.0000
 85 H      0.8875     1.0000     0.1125     0.9790     0.9790    -0.0000
 86 H      0.9114     1.0000     0.0886     0.9852     0.9852    -0.0000

  Mayer bond orders larger than 0.100000
B(  0-C ,  1-C ) :   1.0082 B(  0-C ,  2-C ) :   1.2889 B(  0-C ,  8-C ) :   1.3760 
B(  1-C , 13-H ) :   0.9881 B(  1-C , 32-N ) :   1.9625 B(  2-C ,  3-C ) :   1.3694 
B(  2-C ,  4-H ) :   0.9591 B(  3-C ,  5-C ) :   1.2832 B(  3-C , 11-C ) :   0.9317 
B(  5-C ,  6-C ) :   1.3845 B(  5-C ,  7-H ) :   0.9646 B(  6-C ,  8-C ) :   1.2845 
B(  6-C ,  9-C ) :   0.9941 B(  8-C , 10-H ) :   0.9602 B(  9-C , 12-H ) :   0.9882 
B(  9-C , 40-N ) :   1.9750 B( 11-C , 37-O ) :   2.0865 B( 11-C , 62-H ) :   1.0208 
B( 14-C , 15-C ) :   0.9975 B( 14-C , 16-C ) :   1.3186 B( 14-C , 22-C ) :   1.3461 
B( 15-C , 29-N ) :   1.9696 B( 15-C , 58-H ) :   0.9878 B( 16-C , 17-C ) :   1.3493 
B( 16-C , 18-H ) :   0.9631 B( 17-C , 19-C ) :   1.2993 B( 17-C , 25-C ) :   1.0114 
B( 19-C , 20-C ) :   1.3827 B( 19-C , 21-H ) :   0.9574 B( 20-C , 22-C ) :   1.3310 
B( 20-C , 23-C ) :   1.0464 B( 22-C , 24-H ) :   0.9513 B( 23-C , 50-N ) :   1.0177 
B( 23-C , 53-N ) :   1.0302 B( 23-C , 60-H ) :   0.9846 B( 25-C , 26-H ) :   0.9887 
B( 25-C , 43-N ) :   1.9633 B( 27-C , 28-C ) :   0.9313 B( 27-C , 29-N ) :   0.9390 
B( 27-C , 30-H ) :   0.9715 B( 27-C , 31-C ) :   0.9499 B( 28-C , 32-N ) :   0.9369 
B( 28-C , 33-H ) :   0.9747 B( 28-C , 34-C ) :   0.9551 B( 31-C , 35-C ) :   0.9416 
B( 31-C , 81-H ) :   0.9834 B( 31-C , 82-H ) :   0.9914 B( 34-C , 36-C ) :   0.9448 
B( 34-C , 79-H ) :   0.9843 B( 34-C , 80-H ) :   0.9915 B( 35-C , 36-C ) :   0.9442 
B( 35-C , 83-H ) :   0.9948 B( 35-C , 84-H ) :   0.9848 B( 36-C , 85-H ) :   0.9955 
B( 36-C , 86-H ) :   0.9848 B( 38-C , 39-C ) :   0.9308 B( 38-C , 40-N ) :   0.9355 
B( 38-C , 41-H ) :   0.9726 B( 38-C , 42-C ) :   0.9498 B( 39-C , 43-N ) :   0.9361 
B( 39-C , 44-H ) :   0.9738 B( 39-C , 45-C ) :   0.9553 B( 42-C , 46-C ) :   0.9421 
B( 42-C , 69-H ) :   0.9913 B( 42-C , 70-H ) :   0.9835 B( 45-C , 47-C ) :   0.9440 
B( 45-C , 67-H ) :   0.9916 B( 45-C , 68-H ) :   0.9840 B( 46-C , 47-C ) :   0.9443 
B( 46-C , 63-H ) :   0.9949 B( 46-C , 64-H ) :   0.9847 B( 47-C , 65-H ) :   0.9955 
B( 47-C , 66-H ) :   0.9849 B( 48-C , 49-C ) :   0.9352 B( 48-C , 50-N ) :   0.9751 
B( 48-C , 51-H ) :   0.9674 B( 48-C , 52-C ) :   0.9600 B( 49-C , 53-N ) :   1.0220 
B( 49-C , 54-H ) :   0.9769 B( 49-C , 55-C ) :   0.9588 B( 50-N , 59-H ) :   0.9954 
B( 52-C , 56-C ) :   0.9495 B( 52-C , 77-H ) :   0.9819 B( 52-C , 78-H ) :   0.9898 
B( 53-N , 61-H ) :   0.9902 B( 55-C , 57-C ) :   0.9499 B( 55-C , 71-H ) :   0.9901 
B( 55-C , 72-H ) :   0.9824 B( 56-C , 57-C ) :   0.9435 B( 56-C , 75-H ) :   0.9944 
B( 56-C , 76-H ) :   0.9850 B( 57-C , 73-H ) :   0.9943 B( 57-C , 74-H ) :   0.9850 


-------
TIMINGS
-------

Total SCF time: 0 days 0 hours 32 min 20 sec 

Total time                  ....    1940.810 sec
Sum of individual times     ....    1926.557 sec  ( 99.3%)

Fock matrix formation       ....    1836.305 sec  ( 94.6%)
Diagonalization             ....      12.905 sec  (  0.7%)
Density matrix formation    ....       0.974 sec  (  0.1%)
Population analysis         ....       5.727 sec  (  0.3%)
Initial guess               ....       2.429 sec  (  0.1%)
Orbital Transformation      ....       0.000 sec  (  0.0%)
Orbital Orthonormalization  ....       0.000 sec  (  0.0%)
DIIS solution               ....      49.793 sec  (  2.6%)
SOSCF solution              ....       5.876 sec  (  0.3%)


           ************************************************************
           *        Program running with 32 parallel MPI-processes    *
           *              working on a common directory               *
           ************************************************************

------------------------------------------------------------------------------
                                ORCA  MP2 
------------------------------------------------------------------------------

Freezing NCore=86 chemical core electrons

-------------
RI-MP2 ENERGY
-------------
Dimension of the basis                    ... 1906
Memory devoted to MP2                     ... 3000 MB   
Data format for buffers                   ... DOUBLE
Compression type for matrix containers    ... UNCOMPRESSED
Overall scaling of the MP2 energy         ...   1.000e+00
Calculating two index integrals           ... done (    0.327 sec)
Cholesky decomposition of V**-1           ... done (    4.187 sec)

-----------------
RI-TRANSFORMATION (AUX index driven)
-----------------

Dimension of the orbital-basis         ... 1906
Dimension of the aux-basis             ... 4803
Transformation of internal/external MOs...   43- 154 to  155-1905
Number Format for Storage              ... Double (8 Byte)
Integral mode                          ... Direct

First Phase: integral generation and transformation of MO indices
  Aux angular momentum 0               ... done (    3.401 sec)
  Aux angular momentum 1               ... done (    7.202 sec)
  Aux angular momentum 2               ... done (    9.130 sec)
  Aux angular momentum 3               ... done (    7.632 sec)
  Aux angular momentum 4               ... done (    3.293 sec)
Closing buffer VIA ( 7.02 GB; CompressionRatio= 1.00)
  Phase 1 completed in    30.963 sec
Second Phase: sorting and transformation of aux index

IA-Transformation
Memory available                       ... 2535 MB 
Max. # MO pairs treated in a batch     ... 4    
# of internal orbitals                 ... 112
# batches for internal orbitals        ... 1
Closing buffer IAV ( 0.25 GB; CompressionRatio= 1.00)
(ia|v) transformation done in    34.970 sec

  Phase 2 completed in    45.640 sec
RI-Integral transformation completed in    76.634 sec
Opening buffers                              ... done

Starting loop over batches of integrals:

Operator 0  - window                       ... ( 43-154)x(155-1905)
Operator 0  - Memory available             ...  3000 MB
Operator 0  - Memory needed per MO         ...  64.2 MB
Operator 0  - Number of orbitals per batch ... 4
Operator 0  - Number of batches            ... 1

OPERATOR  0   PASS   0:  MOs    43 ...   46 +   47 ...   50 +   51 ...   54 +   55 ...   58
                            +   59 ...   62 +   63 ...   66 +   67 ...   70 +   71 ...   74
                            +   75 ...   78 +   79 ...   82 +   83 ...   86 +   87 ...   90
                            +   91 ...   94 +   95 ...   98 +   99 ...  102 +  103 ...  106
                            +  107 ...  110 +  111 ...  114 +  115 ...  118 +  119 ...  122
                            +  123 ...  126 +  127 ...  130 +  131 ...  134 +  135 ...  138
                            +  139 ...  142 +  143 ...  146 +  147 ...  150 +  151 ...  154
  Reading integrals       ... ok
  Internal MO  45
Time spent in pair loops =    30.096 sec
Deleting buffer (Ka|jb)[aa] ...done

-----------------------------------------------
 RI-MP2 CORRELATION ENERGY:     -7.323903118 Eh
-----------------------------------------------


-------
TIMINGS
-------

Total time                : 1405.091 sec
Integral trafo            :   76.638 sec (  5.5%)
I/O of integrals          :    0.146 sec (  0.0%)
K(i,j) Operators          :   29.569 sec (  2.1%)
T(i,j) pair energies      :    0.252 sec (  0.0%)
V-calculation             :    0.327 sec (  0.0%)
V**(-1/2)                 :    4.187 sec (  0.3%)
Gamma(ia|P)               :    0.000 sec (  0.0%)
Gamma-Trafo               :    0.000 sec (  0.0%)
D(virtual)                :    0.000 sec (  0.0%)
D(internal)               :    0.000 sec (  0.0%)
W(virtual)                :    0.000 sec (  0.0%)
W(internal)               :    0.000 sec (  0.0%)
L(virtual)                :    0.000 sec (  0.0%)
L(internal)               :    0.000 sec (  0.0%)
G(D)                      :    0.000 sec (  0.0%)
G(Z)                      :    0.000 sec (  0.0%)
Z-Vector Solution         :    0.000 sec (  0.0%)
3-Index Derivative        :    0.000 sec (  0.0%)
2-Index Derivative        :    0.000 sec (  0.0%)
Separable Gradient        :    0.000 sec (  0.0%)


---------------------------------------
MP2 TOTAL ENERGY:    -1798.309414898 Eh
---------------------------------------

-------------------------   --------------------
FINAL SINGLE POINT ENERGY     -1798.309414898295
-------------------------   --------------------


                            ***************************************
                            *     ORCA property calculations      *
                            ***************************************


  WARNING: The energy has been calculated at the MP2 level but the densities
           used in the property calculations are still SCF densities
           MP2 response densities have not been calculated 
           use %mp2 Density relaxed end
           or  %mp2 Density unrelaxed end

                                    ---------------------
                                    Active property flags
                                    ---------------------
   (+) Dipole Moment


------------------------------------------------------------------------------
                       ORCA ELECTRIC PROPERTIES CALCULATION
------------------------------------------------------------------------------

Dipole Moment Calculation                       ... on
Quadrupole Moment Calculation                   ... off
Polarizability Calculation                      ... off
GBWName                                         ... _o_2_alde1_3_ami3_1_opt_MP2.gbw
Electron density file                           ... _o_2_alde1_3_ami3_1_opt_MP2.scfp
The origin for moment calculation is the CENTER OF MASS  = (-2.963017,  2.118443 -2.812916)

-------------
DIPOLE MOMENT
-------------
                                X             Y             Z
Electronic contribution:    -15.31453     -24.58730      -9.32016
Nuclear contribution   :     16.10268      25.56186      10.27993
                        -----------------------------------------
Total Dipole Moment    :      0.78814       0.97456       0.95978
                        -----------------------------------------
Magnitude (a.u.)       :      1.57864
Magnitude (Debye)      :      4.01259



--------------------
Rotational spectrum 
--------------------
 
Rotational constants in cm-1:     0.002082     0.001859     0.001256 
Rotational constants in MHz :    62.431341    55.743762    37.647349 

 Dipole components along the rotational axes: 
x,y,z [a.u.] :     1.026195    -0.568556     1.056305 
x,y,z [Debye]:     2.608380    -1.445156     2.684915 

 

Timings for individual modules:

Sum of individual times         ...     3609.790 sec (=  60.163 min)
GTO integral calculation        ...      125.842 sec (=   2.097 min)   3.5 %
SCF iterations                  ...     1980.885 sec (=  33.015 min)  54.9 %
MP2 module                      ...     1503.064 sec (=  25.051 min)  41.6 %
                             ****ORCA TERMINATED NORMALLY****
TOTAL RUN TIME: 0 days 1 hours 1 minutes 46 seconds 61 msec
