Job execution start: Thu Mar 10 23:44:03 GMT 2022
Shared library path: /work/e05/e05/atarzia/orca_4_2_1_linux_x86-64_openmpi314:/work/e05/e05/atarzia/openmpi-3.1.4/lib:/opt/cray/pe/papi/6.0.0.6/lib64:/opt/cray/libfabric/1.11.0.4.71/lib64
Slurm Job ID is: 1234946
Slurm Job name is: o_2_alde1_4_ami3_1_opt_MP2
nid003410

                                 *****************
                                 * O   R   C   A *
                                 *****************

           --- An Ab Initio, DFT and Semiempirical electronic structure package ---

                  #######################################################
                  #                        -***-                        #
                  #          Department of theory and spectroscopy      #
                  #               Directorship: Frank Neese             #
                  #        Max Planck Institute fuer Kohlenforschung    #
                  #                Kaiser Wilhelm Platz 1               #
                  #                 D-45470 Muelheim/Ruhr               #
                  #                      Germany                        #
                  #                                                     #
                  #                  All rights reserved                #
                  #                        -***-                        #
                  #######################################################


                         Program Version 4.2.1 -  RELEASE  -


 With contributions from (in alphabetic order):
   Daniel Aravena         : Magnetic Suceptibility
   Michael Atanasov       : Ab Initio Ligand Field Theory (pilot matlab implementation)
   Alexander A. Auer      : GIAO ZORA, VPT2
   Ute Becker             : Parallelization
   Giovanni Bistoni       : ED, misc. LED, open-shell LED, HFLD
   Martin Brehm           : Molecular dynamics
   Dmytro Bykov           : SCF Hessian
   Vijay G. Chilkuri      : MRCI spin determinant printing, contributions to CSF-ICE
   Dipayan Datta          : RHF DLPNO-CCSD density
   Achintya Kumar Dutta   : EOM-CC, STEOM-CC
   Dmitry Ganyushin       : Spin-Orbit,Spin-Spin,Magnetic field MRCI
   Miquel Garcia          : C-PCM Hessian, Gaussian charge scheme
   Yang Guo               : DLPNO-NEVPT2, CIM, IAO-localization
   Andreas Hansen         : Spin unrestricted coupled pair/coupled cluster methods
   Benjamin Helmich-Paris : CASSCF linear response (MC-RPA)
   Lee Huntington         : MR-EOM, pCC
   Robert Izsak           : Overlap fitted RIJCOSX, COSX-SCS-MP3, EOM
   Christian Kollmar      : KDIIS, OOCD, Brueckner-CCSD(T), CCSD density
   Simone Kossmann        : Meta GGA functionals, TD-DFT gradient, OOMP2, MP2 Hessian
   Martin Krupicka        : AUTO-CI
   Lucas Lang             : DCDCAS
   Dagmar Lenk            : GEPOL surface, SMD
   Dimitrios Liakos       : Extrapolation schemes; Compound Job, initial MDCI parallelization
   Dimitrios Manganas     : Further ROCIS development; embedding schemes
   Dimitrios Pantazis     : SARC Basis sets
   Taras Petrenko         : DFT Hessian,TD-DFT gradient, ASA, ECA, R-Raman, ABS, FL, XAS/XES, NRVS
   Peter Pinski           : DLPNO-MP2, DLPNO-MP2 Gradient
   Christoph Reimann      : Effective Core Potentials
   Marius Retegan         : Local ZFS, SOC
   Christoph Riplinger    : Optimizer, TS searches, QM/MM, DLPNO-CCSD(T), (RO)-DLPNO pert. Triples
   Tobias Risthaus        : Range-separated hybrids, TD-DFT gradient, RPA, STAB
   Michael Roemelt        : Original ROCIS implementation
   Masaaki Saitow         : Open-shell DLPNO-CCSD energy and density
   Barbara Sandhoefer     : DKH picture change effects
   Avijit Sen             : IP-ROCIS
   Kantharuban Sivalingam : CASSCF convergence, NEVPT2, FIC-MRCI
   Bernardo de Souza      : ESD, SOC TD-DFT
   Georgi Stoychev        : AutoAux, RI-MP2 NMR
   Willem Van den Heuvel  : Paramagnetic NMR
   Boris Wezisla          : Elementary symmetry handling
   Frank Wennmohs         : Technical directorship


 We gratefully acknowledge several colleagues who have allowed us to
 interface, adapt or use parts of their codes:
   Stefan Grimme, W. Hujo, H. Kruse,             : VdW corrections, initial TS optimization,
                  C. Bannwarth                     DFT functionals, gCP, sTDA/sTD-DF
   Ed Valeev, F. Pavosevic, A. Kumar             : LibInt (2-el integral package), F12 methods
   Garnet Chan, S. Sharma, J. Yang, R. Olivares  : DMRG
   Ulf Ekstrom                                   : XCFun DFT Library
   Mihaly Kallay                                 : mrcc  (arbitrary order and MRCC methods)
   Andreas Klamt, Michael Diedenhofen            : otool_cosmo (COSMO solvation model)
   Jiri Pittner, Ondrej Demel                    : Mk-CCSD
   Frank Weinhold                                : gennbo (NPA and NBO analysis)
   Christopher J. Cramer and Donald G. Truhlar   : smd solvation model
   Lars Goerigk                                  : TD-DFT with DH, B97 family of functionals
   V. Asgeirsson, H. Jonsson                     : NEB implementation
   FAccTs GmbH                                   : IRC, NEB, NEB-TS, Multilevel, MM, QM/MM, CI optimization
   S Lehtola, MJT Oliveira, MAL Marques          : LibXC Library


 Your calculation uses the libint2 library for the computation of 2-el integrals
 For citations please refer to: http://libint.valeyev.net

 Your ORCA version has been built with support for libXC version: 4.2.3
 For citations please refer to: https://tddft.org/programs/libxc/

 This ORCA versions uses:
   CBLAS   interface :  Fast vector & matrix operations
   LAPACKE interface :  Fast linear algebra routines
   SCALAPACK package :  Parallel linear algebra routines




***************************************
The coordinates will be read from file: _o_2_alde1_4_ami3_1_opt_B97-3c.xyz
***************************************


----- Orbital basis set information -----
Your calculation utilizes the basis: cc-pVTZ 
       H, B-Ne : Obtained from the ccRepo (grant-hill.group.shef.ac.uk/ccrepo) Feb. 2017
                 T. H. Dunning, Jr., J. Chem. Phys. 90, 1007 (1989)
            He : Obtained from the ccRepo (grant-hill.group.shef.ac.uk/ccrepo) Feb. 2017
                 D. E. Woon, T. H. Dunning, Jr., J. Chem. Phys. 100, 2975 (1994)
  Li-Be, Na-Mg : Obtained from the ccRepo (grant-hill.group.shef.ac.uk/ccrepo) Feb. 2017
                 B. P. Prascher, D. E. Woon, K. A. Peterson, T. H. Dunning, Jr., A. K. Wilson, Theor. Chem. Acc. 128, 69 (2011)
         Al-Ar : Obtained from the ccRepo (grant-hill.group.shef.ac.uk/ccrepo) Feb. 2017
                 D. E. Woon, T. H. Dunning, Jr., J. Chem. Phys. 98, 1358 (1993)
            Ca : Obtained from the Peterson Research Group Website (tyr0.chem.wsu.edu/~kipeters) Feb. 2017
                 J. Koput, K. A. Peterson, J. Phys. Chem. 106, 9595 (2002)
         Sc-Zn : Obtained from the ccRepo (grant-hill.group.shef.ac.uk/ccrepo) Feb. 2017
                 N. B. Balabanov, K. A. Peterson, J. Chem. Phys. 123, 064107 (2005)
                 N. B. Balabanov, K. A. Peterson, J. Chem. Phys. 125, 074110 (2006)
         Ga-Kr : Obtained from the ccRepo (grant-hill.group.shef.ac.uk/ccrepo) Feb. 2017
                 A. K. Wilson, D. E. Woon, K. A. Peterson, T. H. Dunning, Jr., J. Chem. Phys. 110, 7667 (1999)
             Y : Obtained from the ccRepo (grant-hill.group.shef.ac.uk/ccrepo) Feb. 2017
                 K. A. Peterson, D. Figgen, M. Dolg, H. Stoll, J. Chem. Phys. 126, 124101 (2007)
        Ag, Au : Obtained from the Peterson Research Group Website (tyr0.chem.wsu.edu/~kipeters) Feb. 2017
                 K. A. Peterson, C. Puzzarini, Theor. Chem. Acc. 114, 283 (2005)

----- AuxC basis set information -----
Your calculation utilizes the auxiliary basis: cc-pVTZ/C 
  Obtained from the EMSL Basis Set Exchange (bse.pnl.gov) Feb. 2017
  H-He, B-F, Al-Ar, Ga-Kr : F. Weigend, A. Kohn, C. Hattig, J. Chem. Phys. 116, 3175 (2002)
             Li-Be, Na-Mg : C. Haettig, Phys. Chem. Chem. Phys. 7, 59 (2005)
                       Ne : C. Haettig, Phys. Chem. Chem. Phys. 7, 59 (2005)
                            F. Weigend, A. Kohn, C. Hattig, J. Chem. Phys. 116, 3175 (2002)
                    Sc-Zn : J. G. Hill, J. A. Platts, J. Chem. Phys. 128, 044104 (2008)

================================================================================
                                        WARNINGS
                       Please study these warnings very carefully!
================================================================================


WARNING: No MP2 level density has been requested!
         To caclulate MP2 level properties use
         %mp2 Density relaxed end
         or
         %mp2 Density unrelaxed end

WARNING: Post HF methods need fully converged wavefunctions
  ===> : Setting SCFConvForced true
         You can overwrite this default with %scf ConvForced false 


INFO   : the flag for use of LIBINT has been found!

================================================================================
                                       INPUT FILE
================================================================================
NAME = o_2_alde1_4_ami3_1_opt_MP2.in
|  1> ! RI-MP2 cc-pVTZ cc-pVTZ/C TIGHTSCF printbasis Grid6 NOFINALGRID SlowConv
|  2> 
|  3> %base "_o_2_alde1_4_ami3_1_opt_MP2"
|  4> %maxcore 3000
|  5> %pal
|  6>    nprocs 32
|  7> end
|  8> 
|  9> * xyzfile 0 1 _o_2_alde1_4_ami3_1_opt_B97-3c.xyz
| 10> 
| 11>                          ****END OF INPUT****
================================================================================

                       ****************************
                       * Single Point Calculation *
                       ****************************

---------------------------------
CARTESIAN COORDINATES (ANGSTROEM)
---------------------------------
  C     -3.901355   -1.988782   -0.367909
  C     -4.144839   -1.584243    1.014213
  C     -3.144294   -3.119024   -0.687378
  C     -2.801582   -3.390577   -2.004353
  H     -2.802115   -3.758540    0.115050
  C     -3.201644   -2.513143   -3.006340
  C     -3.969515   -1.389077   -2.708816
  H     -2.908508   -2.726372   -4.025589
  C     -4.334742   -1.148591   -1.385674
  C     -4.275974   -0.418656   -3.757533
  H     -4.914106   -0.263959   -1.159849
  C     -1.943500   -4.593537   -2.308711
  H     -3.678290   -0.515033   -4.675726
  H     -4.829888   -0.733886    1.133344
  C     -1.270077    1.237612    0.506209
  C     -1.372860    0.461035    1.739836
  C     -2.412320    1.713564   -0.134647
  C     -2.325643    2.306922   -1.387639
  H     -3.373584    1.560756    0.336357
  C     -1.071384    2.482084   -1.978145
  C      0.078682    2.044691   -1.336589
  H     -1.017943    2.934016   -2.959404
  C     -0.029430    1.408118   -0.104952
  C      1.411716    2.207788   -2.023875
  H      0.873790    1.053145    0.373008
  C     -3.565855    2.606449   -2.098540
  H     -4.478733    2.515473   -1.494356
  C     -2.488124   -0.535305    3.527933
  C     -3.717968   -1.439292    3.285837
  N     -2.425228    0.418670    2.448594
  N     -3.547349   -2.097758    2.011582
  C     -0.233399   -4.407716   -3.877940
  C      0.363487   -4.861605   -2.553332
  N     -1.643631   -4.756071   -3.751608
  N     -0.647871   -4.484055   -1.575493
  C     -5.191469    1.541102   -4.626675
  C     -4.929483    2.903936   -3.946667
  N     -5.116243    0.521438   -3.609964
  N     -3.618019    2.859572   -3.342959
  C      2.665208    0.786527   -3.388698
  C      2.964934    0.475665   -1.929117
  N      1.391898    1.491802   -3.333455
  N      2.552822    1.688453   -1.232387
  H     -0.489372   -0.145180    1.987936
  H      0.640441    0.810729   -3.307660
  H      1.584926    3.271808   -2.202934
  H      3.308158    2.361121   -1.274641
  H     -0.511614   -3.511219   -1.321927
  H     -1.762154   -5.730591   -3.998739
  H     -2.467708   -5.491395   -1.972197
  C      4.377128   -0.014986   -1.745552
  C      1.760914   -4.325668   -2.376037
  C     -2.611205    0.165679    4.875514
  C     -5.037419    4.033327   -4.958055
  H     -1.600820   -1.185770    3.545558
  C     -3.869910   -2.445304    4.414973
  H     -4.591845   -0.770911    3.278108
  C     -3.974335   -1.751660    5.764585
  H     -3.012263   -3.121228    4.398538
  H     -4.751698   -3.058585    4.224608
  C     -2.784803   -0.834349    6.009168
  H     -4.054066   -2.492699    6.561461
  H     -4.895382   -1.162511    5.797793
  H     -1.877628   -1.438783    6.099718
  H     -2.898261   -0.305207    6.956964
  H     -3.462431    0.848633    4.836827
  H     -1.724069    0.780965    5.034592
  H      0.416533   -5.957794   -2.578000
  C      2.608946   -4.797259   -3.560366
  H      2.199859   -4.652997   -1.432927
  H      1.726690   -3.232292   -2.350679
  C      1.987960   -4.472627   -4.919950
  H      2.744462   -5.878930   -3.481391
  H      3.607314   -4.362834   -3.499147
  C      0.540020   -4.952378   -5.050026
  H      2.598525   -4.904176   -5.713963
  H      2.007946   -3.391412   -5.074813
  H      0.504703   -6.046337   -5.037860
  H      0.109906   -4.628986   -5.998545
  H     -0.164874   -3.312661   -3.905394
  H      2.283613   -0.328671   -1.623484
  C      4.554890   -1.265902   -2.609946
  H      4.591460   -0.235271   -0.699219
  H      5.080852    0.761971   -2.060616
  C      4.156976   -1.048955   -4.070761
  H      3.943990   -2.066472   -2.186613
  H      5.587574   -1.612981   -2.559162
  C      2.755538   -0.455566   -4.237539
  H      4.228883   -1.991140   -4.615162
  H      4.877925   -0.373602   -4.538461
  H      2.550231   -0.240599   -5.286791
  H      2.001395   -1.175192   -3.904694
  H      3.428604    1.495417   -3.734737
  H     -5.716781    3.023065   -3.187452
  C     -6.558511    1.546688   -5.300214
  H     -4.416805    1.403834   -5.395943
  C     -6.682012    2.687720   -6.299295
  H     -7.326894    1.631271   -4.528878
  H     -6.713145    0.584267   -5.790852
  C     -6.393352    4.032228   -5.647196
  H     -7.678258    2.684804   -6.745011
  H     -5.976382    2.527463   -7.119618
  H     -7.173001    4.249837   -4.911444
  H     -6.437568    4.832044   -6.388048
  H     -4.236221    3.923049   -5.691972
  H     -4.862165    4.981464   -4.447932

----------------------------
CARTESIAN COORDINATES (A.U.)
----------------------------
  NO LB      ZA    FRAG     MASS         X           Y           Z
   0 C     6.0000    0    12.011   -7.372492   -3.758253   -0.695248
   1 C     6.0000    0    12.011   -7.832610   -2.993785    1.916584
   2 C     6.0000    0    12.011   -5.941855   -5.894101   -1.298957
   3 C     6.0000    0    12.011   -5.294222   -6.407263   -3.787677
   4 H     1.0000    0     1.008   -5.295230   -7.102612    0.217412
   5 C     6.0000    0    12.011   -6.050231   -4.749151   -5.681160
   6 C     6.0000    0    12.011   -7.501297   -2.624976   -5.118920
   7 H     1.0000    0     1.008   -5.496283   -5.152097   -7.607261
   8 C     6.0000    0    12.011   -8.191475   -2.170523   -2.618545
   9 C     6.0000    0    12.011   -8.080420   -0.791145   -7.100708
  10 H     1.0000    0     1.008   -9.286314   -0.498809   -2.191796
  11 C     6.0000    0    12.011   -3.672682   -8.680527   -4.362832
  12 H     1.0000    0     1.008   -6.950961   -0.973272   -8.835841
  13 H     1.0000    0     1.008   -9.127166   -1.386844    2.141710
  14 C     6.0000    0    12.011   -2.400097    2.338747    0.956597
  15 C     6.0000    0    12.011   -2.594328    0.871229    3.287813
  16 C     6.0000    0    12.011   -4.558624    3.238167   -0.254446
  17 C     6.0000    0    12.011   -4.394829    4.359452   -2.622258
  18 H     1.0000    0     1.008   -6.375149    2.949401    0.635622
  19 C     6.0000    0    12.011   -2.024623    4.690459   -3.738152
  20 C     6.0000    0    12.011    0.148687    3.863906   -2.525788
  21 H     1.0000    0     1.008   -1.923633    5.544486   -5.592464
  22 C     6.0000    0    12.011   -0.055615    2.660958   -0.198331
  23 C     6.0000    0    12.011    2.667757    4.172115   -3.824570
  24 H     1.0000    0     1.008    1.651224    1.990155    0.704884
  25 C     6.0000    0    12.011   -6.738490    4.925475   -3.965665
  26 H     1.0000    0     1.008   -8.463579    4.753554   -2.823923
  27 C     6.0000    0    12.011   -4.701873   -1.011580    6.666828
  28 C     6.0000    0    12.011   -7.025942   -2.719868    6.209332
  29 N     7.0000    0    14.007   -4.583017    0.791172    4.627172
  30 N     7.0000    0    14.007   -6.703519   -3.964188    3.801339
  31 C     6.0000    0    12.011   -0.441060   -8.329377   -7.328244
  32 C     6.0000    0    12.011    0.686890   -9.187102   -4.825098
  33 N     7.0000    0    14.007   -3.106012   -8.987672   -7.089511
  34 N     7.0000    0    14.007   -1.224299   -8.473635   -2.977251
  35 C     6.0000    0    12.011   -9.810455    2.912260   -8.743149
  36 C     6.0000    0    12.011   -9.315374    5.487645   -7.458120
  37 N     7.0000    0    14.007   -9.668298    0.985375   -6.821844
  38 N     7.0000    0    14.007   -6.837064    5.403807   -6.317278
  39 C     6.0000    0    12.011    5.036514    1.486321   -6.403711
  40 C     6.0000    0    12.011    5.602913    0.898877   -3.645504
  41 N     7.0000    0    14.007    2.630306    2.819097   -6.299318
  42 N     7.0000    0    14.007    4.824135    3.190713   -2.328873
  43 H     1.0000    0     1.008   -0.924780   -0.274351    3.756654
  44 H     1.0000    0     1.008    1.210258    1.532056   -6.250571
  45 H     1.0000    0     1.008    2.995076    6.182821   -4.162943
  46 H     1.0000    0     1.008    6.251512    4.461873   -2.408723
  47 H     1.0000    0     1.008   -0.966810   -6.635243   -2.498080
  48 H     1.0000    0     1.008   -3.329988  -10.829247   -7.556522
  49 H     1.0000    0     1.008   -4.663293  -10.377233   -3.726912
  50 C     6.0000    0    12.011    8.271573   -0.028319   -3.298616
  51 C     6.0000    0    12.011    3.327645   -8.174329   -4.490058
  52 C     6.0000    0    12.011   -4.934462    0.313088    9.213387
  53 C     6.0000    0    12.011   -9.519343    7.621883   -9.369367
  54 H     1.0000    0     1.008   -3.025112   -2.240781    6.700134
  55 C     6.0000    0    12.011   -7.313070   -4.620954    8.343090
  56 H     1.0000    0     1.008   -8.677330   -1.456811    6.194726
  57 C     6.0000    0    12.011   -7.510405   -3.310157   10.893488
  58 H     1.0000    0     1.008   -5.692352   -5.898265    8.312032
  59 H     1.0000    0     1.008   -8.979409   -5.779888    7.983352
  60 C     6.0000    0    12.011   -5.262516   -1.576691   11.355681
  61 H     1.0000    0     1.008   -7.661075   -4.710518   12.399364
  62 H     1.0000    0     1.008   -9.250931   -2.196827   10.956241
  63 H     1.0000    0     1.008   -3.548203   -2.718906   11.526797
  64 H     1.0000    0     1.008   -5.476920   -0.576757   13.146757
  65 H     1.0000    0     1.008   -6.543045    1.603684    9.140278
  66 H     1.0000    0     1.008   -3.258018    1.475809    9.513999
  67 H     1.0000    0     1.008    0.787133  -11.258600   -4.871714
  68 C     6.0000    0    12.011    4.930194   -9.065505   -6.728116
  69 H     1.0000    0     1.008    4.157132   -8.792890   -2.707840
  70 H     1.0000    0     1.008    3.262970   -6.108147   -4.442139
  71 C     6.0000    0    12.011    3.756701   -8.452040   -9.297357
  72 H     1.0000    0     1.008    5.186282  -11.109568   -6.578875
  73 H     1.0000    0     1.008    6.816836   -8.244561   -6.612429
  74 C     6.0000    0    12.011    1.020491   -9.358638   -9.543166
  75 H     1.0000    0     1.008    4.910500   -9.267549  -10.797825
  76 H     1.0000    0     1.008    3.794467   -6.408840   -9.590007
  77 H     1.0000    0     1.008    0.953750  -11.425922   -9.520176
  78 H     1.0000    0     1.008    0.207691   -8.747517  -11.335607
  79 H     1.0000    0     1.008   -0.311567   -6.260021   -7.380124
  80 H     1.0000    0     1.008    4.315404   -0.621097   -3.067939
  81 C     6.0000    0    12.011    8.607495   -2.392208   -4.932083
  82 H     1.0000    0     1.008    8.676602   -0.444598   -1.321332
  83 H     1.0000    0     1.008    9.601418    1.439917   -3.894000
  84 C     6.0000    0    12.011    7.855546   -1.982238   -7.692624
  85 H     1.0000    0     1.008    7.453061   -3.905065   -4.132100
  86 H     1.0000    0     1.008   10.558984   -3.048092   -4.836114
  87 C     6.0000    0    12.011    5.207212   -0.860896   -8.007788
  88 H     1.0000    0     1.008    7.991431   -3.762709   -8.721393
  89 H     1.0000    0     1.008    9.217942   -0.706005   -8.576448
  90 H     1.0000    0     1.008    4.819239   -0.454665   -9.990588
  91 H     1.0000    0     1.008    3.782088   -2.220790   -7.378803
  92 H     1.0000    0     1.008    6.479122    2.825929   -7.057630
  93 H     1.0000    0     1.008  -10.803150    5.712765   -6.023412
  94 C     6.0000    0    12.011  -12.393789    2.922817  -10.015953
  95 H     1.0000    0     1.008   -8.346551    2.652862  -10.196855
  96 C     6.0000    0    12.011  -12.627173    5.079055  -11.903942
  97 H     1.0000    0     1.008  -13.845824    3.082655   -8.558339
  98 H     1.0000    0     1.008  -12.686006    1.104104  -10.943124
  99 C     6.0000    0    12.011  -12.081685    7.619806  -10.671654
 100 H     1.0000    0     1.008  -14.509804    5.073544  -12.746224
 101 H     1.0000    0     1.008  -11.293725    4.776213  -13.454127
 102 H     1.0000    0     1.008  -13.555007    8.031028   -9.281284
 103 H     1.0000    0     1.008  -12.165241    9.131240  -12.071662
 104 H     1.0000    0     1.008   -8.005297    7.413489  -10.756268
 105 H     1.0000    0     1.008   -9.188161    9.413604   -8.405373

--------------------------------
INTERNAL COORDINATES (ANGSTROEM)
--------------------------------
 C      0   0   0     0.000000000000     0.00000000     0.00000000
 C      1   0   0     1.460547185969     0.00000000     0.00000000
 C      1   2   0     1.397372032993   122.05223426     0.00000000
 C      3   1   2     1.387664987414   120.60114508   187.47998096
 H      3   1   2     1.081646119535   118.68566566     5.38463419
 C      4   3   1     1.390655106206   119.29397782     1.01470835
 C      6   4   3     1.393438056452   120.90821558   358.26637510
 H      6   4   3     1.081787362116   118.45982409   178.66957819
 C      1   2   3     1.389096764914   118.28117936   186.08734056
 C      7   6   4     1.461315422376   119.86989216   174.49805875
 H      9   1   2     1.081311773369   120.59589030   354.63088968
 C      4   3   1     1.508658602686   119.20737459   177.91888928
 H     10   7   6     1.099814952840   115.27604415   346.06728142
 H      2   1   3     1.098449576689   114.89888991   185.38277415
 C      2   1   3     4.060195628603    87.48197120   101.80708376
 C     15   2   1     1.461325146118    58.34779656   221.15295137
 C     15   2   1     1.393537744326    73.41461351    76.93270367
 C     17  15   2     1.389091703906   120.63489288   223.37889758
 H     17  15   2     1.081306161879   118.69138754    39.88545756
 C     18  17  15     1.397334669979   119.38951423   356.97827425
 C     20  18  17     1.387644635063   120.59967627     1.32579613
 H     20  18  17     1.081650889740   118.69163373   179.24053253
 C     21  20  18     1.390626839023   119.29663181     1.03406496
 C     21  20  18     1.508623038386   119.18452545   177.94053858
 H     23  21  20     1.081785033683   118.46417888   178.66773714
 C     18  17  15     1.460555290592   118.27210360   171.03568627
 H     26  18  17     1.098481159169   114.89570867    11.52712096
 C     16  15   2     2.331051323397   155.27768558   315.77544132
 C     28  16  15     1.545419203871   120.70336812    50.39994537
 N     16  15   2     1.269493040888   123.18524286   303.45656287
 N      2   1   3     1.270998169247   123.52516667    10.30216320
 C     12   4   3     2.328401114109   119.34482269   221.90728932
 C     32  12   4     1.522127954623    71.19880947   122.48520531
 N     32  12   4     1.458102967384    38.01976502   269.04014104
 N     33  32  12     1.456556786255   103.57065568   340.25405360
 C     10   7   6     2.331134499013   155.25909413   182.16435522
 C     36  10   7     1.545433626863   120.71232907    50.35695729
 N     10   7   6     1.269489479324   123.17192505   169.83133380
 N     26  18  17     1.270973106116   123.52198593   196.46763991
 C     24  21  20     2.335372959917   132.43234122   266.66639799
 C     40  24  21     1.522119145658    70.70572640   275.10596476
 N     40  24  21     1.456634214228    38.18515816    63.02133598
 N     41  40  24     1.458123130025   103.45453743   339.58077913
 H     16  15   2     1.099818137958   115.26775028   119.70400242
 H     42  40  24     1.014501310988   108.86923192   244.66341024
 H     24  21  20     1.092795753714   108.66075266    60.49947607
 H     43  41  40     1.012324167072   108.77487010   276.46585491
 H     35  33  32     1.014529750054   108.84988703   275.71329467
 H     34  32  12     1.012329307589   108.78820021   244.01986902
 H     12   4   3     1.092788278220   108.67341065    60.58062818
 C     41  40  24     1.506229153803   111.59298694   211.05016971
 C     33  32  12     1.507137557214   111.09578437   212.35437118
 C     28  16  15     1.523975566639   121.35441513   264.36383352
 C     37  36  10     1.519894070853   110.51412458   153.67304246
 H     28  16  15     1.100328855434    83.05863480   156.50318725
 C     29  28  16     1.519899277489   110.50860416   153.65980879
 H     29  28  16     1.100206088450   106.13097462   271.86585901
 C     56  29  28     1.521019065419   111.35817202    56.71498893
 H     56  29  28     1.092108922162   108.66112628   294.83195199
 H     56  29  28     1.090827386028   108.86209317   179.21167283
 C     53  28  16     1.521631503208   111.45121364   205.61590203
 H     58  56  29     1.091103070865   110.07971165   181.59940837
 H     58  56  29     1.093858340026   109.29104253    65.10135988
 H     61  53  28     1.093849697844   109.28175284    65.18467672
 H     61  53  28     1.091412794173   109.89025364   181.57852172
 H     53  28  16     1.092019981413   108.62031019    83.77976995
 H     53  28  16     1.091280150943   108.81930132   328.06302941
 H     33  32  12     1.097749314560   107.28729491    94.23277054
 C     52  33  32     1.531075522164   108.24232220   302.55215780
 H     52  33  32     1.090537705586   111.60486750   180.48335792
 H     52  33  32     1.094205472830   109.21142718    62.37602492
 C     69  52  33     1.529534819029   113.41150386    52.55411745
 H     69  52  33     1.092984612131   108.51819804   291.35103391
 H     69  52  33     1.090509991029   109.93499355   175.76505331
 C     32  12   4     1.506193641368   150.77753632   223.30262321
 H     72  69  52     1.090632874212   109.62530983   184.54115668
 H     72  69  52     1.092432074732   109.18651766    68.64238698
 H     75  32  12     1.094597197997   109.64473234   331.57322703
 H     75  32  12     1.090536437217   111.53555819    89.97686897
 H     32  12   4     1.097541144919    98.18322468    17.07873613
 H     41  40  24     1.097527298630   107.12552102    93.00980628
 C     51  41  40     1.530871276472   107.83237487   301.64460824
 H     51  41  40     1.090540380078   111.53059103   179.87305720
 H     51  41  40     1.094602608824   109.66191018    61.47051830
 C     82  51  41     1.529504224360   113.15203553    52.98699123
 H     82  51  41     1.092392626531   108.36607497   291.75452809
 H     82  51  41     1.090631747626   110.10221626   176.05114498
 C     40  24  21     1.507145288335   149.64038115    14.13283240
 H     85  82  51     1.090530085891   109.69954330   184.51137614
 H     85  82  51     1.092983444339   108.94935322    68.80803901
 H     88  40  24     1.090546610865   111.60145670    92.87984417
 H     88  40  24     1.094247652407   109.23033019   334.75716224
 H     40  24  21     1.097743372451    99.46718487   169.98358964
 H     37  36  10     1.100198365301   106.12981463   271.88125998
 C     36  10   7     1.523971072022   121.34218246   264.32820372
 H     36  10   7     1.100327610636    83.06722228   156.45433663
 C     95  36  10     1.521633575816   111.45317958   205.60381380
 H     95  36  10     1.092028727197   108.61967389    83.75973834
 H     95  36  10     1.091280039027   108.81914837   328.04741209
 C     54  37  36     1.521009869720   111.36243421    56.70814959
 H     97  95  36     1.091410614338   109.89043021   181.58857100
 H     97  95  36     1.093858271810   109.27953059    65.19914420
 H    100  54  37     1.093862951357   109.29901742    65.13902085
 H    100  54  37     1.091111058403   110.07397547   181.63087740
 H     54  37  36     1.092114092359   108.66595017   294.82434388
 H     54  37  36     1.090827811730   108.86100048   179.20630099

---------------------------
INTERNAL COORDINATES (A.U.)
---------------------------
 C      0   0   0     0.000000000000     0.00000000     0.00000000
 C      1   0   0     2.760034187150     0.00000000     0.00000000
 C      1   2   0     2.640650449558   122.05223426     0.00000000
 C      3   1   2     2.622306791843   120.60114508   187.47998096
 H      3   1   2     2.044014939739   118.68566566     5.38463419
 C      4   3   1     2.627957297469   119.29397782     1.01470835
 C      6   4   3     2.633216311278   120.90821558   358.26637510
 H      6   4   3     2.044281849536   118.45982409   178.66957819
 C      1   2   3     2.625012459204   118.28117936   186.08734056
 C      7   6   4     2.761485943565   119.86989216   174.49805875
 H      9   1   2     2.043383117052   120.59589030   354.63088968
 C      4   3   1     2.850951588660   119.20737459   177.91888928
 H     10   7   6     2.078349058859   115.27604415   346.06728142
 H      2   1   3     2.075768871865   114.89888991   185.38277415
 C      2   1   3     7.672657788204    87.48197120   101.80708376
 C     15   2   1     2.761504318775    58.34779656   221.15295137
 C     15   2   1     2.633404694059    73.41461351    76.93270367
 C     17  15   2     2.625002895284   120.63489288   223.37889758
 H     17  15   2     2.043372512873   118.69138754    39.88545756
 C     18  17  15     2.640579843693   119.38951423   356.97827425
 C     20  18  17     2.622268331475   120.59967627     1.32579613
 H     20  18  17     2.044023954120   118.69163373   179.24053253
 C     21  20  18     2.627903880235   119.29663181     1.03406496
 C     21  20  18     2.850884381874   119.18452545   177.94053858
 H     23  21  20     2.044277449436   118.46417888   178.66773714
 C     18  17  15     2.760049502668   118.27210360   171.03568627
 H     26  18  17     2.075828554102   114.89570867    11.52712096
 C     16  15   2     4.405048605335   155.27768558   315.77544132
 C     28  16  15     2.920419057420   120.70336812    50.39994537
 N     16  15   2     2.398994176197   123.18524286   303.45656287
 N      2   1   3     2.401838456593   123.52516667    10.30216320
 C     12   4   3     4.400040435584   119.34482269   221.90728932
 C     32  12   4     2.876404975024    71.19880947   122.48520531
 N     32  12   4     2.755415283414    38.01976502   269.04014104
 N     33  32  12     2.752493424526   103.57065568   340.25405360
 C     10   7   6     4.405205784471   155.25909413   182.16435522
 C     36  10   7     2.920446312923   120.71232907    50.35695729
 N     10   7   6     2.398987445816   123.17192505   169.83133380
 N     26  18  17     2.401791094139   123.52198593   196.46763991
 C     24  21  20     4.413215314808   132.43234122   266.66639799
 C     40  24  21     2.876388328492    70.70572640   275.10596476
 N     40  24  21     2.752639742191    38.18515816    63.02133598
 N     41  40  24     2.755453385283   103.45453743   339.58077913
 H     16  15   2     2.078355077860   115.26775028   119.70400242
 H     42  40  24     1.917129640272   108.86923192   244.66341024
 H     24  21  20     2.065084694832   108.66075266    60.49947607
 H     43  41  40     1.913015434516   108.77487010   276.46585491
 H     35  33  32     1.917183382318   108.84988703   275.71329467
 H     34  32  12     1.913025148685   108.78820021   244.01986902
 H     12   4   3     2.065070568195   108.67341065    60.58062818
 C     41  40  24     2.846360595615   111.59298694   211.05016971
 C     33  32  12     2.848077229281   111.09578437   212.35437118
 C     28  16  15     2.879896455735   121.35441513   264.36383352
 C     37  36  10     2.872183546482   110.51412458   153.67304246
 H     28  16  15     2.079320194020    83.05863480   156.50318725
 C     29  28  16     2.872193385599   110.50860416   153.65980879
 H     29  28  16     2.079088198043   106.13097462   271.86585901
 C     56  29  28     2.874309478114   111.35817202    56.71498893
 H     56  29  28     2.063786771298   108.66112628   294.83195199
 H     56  29  28     2.061365018973   108.86209317   179.21167283
 C     53  28  16     2.875466817810   111.45121364   205.61590203
 H     58  56  29     2.061885987815   110.07971165   181.59940837
 H     58  56  29     2.067092691955   109.29104253    65.10135988
 H     61  53  28     2.067076360598   109.28175284    65.18467672
 H     61  53  28     2.062471280045   109.89025364   181.57852172
 H     53  28  16     2.063618697641   108.62031019    83.77976995
 H     53  28  16     2.062220620666   108.81930132   328.06302941
 H     33  32  12     2.074445568219   107.28729491    94.23277054
 C     52  33  32     2.893313427240   108.24232220   302.55215780
 H     52  33  32     2.060817602272   111.60486750   180.48335792
 H     52  33  32     2.067748677887   109.21142718    62.37602492
 C     69  52  33     2.890401920262   113.41150386    52.55411745
 H     69  52  33     2.065441585518   108.51819804   291.35103391
 H     69  52  33     2.060765229349   109.93499355   175.76505331
 C     32  12   4     2.846293486839   150.77753632   223.30262321
 H     72  69  52     2.060997444913   109.62530983   184.54115668
 H     72  69  52     2.064397441154   109.18651766    68.64238698
 H     75  32  12     2.068488931171   109.64473234   331.57322703
 H     75  32  12     2.060815205402   111.53555819    89.97686897
 H     32  12   4     2.074052184607    98.18322468    17.07873613
 H     41  40  24     2.074026018913   107.12552102    93.00980628
 C     51  41  40     2.892927458819   107.83237487   301.64460824
 H     51  41  40     2.060822656329   111.53059103   179.87305720
 H     51  41  40     2.068499156153   109.66191018    61.47051830
 C     82  51  41     2.890344104716   113.15203553    52.98699123
 H     82  51  41     2.064322894858   108.36607497   291.75452809
 H     82  51  41     2.060995315973   110.10221626   176.05114498
 C     40  24  21     2.848091838984   149.64038115    14.13283240
 H     85  82  51     2.060803203135   109.69954330   184.51137614
 H     85  82  51     2.065439378711   108.94935322    68.80803901
 H     88  40  24     2.060834430811   111.60145670    92.87984417
 H     88  40  24     2.067828385736   109.23033019   334.75716224
 H     40  24  21     2.074434339260    99.46718487   169.98358964
 H     37  36  10     2.079073603407   106.12981463   271.88125998
 C     36  10   7     2.879887962140   121.34218246   264.32820372
 H     36  10   7     2.079317841694    83.06722228   156.45433663
 C     95  36  10     2.875470734472   111.45317958   205.60381380
 H     95  36  10     2.063635224777   108.61967389    83.75973834
 H     95  36  10     2.062220409175   108.81914837   328.04741209
 C     54  37  36     2.874292100761   111.36243421    56.70814959
 H     97  95  36     2.062467160754   109.89043021   181.58857100
 H     97  95  36     2.067092563045   109.27953059    65.19914420
 H    100  54  37     2.067101406108   109.29901742    65.13902085
 H    100  54  37     2.061901082075   110.07397547   181.63087740
 H     54  37  36     2.063796541554   108.66595017   294.82434388
 H     54  37  36     2.061365823434   108.86100048   179.20630099

---------------------
BASIS SET INFORMATION
---------------------
There are 3 groups of distinct atoms

 Group   1 Type C   : 18s5p2d1f contracted to 4s3p2d1f pattern {8811/311/11/1}
 Group   2 Type H   : 5s2p1d contracted to 3s2p1d pattern {311/11/1}
 Group   3 Type N   : 18s5p2d1f contracted to 4s3p2d1f pattern {8811/311/11/1}

Atom   0C    basis set group =>   1
Atom   1C    basis set group =>   1
Atom   2C    basis set group =>   1
Atom   3C    basis set group =>   1
Atom   4H    basis set group =>   2
Atom   5C    basis set group =>   1
Atom   6C    basis set group =>   1
Atom   7H    basis set group =>   2
Atom   8C    basis set group =>   1
Atom   9C    basis set group =>   1
Atom  10H    basis set group =>   2
Atom  11C    basis set group =>   1
Atom  12H    basis set group =>   2
Atom  13H    basis set group =>   2
Atom  14C    basis set group =>   1
Atom  15C    basis set group =>   1
Atom  16C    basis set group =>   1
Atom  17C    basis set group =>   1
Atom  18H    basis set group =>   2
Atom  19C    basis set group =>   1
Atom  20C    basis set group =>   1
Atom  21H    basis set group =>   2
Atom  22C    basis set group =>   1
Atom  23C    basis set group =>   1
Atom  24H    basis set group =>   2
Atom  25C    basis set group =>   1
Atom  26H    basis set group =>   2
Atom  27C    basis set group =>   1
Atom  28C    basis set group =>   1
Atom  29N    basis set group =>   3
Atom  30N    basis set group =>   3
Atom  31C    basis set group =>   1
Atom  32C    basis set group =>   1
Atom  33N    basis set group =>   3
Atom  34N    basis set group =>   3
Atom  35C    basis set group =>   1
Atom  36C    basis set group =>   1
Atom  37N    basis set group =>   3
Atom  38N    basis set group =>   3
Atom  39C    basis set group =>   1
Atom  40C    basis set group =>   1
Atom  41N    basis set group =>   3
Atom  42N    basis set group =>   3
Atom  43H    basis set group =>   2
Atom  44H    basis set group =>   2
Atom  45H    basis set group =>   2
Atom  46H    basis set group =>   2
Atom  47H    basis set group =>   2
Atom  48H    basis set group =>   2
Atom  49H    basis set group =>   2
Atom  50C    basis set group =>   1
Atom  51C    basis set group =>   1
Atom  52C    basis set group =>   1
Atom  53C    basis set group =>   1
Atom  54H    basis set group =>   2
Atom  55C    basis set group =>   1
Atom  56H    basis set group =>   2
Atom  57C    basis set group =>   1
Atom  58H    basis set group =>   2
Atom  59H    basis set group =>   2
Atom  60C    basis set group =>   1
Atom  61H    basis set group =>   2
Atom  62H    basis set group =>   2
Atom  63H    basis set group =>   2
Atom  64H    basis set group =>   2
Atom  65H    basis set group =>   2
Atom  66H    basis set group =>   2
Atom  67H    basis set group =>   2
Atom  68C    basis set group =>   1
Atom  69H    basis set group =>   2
Atom  70H    basis set group =>   2
Atom  71C    basis set group =>   1
Atom  72H    basis set group =>   2
Atom  73H    basis set group =>   2
Atom  74C    basis set group =>   1
Atom  75H    basis set group =>   2
Atom  76H    basis set group =>   2
Atom  77H    basis set group =>   2
Atom  78H    basis set group =>   2
Atom  79H    basis set group =>   2
Atom  80H    basis set group =>   2
Atom  81C    basis set group =>   1
Atom  82H    basis set group =>   2
Atom  83H    basis set group =>   2
Atom  84C    basis set group =>   1
Atom  85H    basis set group =>   2
Atom  86H    basis set group =>   2
Atom  87C    basis set group =>   1
Atom  88H    basis set group =>   2
Atom  89H    basis set group =>   2
Atom  90H    basis set group =>   2
Atom  91H    basis set group =>   2
Atom  92H    basis set group =>   2
Atom  93H    basis set group =>   2
Atom  94C    basis set group =>   1
Atom  95H    basis set group =>   2
Atom  96C    basis set group =>   1
Atom  97H    basis set group =>   2
Atom  98H    basis set group =>   2
Atom  99C    basis set group =>   1
Atom 100H    basis set group =>   2
Atom 101H    basis set group =>   2
Atom 102H    basis set group =>   2
Atom 103H    basis set group =>   2
Atom 104H    basis set group =>   2
Atom 105H    basis set group =>   2

-------------------------
BASIS SET IN INPUT FORMAT
-------------------------

 # Basis set for element : H 
 NewGTO H 
 S 3 
   1      33.8700000000      0.0254948632
   2       5.0950000000      0.1903627659
   3       1.1590000000      0.8521620222
 S 1 
   1       0.3258000000      1.0000000000
 S 1 
   1       0.1027000000      1.0000000000
 P 1 
   1       1.4070000000      1.0000000000
 P 1 
   1       0.3880000000      1.0000000000
 D 1 
   1       1.0570000000      1.0000000000
  end;

 # Basis set for element : C 
 NewGTO C 
 S 8 
   1    8236.0000000000      0.0005424302
   2    1235.0000000000      0.0041964279
   3     280.8000000000      0.0215409141
   4      79.2700000000      0.0836149496
   5      25.5900000000      0.2398716189
   6       8.9970000000      0.4437518201
   7       3.3190000000      0.3535796965
   8       0.3643000000     -0.0091763661
 S 8 
   1    8236.0000000000     -0.0001963922
   2    1235.0000000000     -0.0015259503
   3     280.8000000000     -0.0078904490
   4      79.2700000000     -0.0315148705
   5      25.5900000000     -0.0969100083
   6       8.9970000000     -0.2205415263
   7       3.3190000000     -0.2960691129
   8       0.3643000000      1.0405034329
 S 1 
   1       0.9059000000      1.0000000000
 S 1 
   1       0.1285000000      1.0000000000
 P 3 
   1      18.7100000000      0.0394263872
   2       4.1330000000      0.2440889849
   3       1.2000000000      0.8154920089
 P 1 
   1       0.3827000000      1.0000000000
 P 1 
   1       0.1209000000      1.0000000000
 D 1 
   1       1.0970000000      1.0000000000
 D 1 
   1       0.3180000000      1.0000000000
 F 1 
   1       0.7610000000      1.0000000000
  end;

 # Basis set for element : N 
 NewGTO N 
 S 8 
   1   11420.0000000000      0.0005349809
   2    1712.0000000000      0.0041376631
   3     389.3000000000      0.0212509149
   4     110.0000000000      0.0825762988
   5      35.5700000000      0.2384132727
   6      12.5400000000      0.4434316661
   7       4.6440000000      0.3554319088
   8       0.5118000000     -0.0087029018
 S 8 
   1   11420.0000000000     -0.0001987770
   2    1712.0000000000     -0.0015470035
   3     389.3000000000     -0.0079925633
   4     110.0000000000     -0.0320255651
   5      35.5700000000     -0.0991102048
   6      12.5400000000     -0.2282927747
   7       4.6440000000     -0.2981827627
   8       0.5118000000      1.0370005182
 S 1 
   1       1.2930000000      1.0000000000
 S 1 
   1       0.1787000000      1.0000000000
 P 3 
   1      26.6300000000      0.0398072123
   2       5.9480000000      0.2490026605
   3       1.7420000000      0.8104797267
 P 1 
   1       0.5550000000      1.0000000000
 P 1 
   1       0.1725000000      1.0000000000
 D 1 
   1       1.6540000000      1.0000000000
 D 1 
   1       0.4690000000      1.0000000000
 F 1 
   1       1.0930000000      1.0000000000
  end;

---------------------------------
AUXILIARY/C BASIS SET INFORMATION
---------------------------------
There are 3 groups of distinct atoms

 Group   1 Type C   : 8s6p5d3f1g contracted to 8s6p5d3f1g pattern {11111111/111111/11111/111/1}
 Group   2 Type H   : 4s3p2d1f contracted to 4s3p2d1f pattern {1111/111/11/1}
 Group   3 Type N   : 8s6p5d3f1g contracted to 8s6p5d3f1g pattern {11111111/111111/11111/111/1}

Atom   0C    basis set group =>   1
Atom   1C    basis set group =>   1
Atom   2C    basis set group =>   1
Atom   3C    basis set group =>   1
Atom   4H    basis set group =>   2
Atom   5C    basis set group =>   1
Atom   6C    basis set group =>   1
Atom   7H    basis set group =>   2
Atom   8C    basis set group =>   1
Atom   9C    basis set group =>   1
Atom  10H    basis set group =>   2
Atom  11C    basis set group =>   1
Atom  12H    basis set group =>   2
Atom  13H    basis set group =>   2
Atom  14C    basis set group =>   1
Atom  15C    basis set group =>   1
Atom  16C    basis set group =>   1
Atom  17C    basis set group =>   1
Atom  18H    basis set group =>   2
Atom  19C    basis set group =>   1
Atom  20C    basis set group =>   1
Atom  21H    basis set group =>   2
Atom  22C    basis set group =>   1
Atom  23C    basis set group =>   1
Atom  24H    basis set group =>   2
Atom  25C    basis set group =>   1
Atom  26H    basis set group =>   2
Atom  27C    basis set group =>   1
Atom  28C    basis set group =>   1
Atom  29N    basis set group =>   3
Atom  30N    basis set group =>   3
Atom  31C    basis set group =>   1
Atom  32C    basis set group =>   1
Atom  33N    basis set group =>   3
Atom  34N    basis set group =>   3
Atom  35C    basis set group =>   1
Atom  36C    basis set group =>   1
Atom  37N    basis set group =>   3
Atom  38N    basis set group =>   3
Atom  39C    basis set group =>   1
Atom  40C    basis set group =>   1
Atom  41N    basis set group =>   3
Atom  42N    basis set group =>   3
Atom  43H    basis set group =>   2
Atom  44H    basis set group =>   2
Atom  45H    basis set group =>   2
Atom  46H    basis set group =>   2
Atom  47H    basis set group =>   2
Atom  48H    basis set group =>   2
Atom  49H    basis set group =>   2
Atom  50C    basis set group =>   1
Atom  51C    basis set group =>   1
Atom  52C    basis set group =>   1
Atom  53C    basis set group =>   1
Atom  54H    basis set group =>   2
Atom  55C    basis set group =>   1
Atom  56H    basis set group =>   2
Atom  57C    basis set group =>   1
Atom  58H    basis set group =>   2
Atom  59H    basis set group =>   2
Atom  60C    basis set group =>   1
Atom  61H    basis set group =>   2
Atom  62H    basis set group =>   2
Atom  63H    basis set group =>   2
Atom  64H    basis set group =>   2
Atom  65H    basis set group =>   2
Atom  66H    basis set group =>   2
Atom  67H    basis set group =>   2
Atom  68C    basis set group =>   1
Atom  69H    basis set group =>   2
Atom  70H    basis set group =>   2
Atom  71C    basis set group =>   1
Atom  72H    basis set group =>   2
Atom  73H    basis set group =>   2
Atom  74C    basis set group =>   1
Atom  75H    basis set group =>   2
Atom  76H    basis set group =>   2
Atom  77H    basis set group =>   2
Atom  78H    basis set group =>   2
Atom  79H    basis set group =>   2
Atom  80H    basis set group =>   2
Atom  81C    basis set group =>   1
Atom  82H    basis set group =>   2
Atom  83H    basis set group =>   2
Atom  84C    basis set group =>   1
Atom  85H    basis set group =>   2
Atom  86H    basis set group =>   2
Atom  87C    basis set group =>   1
Atom  88H    basis set group =>   2
Atom  89H    basis set group =>   2
Atom  90H    basis set group =>   2
Atom  91H    basis set group =>   2
Atom  92H    basis set group =>   2
Atom  93H    basis set group =>   2
Atom  94C    basis set group =>   1
Atom  95H    basis set group =>   2
Atom  96C    basis set group =>   1
Atom  97H    basis set group =>   2
Atom  98H    basis set group =>   2
Atom  99C    basis set group =>   1
Atom 100H    basis set group =>   2
Atom 101H    basis set group =>   2
Atom 102H    basis set group =>   2
Atom 103H    basis set group =>   2
Atom 104H    basis set group =>   2
Atom 105H    basis set group =>   2

-------------------------------------
AUXILIARY/C BASIS SET IN INPUT FORMAT
-------------------------------------

 # Auxiliary/C basis set for element : H 
 NewAuxCGTO H 
 S 1 
   1       8.5128275910      1.0000000000
 S 1 
   1       1.8730891166      1.0000000000
 S 1 
   1       0.5261842694      1.0000000000
 S 1 
   1       0.2897398994      1.0000000000
 P 1 
   1       2.3725491635      1.0000000000
 P 1 
   1       1.1804084468      1.0000000000
 P 1 
   1       0.6038220424      1.0000000000
 D 1 
   1       1.8096373189      1.0000000000
 D 1 
   1       1.1439726055      1.0000000000
 F 1 
   1       1.8063060576      1.0000000000
  end;

 # Auxiliary/C basis set for element : C 
 NewAuxCGTO C 
 S 1 
   1     280.5566118800      1.0000000000
 S 1 
   1      60.2302471910      1.0000000000
 S 1 
   1      22.1166508240      1.0000000000
 S 1 
   1       6.8620932896      1.0000000000
 S 1 
   1       1.5622549539      1.0000000000
 S 1 
   1       0.9124504549      1.0000000000
 S 1 
   1       0.5027491704      1.0000000000
 S 1 
   1       0.2158234875      1.0000000000
 P 1 
   1      24.2318651760      1.0000000000
 P 1 
   1       6.4764514185      1.0000000000
 P 1 
   1       2.1290884677      1.0000000000
 P 1 
   1       1.0375639746      1.0000000000
 P 1 
   1       0.5494127505      1.0000000000
 P 1 
   1       0.2815265223      1.0000000000
 D 1 
   1       9.7189810815      1.0000000000
 D 1 
   1       3.0351475003      1.0000000000
 D 1 
   1       1.4677737562      1.0000000000
 D 1 
   1       0.5737082791      1.0000000000
 D 1 
   1       0.2905558967      1.0000000000
 F 1 
   1       2.2756201303      1.0000000000
 F 1 
   1       1.1968898852      1.0000000000
 F 1 
   1       0.5415748722      1.0000000000
 G 1 
   1       1.2166101638      1.0000000000
  end;

 # Auxiliary/C basis set for element : N 
 NewAuxCGTO N 
 S 1 
   1     287.5092694700      1.0000000000
 S 1 
   1      64.2760308980      1.0000000000
 S 1 
   1      21.6819240160      1.0000000000
 S 1 
   1       7.9068743193      1.0000000000
 S 1 
   1       2.4319673913      1.0000000000
 S 1 
   1       1.2226681474      1.0000000000
 S 1 
   1       0.7667482736      1.0000000000
 S 1 
   1       0.3115884699      1.0000000000
 P 1 
   1      34.9650273710      1.0000000000
 P 1 
   1      10.3238966480      1.0000000000
 P 1 
   1       2.8981582643      1.0000000000
 P 1 
   1       1.4077404555      1.0000000000
 P 1 
   1       0.8508338654      1.0000000000
 P 1 
   1       0.3735327414      1.0000000000
 D 1 
   1      13.9086370890      1.0000000000
 D 1 
   1       4.5847232531      1.0000000000
 D 1 
   1       2.2101848651      1.0000000000
 D 1 
   1       0.8376830121      1.0000000000
 D 1 
   1       0.4194837561      1.0000000000
 F 1 
   1       3.4730665788      1.0000000000
 F 1 
   1       1.5589463548      1.0000000000
 F 1 
   1       0.8467763824      1.0000000000
 G 1 
   1       1.7764066281      1.0000000000
  end;



           ************************************************************
           *        Program running with 32 parallel MPI-processes    *
           *              working on a common directory               *
           ************************************************************
------------------------------------------------------------------------------
                           ORCA GTO INTEGRAL CALCULATION
------------------------------------------------------------------------------

                         BASIS SET STATISTICS AND STARTUP INFO

 # of primitive gaussian shells          ... 1748
 # of primitive gaussian functions       ... 3396
 # of contracted shells                  ...  836
 # of contracted basis functions         ... 2284
 Highest angular momentum                ...    3
 Maximum contraction depth               ...    8
 Integral package used                   ... LIBINT
 Integral threshhold            Thresh   ...  2.500e-11
 Primitive cut-off              TCut     ...  2.500e-12


------------------------------ INTEGRAL EVALUATION ----------------------------


 * One electron integrals 
 Pre-screening matrix                    ... done
 Shell pair data                         ... done (   0.053 sec)



           ************************************************************
           *        Program running with 32 parallel MPI-processes    *
           *              working on a common directory               *
           ************************************************************
-------------------------------------------------------------------------------
                                 ORCA SCF
-------------------------------------------------------------------------------

------------
SCF SETTINGS
------------
Hamiltonian:
 Ab initio Hamiltonian  Method          .... Hartree-Fock(GTOs)


General Settings:
 Integral files         IntName         .... _o_2_alde1_4_ami3_1_opt_MP2
 Hartree-Fock type      HFTyp           .... RHF
 Total Charge           Charge          ....    0
 Multiplicity           Mult            ....    1
 Number of Electrons    NEL             ....  364
 Basis Dimension        Dim             .... 2284
 Nuclear Repulsion      ENuc            ....   6706.0090848784 Eh

Convergence Acceleration:
 DIIS                   CNVDIIS         .... on
   Start iteration      DIISMaxIt       ....     0
   Startup error        DIISStart       ....  0.200000
   # of expansion vecs  DIISMaxEq       ....     5
   Bias factor          DIISBfac        ....   1.050
   Max. coefficient     DIISMaxC        ....  10.000
 Newton-Raphson         CNVNR           .... off
 SOSCF                  CNVSOSCF        .... on
   Start iteration      SOSCFMaxIt      ....   150
   Startup grad/error   SOSCFStart      ....  0.001000
 Level Shifting         CNVShift        .... on
   Level shift para.    LevelShift      ....    0.2500
   Turn off err/grad.   ShiftErr        ....    0.0000
 Zerner damping         CNVZerner       .... off
 Static damping         CNVDamp         .... on
   Fraction old density DampFac         ....    0.8500
   Max. Damping (<1)    DampMax         ....    0.9800
   Min. Damping (>=0)   DampMin         ....    0.0000
   Turn off err/grad.   DampErr         ....    0.0300
 Fernandez-Rico         CNVRico         .... off

SCF Procedure:
 Maximum # iterations   MaxIter         ....   125
 SCF integral mode      SCFMode         .... Direct
   Integral package                     .... LIBINT
 Reset frequency        DirectResetFreq ....    20
 Integral Threshold     Thresh          ....  2.500e-11 Eh
 Primitive CutOff       TCut            ....  2.500e-12 Eh

Convergence Tolerance:
 Convergence Check Mode ConvCheckMode   .... Total+1el-Energy
 Convergence forced     ConvForced      .... 1
 Energy Change          TolE            ....  1.000e-08 Eh
 1-El. energy change                    ....  1.000e-05 Eh
 Orbital Gradient       TolG            ....  1.000e-05
 Orbital Rotation angle TolX            ....  1.000e-05
 DIIS Error             TolErr          ....  5.000e-07


Diagonalization of the overlap matrix:
Smallest eigenvalue                        ... 2.028e-05
Time for diagonalization                   ...   11.312 sec
Threshold for overlap eigenvalues          ... 1.000e-08
Number of eigenvalues below threshold      ... 0
Time for construction of square roots      ...    0.613 sec
Total time needed                          ...   11.930 sec

-------------------
DFT GRID GENERATION
-------------------

General Integration Accuracy     IntAcc      ...  5.340
Radial Grid Type                 RadialGrid  ... Gauss-Chebyshev
Angular Grid (max. acc.)         AngularGrid ... Lebedev-590
Angular grid pruning method      GridPruning ... 3 (G Style)
Weight generation scheme         WeightScheme... Becke
Basis function cutoff            BFCut       ...    1.0000e-11
Integration weight cutoff        WCut        ...    1.0000e-14
Grids for H and He will be reduced by one unit

# of grid points (after initial pruning)     ... 1441232 (   0.0 sec)
# of grid points (after weights+screening)   ... 1182628 (   2.6 sec)
nearest neighbour list constructed           ...    0.0 sec
Grid point re-assignment to atoms done       ...    0.2 sec
Grid point division into batches done        ...   11.3 sec
Reduced shell lists constructed in   12.4 sec

Total number of grid points                  ...  1182628
Total number of batches                      ...    18532
Average number of points per batch           ...       63
Average number of grid points per atom       ...    11157
Average number of shells per batch           ...   241.45 (28.88%)
Average number of basis functions per batch  ...   567.34 (24.84%)
Average number of large shells per batch     ...   126.80 (52.51%)
Average number of large basis fcns per batch ...   316.66 (55.81%)
Maximum spatial batch extension              ...  20.53, 14.00,  7.41 au
Average spatial batch extension              ...   0.03,  0.03,  0.03 au

Time for grid setup =   15.505 sec

------------------------------
INITIAL GUESS: MODEL POTENTIAL
------------------------------
Loading Hartree-Fock densities                     ... done
Calculating cut-offs                               ... done
Setting up the integral package                    ... done
Initializing the effective Hamiltonian             ... done
Starting the Coulomb interaction                   ... done (   1.0 sec)
Reading the grid                                   ... done
Mapping shells                                     ... done
Starting the XC term evaluation                    ... done (   0.9 sec)
Transforming the Hamiltonian                       ... done (   0.4 sec)
Diagonalizing the Hamiltonian                      ... done (   0.7 sec)
Back transforming the eigenvectors                 ... done (   0.3 sec)
Now organizing SCF variables                       ... done
                      ------------------
                      INITIAL GUESS DONE (  19.1 sec)
                      ------------------
--------------
SCF ITERATIONS
--------------
ITER       Energy         Delta-E        Max-DP      RMS-DP      [F,P]     Damp
               ***  Starting incremental Fock matrix formation  ***
  0  -2057.1085109064   0.000000000000 0.03186415  0.00016281  0.2497029 0.8500
  1  -2057.4935799599  -0.385069053544 0.04408096  0.00018118  0.2040532 0.8500
                               ***Turning on DIIS***
  2  -2057.8028075664  -0.309227606451 0.03831930  0.00015497  0.1621646 0.8500
  3  -2065.6008312973  -7.798023730944 0.02265809  0.00010725  0.1285729 0.8500
  4  -2068.8314426399  -3.230611342589 0.01195481  0.00007665  0.1058468 0.8500
  5  -2068.7237959631   0.107646676863 0.00713488  0.00006065  0.0894261 0.8500
  6  -2067.7676883308   0.956107632277 0.00611861  0.00005070  0.0763060 0.8500
  7  -2066.2418502584   1.525838072417 0.00523319  0.00004359  0.0653151 0.8500
  8  -2065.0323106568   1.209539601536 0.00446073  0.00003750  0.0557387 0.8500
  9  -2064.1167780243   0.915532632576 0.00379478  0.00003212  0.0474366 0.8500
 10  -2063.3805758555   0.736202168731 0.00322675  0.00002744  0.0403249 0.8500
 11  -2062.7617137222   0.618862133284 0.00274424  0.00002344  0.0342724 0.8500
 12  -2062.2318954078   0.529818314439 0.01556423  0.00013355  0.0291309 0.0000
                      *** Initiating the SOSCF procedure ***
                           *** Shutting down DIIS ***
                      *** Re-Reading the Fockian *** 
                      *** Removing any level shift *** 
ITER      Energy       Delta-E        Grad      Rot      Max-DP    RMS-DP
 13  -2059.29525797   2.9366374366  0.000392  0.000392  0.002325  0.000009
               *** Restarting incremental Fock matrix formation ***
 14  -2059.29547785  -0.0002198772  0.000291  0.000748  0.001423  0.000006
 15  -2059.29549495  -0.0000171043  0.000115  0.000599  0.001686  0.000006
 16  -2059.29549884  -0.0000038879  0.000068  0.000143  0.000152  0.000001
 17  -2059.29549931  -0.0000004650  0.000018  0.000067  0.000085  0.000000
 18  -2059.29549932  -0.0000000168  0.000013  0.000068  0.000080  0.000000
 19  -2059.29549919   0.0000001370  0.000006  0.000029  0.000041  0.000000
 20  -2059.29549924  -0.0000000593  0.000003  0.000010  0.000007  0.000000
                  ***Gradient check signals convergence***
              ***Rediagonalizing the Fockian in SOSCF/NRSCF***

               *****************************************************
               *                     SUCCESS                       *
               *           SCF CONVERGED AFTER  21 CYCLES          *
               *****************************************************


----------------
TOTAL SCF ENERGY
----------------

Total Energy       :        -2059.29549925 Eh          -56036.27936 eV

Components:
Nuclear Repulsion  :         6706.00908488 Eh          182479.78429 eV
Electronic Energy  :        -8765.30458412 Eh         -238516.06366 eV
One Electron Energy:       -16157.17271282 Eh         -439659.02135 eV
Two Electron Energy:         7391.86812870 Eh          201142.95769 eV

Virial components:
Potential Energy   :        -4116.84627810 Eh         -112025.08247 eV
Kinetic Energy     :         2057.55077886 Eh           55988.80311 eV
Virial Ratio       :            2.00084796


---------------
SCF CONVERGENCE
---------------

  Last Energy change         ...   -1.1150e-09  Tolerance :   1.0000e-08
  Last MAX-Density change    ...    8.6916e-06  Tolerance :   1.0000e-07
  Last RMS-Density change    ...    4.8526e-08  Tolerance :   5.0000e-09
  Last Orbital Gradient      ...    8.9774e-07  Tolerance :   1.0000e-05
  Last Orbital Rotation      ...    3.4771e-06  Tolerance :   1.0000e-05

             **** THE GBW FILE WAS UPDATED (_o_2_alde1_4_ami3_1_opt_MP2.gbw) ****
             **** DENSITY FILE WAS UPDATED (_o_2_alde1_4_ami3_1_opt_MP2.scfp) ****
             **** ENERGY FILE WAS UPDATED (_o_2_alde1_4_ami3_1_opt_MP2.en.tmp) ****
             **** THE GBW FILE WAS UPDATED (_o_2_alde1_4_ami3_1_opt_MP2.gbw) ****
             **** DENSITY FILE WAS UPDATED (_o_2_alde1_4_ami3_1_opt_MP2.scfp) ****
----------------
ORBITAL ENERGIES
----------------

  NO   OCC          E(Eh)            E(eV) 
   0   2.0000     -15.545854      -423.0242 
   1   2.0000     -15.545845      -423.0240 
   2   2.0000     -15.544257      -422.9807 
   3   2.0000     -15.544242      -422.9803 
   4   2.0000     -15.541946      -422.9179 
   5   2.0000     -15.541945      -422.9178 
   6   2.0000     -15.541035      -422.8931 
   7   2.0000     -15.541000      -422.8921 
   8   2.0000     -11.287238      -307.1414 
   9   2.0000     -11.287230      -307.1411 
  10   2.0000     -11.272484      -306.7399 
  11   2.0000     -11.272465      -306.7394 
  12   2.0000     -11.269130      -306.6486 
  13   2.0000     -11.269105      -306.6479 
  14   2.0000     -11.247360      -306.0562 
  15   2.0000     -11.247348      -306.0559 
  16   2.0000     -11.245704      -306.0112 
  17   2.0000     -11.245693      -306.0109 
  18   2.0000     -11.244766      -305.9856 
  19   2.0000     -11.244763      -305.9856 
  20   2.0000     -11.242487      -305.9236 
  21   2.0000     -11.242476      -305.9233 
  22   2.0000     -11.235820      -305.7422 
  23   2.0000     -11.235782      -305.7412 
  24   2.0000     -11.235250      -305.7267 
  25   2.0000     -11.235232      -305.7262 
  26   2.0000     -11.234643      -305.7102 
  27   2.0000     -11.234633      -305.7099 
  28   2.0000     -11.232446      -305.6504 
  29   2.0000     -11.232420      -305.6497 
  30   2.0000     -11.232014      -305.6386 
  31   2.0000     -11.231978      -305.6377 
  32   2.0000     -11.230298      -305.5919 
  33   2.0000     -11.230289      -305.5917 
  34   2.0000     -11.227358      -305.5119 
  35   2.0000     -11.227354      -305.5118 
  36   2.0000     -11.226776      -305.4961 
  37   2.0000     -11.226773      -305.4960 
  38   2.0000     -11.225684      -305.4664 
  39   2.0000     -11.225676      -305.4662 
  40   2.0000     -11.225419      -305.4592 
  41   2.0000     -11.225414      -305.4591 
  42   2.0000     -11.211791      -305.0884 
  43   2.0000     -11.211788      -305.0883 
  44   2.0000     -11.210721      -305.0592 
  45   2.0000     -11.210713      -305.0590 
  46   2.0000     -11.209784      -305.0337 
  47   2.0000     -11.209782      -305.0337 
  48   2.0000     -11.206714      -304.9502 
  49   2.0000     -11.206697      -304.9497 
  50   2.0000      -1.276775       -34.7428 
  51   2.0000      -1.276739       -34.7418 
  52   2.0000      -1.248415       -33.9711 
  53   2.0000      -1.246688       -33.9241 
  54   2.0000      -1.218404       -33.1545 
  55   2.0000      -1.213717       -33.0269 
  56   2.0000      -1.163389       -31.6574 
  57   2.0000      -1.155496       -31.4426 
  58   2.0000      -1.147370       -31.2215 
  59   2.0000      -1.147247       -31.2182 
  60   2.0000      -1.119362       -30.4594 
  61   2.0000      -1.116352       -30.3775 
  62   2.0000      -1.109285       -30.1852 
  63   2.0000      -1.102172       -29.9916 
  64   2.0000      -1.047541       -28.5050 
  65   2.0000      -1.046342       -28.4724 
  66   2.0000      -1.045332       -28.4449 
  67   2.0000      -1.043001       -28.3815 
  68   2.0000      -1.007636       -27.4192 
  69   2.0000      -1.007323       -27.4106 
  70   2.0000      -1.000701       -27.2305 
  71   2.0000      -0.995545       -27.0902 
  72   2.0000      -0.993682       -27.0395 
  73   2.0000      -0.982664       -26.7397 
  74   2.0000      -0.979200       -26.6454 
  75   2.0000      -0.977724       -26.6052 
  76   2.0000      -0.888398       -24.1745 
  77   2.0000      -0.884198       -24.0603 
  78   2.0000      -0.879927       -23.9440 
  79   2.0000      -0.873198       -23.7609 
  80   2.0000      -0.872398       -23.7392 
  81   2.0000      -0.858054       -23.3488 
  82   2.0000      -0.834865       -22.7178 
  83   2.0000      -0.834549       -22.7092 
  84   2.0000      -0.826243       -22.4832 
  85   2.0000      -0.824737       -22.4422 
  86   2.0000      -0.823189       -22.4001 
  87   2.0000      -0.814973       -22.1765 
  88   2.0000      -0.811189       -22.0736 
  89   2.0000      -0.803237       -21.8572 
  90   2.0000      -0.787533       -21.4299 
  91   2.0000      -0.783696       -21.3255 
  92   2.0000      -0.765242       -20.8233 
  93   2.0000      -0.761332       -20.7169 
  94   2.0000      -0.757602       -20.6154 
  95   2.0000      -0.751270       -20.4431 
  96   2.0000      -0.742025       -20.1915 
  97   2.0000      -0.733355       -19.9556 
  98   2.0000      -0.696372       -18.9493 
  99   2.0000      -0.691057       -18.8046 
 100   2.0000      -0.683630       -18.6025 
 101   2.0000      -0.683437       -18.5973 
 102   2.0000      -0.672892       -18.3103 
 103   2.0000      -0.669042       -18.2056 
 104   2.0000      -0.661423       -17.9982 
 105   2.0000      -0.661108       -17.9897 
 106   2.0000      -0.654263       -17.8034 
 107   2.0000      -0.644221       -17.5301 
 108   2.0000      -0.638853       -17.3841 
 109   2.0000      -0.638380       -17.3712 
 110   2.0000      -0.635154       -17.2834 
 111   2.0000      -0.634545       -17.2669 
 112   2.0000      -0.631291       -17.1783 
 113   2.0000      -0.627063       -17.0632 
 114   2.0000      -0.618967       -16.8429 
 115   2.0000      -0.617272       -16.7968 
 116   2.0000      -0.615743       -16.7552 
 117   2.0000      -0.608688       -16.5632 
 118   2.0000      -0.606516       -16.5041 
 119   2.0000      -0.600460       -16.3393 
 120   2.0000      -0.598174       -16.2771 
 121   2.0000      -0.592379       -16.1194 
 122   2.0000      -0.590459       -16.0672 
 123   2.0000      -0.588795       -16.0219 
 124   2.0000      -0.582493       -15.8504 
 125   2.0000      -0.581000       -15.8098 
 126   2.0000      -0.570037       -15.5115 
 127   2.0000      -0.569781       -15.5045 
 128   2.0000      -0.561415       -15.2769 
 129   2.0000      -0.559581       -15.2270 
 130   2.0000      -0.555037       -15.1033 
 131   2.0000      -0.554507       -15.0889 
 132   2.0000      -0.552065       -15.0224 
 133   2.0000      -0.552036       -15.0217 
 134   2.0000      -0.542561       -14.7638 
 135   2.0000      -0.541618       -14.7382 
 136   2.0000      -0.532541       -14.4912 
 137   2.0000      -0.530350       -14.4316 
 138   2.0000      -0.523947       -14.2573 
 139   2.0000      -0.523304       -14.2398 
 140   2.0000      -0.514867       -14.0103 
 141   2.0000      -0.509667       -13.8687 
 142   2.0000      -0.507019       -13.7967 
 143   2.0000      -0.506458       -13.7814 
 144   2.0000      -0.505834       -13.7644 
 145   2.0000      -0.503657       -13.7052 
 146   2.0000      -0.496435       -13.5087 
 147   2.0000      -0.494546       -13.4573 
 148   2.0000      -0.492362       -13.3979 
 149   2.0000      -0.488663       -13.2972 
 150   2.0000      -0.485227       -13.2037 
 151   2.0000      -0.482765       -13.1367 
 152   2.0000      -0.478724       -13.0267 
 153   2.0000      -0.477414       -12.9911 
 154   2.0000      -0.474228       -12.9044 
 155   2.0000      -0.465960       -12.6794 
 156   2.0000      -0.464884       -12.6501 
 157   2.0000      -0.464716       -12.6456 
 158   2.0000      -0.460567       -12.5327 
 159   2.0000      -0.460236       -12.5237 
 160   2.0000      -0.460183       -12.5222 
 161   2.0000      -0.459541       -12.5047 
 162   2.0000      -0.458383       -12.4732 
 163   2.0000      -0.454315       -12.3625 
 164   2.0000      -0.452436       -12.3114 
 165   2.0000      -0.448060       -12.1923 
 166   2.0000      -0.429871       -11.6974 
 167   2.0000      -0.419189       -11.4067 
 168   2.0000      -0.407649       -11.0927 
 169   2.0000      -0.402785       -10.9603 
 170   2.0000      -0.400280       -10.8922 
 171   2.0000      -0.398133       -10.8338 
 172   2.0000      -0.391979       -10.6663 
 173   2.0000      -0.391124       -10.6430 
 174   2.0000      -0.383585       -10.4379 
 175   2.0000      -0.383263       -10.4291 
 176   2.0000      -0.376390       -10.2421 
 177   2.0000      -0.376262       -10.2386 
 178   2.0000      -0.325372        -8.8538 
 179   2.0000      -0.316315        -8.6074 
 180   2.0000      -0.312232        -8.4963 
 181   2.0000      -0.311212        -8.4685 
 182   0.0000       0.078168         2.1271 
 183   0.0000       0.082652         2.2491 
 184   0.0000       0.105532         2.8717 
 185   0.0000       0.105834         2.8799 
 186   0.0000       0.115613         3.1460 
 187   0.0000       0.129929         3.5355 
 188   0.0000       0.135935         3.6990 
 189   0.0000       0.137357         3.7377 
 190   0.0000       0.140719         3.8292 
 191   0.0000       0.145713         3.9651 
 192   0.0000       0.148537         4.0419 
 193   0.0000       0.148647         4.0449 
 194   0.0000       0.152089         4.1386 
 195   0.0000       0.155103         4.2206 
 196   0.0000       0.163240         4.4420 
 197   0.0000       0.167425         4.5559 
 198   0.0000       0.167433         4.5561 
 199   0.0000       0.171063         4.6549 
 200   0.0000       0.172764         4.7012 
 201   0.0000       0.175695         4.7809 
 202   0.0000       0.177869         4.8401 
 203   0.0000       0.181876         4.9491 
 204   0.0000       0.185616         5.0509 
 205   0.0000       0.186190         5.0665 
 206   0.0000       0.188304         5.1240 
 207   0.0000       0.189431         5.1547 
 208   0.0000       0.196444         5.3455 
 209   0.0000       0.202828         5.5192 
 210   0.0000       0.205875         5.6021 
 211   0.0000       0.206315         5.6141 
 212   0.0000       0.208721         5.6796 
 213   0.0000       0.212389         5.7794 
 214   0.0000       0.213075         5.7981 
 215   0.0000       0.216097         5.8803 
 216   0.0000       0.218117         5.9353 
 217   0.0000       0.219652         5.9770 
 218   0.0000       0.220607         6.0030 
 219   0.0000       0.223765         6.0890 
 220   0.0000       0.225671         6.1408 
 221   0.0000       0.226130         6.1533 
 222   0.0000       0.229383         6.2418 
 223   0.0000       0.229973         6.2579 
 224   0.0000       0.233697         6.3592 
 225   0.0000       0.234202         6.3730 
 226   0.0000       0.236399         6.4327 
 227   0.0000       0.241132         6.5615 
 228   0.0000       0.244291         6.6475 
 229   0.0000       0.245216         6.6727 
 230   0.0000       0.249102         6.7784 
 231   0.0000       0.253731         6.9044 
 232   0.0000       0.256091         6.9686 
 233   0.0000       0.256631         6.9833 
 234   0.0000       0.259047         7.0490 
 235   0.0000       0.259206         7.0534 
 236   0.0000       0.263789         7.1781 
 237   0.0000       0.267763         7.2862 
 238   0.0000       0.272095         7.4041 
 239   0.0000       0.277769         7.5585 
 240   0.0000       0.284579         7.7438 
 241   0.0000       0.291529         7.9329 
 242   0.0000       0.295880         8.0513 
 243   0.0000       0.300421         8.1749 
 244   0.0000       0.303690         8.2638 
 245   0.0000       0.309384         8.4188 
 246   0.0000       0.309713         8.4277 
 247   0.0000       0.319069         8.6823 
 248   0.0000       0.319371         8.6905 
 249   0.0000       0.321712         8.7542 
 250   0.0000       0.322444         8.7741 
 251   0.0000       0.327278         8.9057 
 252   0.0000       0.328253         8.9322 
 253   0.0000       0.334150         9.0927 
 254   0.0000       0.338706         9.2167 
 255   0.0000       0.340012         9.2522 
 256   0.0000       0.340769         9.2728 
 257   0.0000       0.341642         9.2965 
 258   0.0000       0.348110         9.4726 
 259   0.0000       0.353073         9.6076 
 260   0.0000       0.355012         9.6604 
 261   0.0000       0.359371         9.7790 
 262   0.0000       0.361342         9.8326 
 263   0.0000       0.362883         9.8745 
 264   0.0000       0.366947         9.9851 
 265   0.0000       0.369301        10.0492 
 266   0.0000       0.372138        10.1264 
 267   0.0000       0.373885        10.1739 
 268   0.0000       0.375051        10.2057 
 269   0.0000       0.378798        10.3076 
 270   0.0000       0.382640        10.4122 
 271   0.0000       0.382763        10.4155 
 272   0.0000       0.384019        10.4497 
 273   0.0000       0.385043        10.4776 
 274   0.0000       0.390099        10.6151 
 275   0.0000       0.394384        10.7317 
 276   0.0000       0.395533        10.7630 
 277   0.0000       0.397618        10.8197 
 278   0.0000       0.397904        10.8275 
 279   0.0000       0.401142        10.9156 
 280   0.0000       0.403502        10.9798 
 281   0.0000       0.405306        11.0289 
 282   0.0000       0.407355        11.0847 
 283   0.0000       0.407635        11.0923 
 284   0.0000       0.411310        11.1923 
 285   0.0000       0.411507        11.1977 
 286   0.0000       0.411948        11.2097 
 287   0.0000       0.417404        11.3581 
 288   0.0000       0.420647        11.4464 
 289   0.0000       0.424311        11.5461 
 290   0.0000       0.425172        11.5695 
 291   0.0000       0.427308        11.6277 
 292   0.0000       0.429636        11.6910 
 293   0.0000       0.436569        11.8796 
 294   0.0000       0.437017        11.8918 
 295   0.0000       0.438335        11.9277 
 296   0.0000       0.443161        12.0590 
 297   0.0000       0.443569        12.0701 
 298   0.0000       0.444339        12.0911 
 299   0.0000       0.449714        12.2373 
 300   0.0000       0.453407        12.3378 
 301   0.0000       0.454351        12.3635 
 302   0.0000       0.459408        12.5011 
 303   0.0000       0.459691        12.5088 
 304   0.0000       0.462218        12.5776 
 305   0.0000       0.463753        12.6193 
 306   0.0000       0.466361        12.6903 
 307   0.0000       0.468417        12.7463 
 308   0.0000       0.472804        12.8657 
 309   0.0000       0.475634        12.9427 
 310   0.0000       0.477411        12.9910 
 311   0.0000       0.478314        13.0156 
 312   0.0000       0.481010        13.0889 
 313   0.0000       0.487800        13.2737 
 314   0.0000       0.489107        13.3093 
 315   0.0000       0.495770        13.4906 
 316   0.0000       0.495963        13.4958 
 317   0.0000       0.496928        13.5221 
 318   0.0000       0.499022        13.5791 
 319   0.0000       0.500227        13.6119 
 320   0.0000       0.508142        13.8273 
 321   0.0000       0.511767        13.9259 
 322   0.0000       0.514724        14.0064 
 323   0.0000       0.515984        14.0406 
 324   0.0000       0.517851        14.0915 
 325   0.0000       0.518697        14.1145 
 326   0.0000       0.523668        14.2497 
 327   0.0000       0.524156        14.2630 
 328   0.0000       0.525817        14.3082 
 329   0.0000       0.530867        14.4456 
 330   0.0000       0.532667        14.4946 
 331   0.0000       0.533535        14.5182 
 332   0.0000       0.534453        14.5432 
 333   0.0000       0.536869        14.6090 
 334   0.0000       0.540021        14.6947 
 335   0.0000       0.543748        14.7961 
 336   0.0000       0.547848        14.9077 
 337   0.0000       0.548225        14.9180 
 338   0.0000       0.551985        15.0203 
 339   0.0000       0.553458        15.0604 
 340   0.0000       0.555984        15.1291 
 341   0.0000       0.559163        15.2156 
 342   0.0000       0.560164        15.2428 
 343   0.0000       0.561824        15.2880 
 344   0.0000       0.563888        15.3442 
 345   0.0000       0.564469        15.3600 
 346   0.0000       0.565825        15.3969 
 347   0.0000       0.567165        15.4333 
 348   0.0000       0.571054        15.5392 
 349   0.0000       0.574582        15.6352 
 350   0.0000       0.577220        15.7069 
 351   0.0000       0.578594        15.7443 
 352   0.0000       0.580155        15.7868 
 353   0.0000       0.580904        15.8072 
 354   0.0000       0.582655        15.8548 
 355   0.0000       0.584756        15.9120 
 356   0.0000       0.587363        15.9830 
 357   0.0000       0.588199        16.0057 
 358   0.0000       0.589841        16.0504 
 359   0.0000       0.594252        16.1704 
 360   0.0000       0.594304        16.1718 
 361   0.0000       0.596660        16.2359 
 362   0.0000       0.597791        16.2667 
 363   0.0000       0.598892        16.2967 
 364   0.0000       0.599632        16.3168 
 365   0.0000       0.601330        16.3630 
 366   0.0000       0.603963        16.4347 
 367   0.0000       0.605280        16.4705 
 368   0.0000       0.607274        16.5248 
 369   0.0000       0.609241        16.5783 
 370   0.0000       0.609827        16.5942 
 371   0.0000       0.612342        16.6627 
 372   0.0000       0.613900        16.7051 
 373   0.0000       0.614481        16.7209 
 374   0.0000       0.615258        16.7420 
 375   0.0000       0.617363        16.7993 
 376   0.0000       0.617811        16.8115 
 377   0.0000       0.620147        16.8750 
 378   0.0000       0.622044        16.9267 
 379   0.0000       0.623345        16.9621 
 380   0.0000       0.627721        17.0811 
 381   0.0000       0.630126        17.1466 
 382   0.0000       0.630460        17.1557 
 383   0.0000       0.632077        17.1997 
 384   0.0000       0.633883        17.2488 
 385   0.0000       0.634438        17.2639 
 386   0.0000       0.635302        17.2874 
 387   0.0000       0.639733        17.4080 
 388   0.0000       0.641113        17.4456 
 389   0.0000       0.643063        17.4986 
 390   0.0000       0.644813        17.5463 
 391   0.0000       0.645702        17.5704 
 392   0.0000       0.649004        17.6603 
 393   0.0000       0.649940        17.6858 
 394   0.0000       0.652163        17.7462 
 395   0.0000       0.653679        17.7875 
 396   0.0000       0.654873        17.8200 
 397   0.0000       0.656202        17.8562 
 398   0.0000       0.658142        17.9089 
 399   0.0000       0.661021        17.9873 
 400   0.0000       0.661788        18.0082 
 401   0.0000       0.662741        18.0341 
 402   0.0000       0.668326        18.1861 
 403   0.0000       0.669319        18.2131 
 404   0.0000       0.670289        18.2395 
[...]
      pz      :     0.046972  p :     0.154013
      px      :     0.040867
      py      :     0.066174
      dz2     :     0.004622  d :     0.028847
      dxz     :     0.002851
      dyz     :     0.007949
      dx2y2   :     0.006731
      dxy     :     0.006694


                      *****************************
                      * MAYER POPULATION ANALYSIS *
                      *****************************

  NA   - Mulliken gross atomic population
  ZA   - Total nuclear charge
  QA   - Mulliken gross atomic charge
  VA   - Mayer's total valence
  BVA  - Mayer's bonded valence
  FA   - Mayer's free valence

  ATOM       NA         ZA         QA         VA         BVA        FA
  0 C      5.8202     6.0000     0.1798     3.5724     3.5724    -0.0000
  1 C      6.1051     6.0000    -0.1051     4.0369     4.0369    -0.0000
  2 C      6.2356     6.0000    -0.2356     3.8987     3.8987     0.0000
  3 C      5.9474     6.0000     0.0526     3.7405     3.7405    -0.0000
  4 H      0.8254     1.0000     0.1746     1.0128     1.0128     0.0000
  5 C      6.2616     6.0000    -0.2616     3.8834     3.8834    -0.0000
  6 C      5.7769     6.0000     0.2231     3.5618     3.5618    -0.0000
  7 H      0.8314     1.0000     0.1686     1.0138     1.0138    -0.0000
  8 C      6.2372     6.0000    -0.2372     3.9246     3.9246    -0.0000
  9 C      6.0982     6.0000    -0.0982     4.0397     4.0397    -0.0000
 10 H      0.8412     1.0000     0.1588     1.0123     1.0123    -0.0000
 11 C      5.9341     6.0000     0.0659     4.1066     4.1066    -0.0000
 12 H      0.9164     1.0000     0.0836     1.0013     1.0013    -0.0000
 13 H      0.8993     1.0000     0.1007     0.9969     0.9969    -0.0000
 14 C      5.7770     6.0000     0.2230     3.5621     3.5621    -0.0000
 15 C      6.0980     6.0000    -0.0980     4.0398     4.0398    -0.0000
 16 C      6.2373     6.0000    -0.2373     3.9245     3.9245    -0.0000
 17 C      5.8202     6.0000     0.1798     3.5724     3.5724    -0.0000
 18 H      0.8412     1.0000     0.1588     1.0122     1.0122    -0.0000
 19 C      6.2357     6.0000    -0.2357     3.8988     3.8988    -0.0000
 20 C      5.9472     6.0000     0.0528     3.7402     3.7402    -0.0000
 21 H      0.8254     1.0000     0.1746     1.0128     1.0128    -0.0000
 22 C      6.2616     6.0000    -0.2616     3.8837     3.8837     0.0000
 23 C      5.9343     6.0000     0.0657     4.1066     4.1066    -0.0000
 24 H      0.8314     1.0000     0.1686     1.0137     1.0137    -0.0000
 25 C      6.1049     6.0000    -0.1049     4.0367     4.0367    -0.0000
 26 H      0.8995     1.0000     0.1005     0.9969     0.9969    -0.0000
 27 C      5.9104     6.0000     0.0896     3.8367     3.8367    -0.0000
 28 C      5.9027     6.0000     0.0973     3.8352     3.8352    -0.0000
 29 N      7.2926     7.0000    -0.2926     2.9755     2.9755    -0.0000
 30 N      7.2881     7.0000    -0.2881     2.9793     2.9793    -0.0000
 31 C      5.9534     6.0000     0.0466     3.8324     3.8324    -0.0000
 32 C      5.9555     6.0000     0.0445     3.9011     3.9011    -0.0000
 33 N      7.2846     7.0000    -0.2846     2.9901     2.9901    -0.0000
 34 N      7.2875     7.0000    -0.2875     3.0123     3.0123    -0.0000
 35 C      5.9104     6.0000     0.0896     3.8368     3.8368    -0.0000
 36 C      5.9028     6.0000     0.0972     3.8353     3.8353    -0.0000
 37 N      7.2926     7.0000    -0.2926     2.9756     2.9756    -0.0000
 38 N      7.2881     7.0000    -0.2881     2.9792     2.9792    -0.0000
 39 C      5.9555     6.0000     0.0445     3.9012     3.9012    -0.0000
 40 C      5.9535     6.0000     0.0465     3.8325     3.8325    -0.0000
 41 N      7.2875     7.0000    -0.2875     3.0123     3.0123    -0.0000
 42 N      7.2846     7.0000    -0.2846     2.9901     2.9901    -0.0000
 43 H      0.9164     1.0000     0.0836     1.0014     1.0014    -0.0000
 44 H      0.8929     1.0000     0.1071     1.0435     1.0435    -0.0000
 45 H      0.8866     1.0000     0.1134     0.9859     0.9859    -0.0000
 46 H      0.9081     1.0000     0.0919     1.0415     1.0415    -0.0000
 47 H      0.8929     1.0000     0.1071     1.0435     1.0435    -0.0000
 48 H      0.9081     1.0000     0.0919     1.0415     1.0415    -0.0000
 49 H      0.8865     1.0000     0.1135     0.9859     0.9859    -0.0000
 50 C      6.2245     6.0000    -0.2245     3.8890     3.8890    -0.0000
 51 C      6.2292     6.0000    -0.2292     3.8837     3.8837    -0.0000
 52 C      6.2030     6.0000    -0.2030     3.8797     3.8797    -0.0000
 53 C      6.2034     6.0000    -0.2034     3.8808     3.8808    -0.0000
 54 H      0.9228     1.0000     0.0772     1.0013     1.0013    -0.0000
 55 C      6.2034     6.0000    -0.2034     3.8808     3.8808    -0.0000
 56 H      0.9233     1.0000     0.0767     1.0004     1.0004    -0.0000
 57 C      6.2044     6.0000    -0.2044     3.8638     3.8638    -0.0000
 58 H      0.9036     1.0000     0.0964     0.9945     0.9945    -0.0000
 59 H      0.8915     1.0000     0.1085     0.9889     0.9889    -0.0000
 60 C      6.2058     6.0000    -0.2058     3.8634     3.8634    -0.0000
 61 H      0.8890     1.0000     0.1110     0.9790     0.9790    -0.0000
 62 H      0.9128     1.0000     0.0872     0.9854     0.9854    -0.0000
 63 H      0.9127     1.0000     0.0873     0.9848     0.9848    -0.0000
 64 H      0.8886     1.0000     0.1114     0.9787     0.9787    -0.0000
 65 H      0.9014     1.0000     0.0986     0.9934     0.9934    -0.0000
 66 H      0.8936     1.0000     0.1064     0.9894     0.9894    -0.0000
 67 H      0.9072     1.0000     0.0928     1.0002     1.0002    -0.0000
 68 C      6.2275     6.0000    -0.2275     3.8479     3.8479    -0.0000
 69 H      0.8725     1.0000     0.1275     0.9802     0.9802    -0.0000
 70 H      0.9208     1.0000     0.0792     0.9857     0.9857    -0.0000
 71 C      6.2161     6.0000    -0.2161     3.8578     3.8578    -0.0000
 72 H      0.8915     1.0000     0.1085     0.9847     0.9847    -0.0000
 73 H      0.8746     1.0000     0.1254     0.9723     0.9723    -0.0000
 74 C      6.2244     6.0000    -0.2244     3.8890     3.8890    -0.0000
 75 H      0.8824     1.0000     0.1176     0.9784     0.9784    -0.0000
 76 H      0.9015     1.0000     0.0985     0.9750     0.9750    -0.0000
 77 H      0.9095     1.0000     0.0905     0.9923     0.9923    -0.0000
 78 H      0.8781     1.0000     0.1219     0.9808     0.9808    -0.0000
 79 H      0.9163     1.0000     0.0837     0.9942     0.9942    -0.0000
 80 H      0.9164     1.0000     0.0836     0.9942     0.9942    -0.0000
 81 C      6.2160     6.0000    -0.2160     3.8578     3.8578    -0.0000
 82 H      0.8782     1.0000     0.1218     0.9808     0.9808    -0.0000
 83 H      0.9095     1.0000     0.0905     0.9923     0.9923    -0.0000
 84 C      6.2274     6.0000    -0.2274     3.8478     3.8478    -0.0000
 85 H      0.9015     1.0000     0.0985     0.9750     0.9750    -0.0000
 86 H      0.8824     1.0000     0.1176     0.9784     0.9784    -0.0000
 87 C      6.2293     6.0000    -0.2293     3.8837     3.8837    -0.0000
 88 H      0.8746     1.0000     0.1254     0.9723     0.9723    -0.0000
 89 H      0.8915     1.0000     0.1085     0.9847     0.9847    -0.0000
 90 H      0.8725     1.0000     0.1275     0.9802     0.9802    -0.0000
 91 H      0.9208     1.0000     0.0792     0.9857     0.9857    -0.0000
 92 H      0.9072     1.0000     0.0928     1.0002     1.0002    -0.0000
 93 H      0.9233     1.0000     0.0767     1.0004     1.0004    -0.0000
 94 C      6.2030     6.0000    -0.2030     3.8797     3.8797    -0.0000
 95 H      0.9228     1.0000     0.0772     1.0013     1.0013    -0.0000
 96 C      6.2058     6.0000    -0.2058     3.8634     3.8634    -0.0000
 97 H      0.9014     1.0000     0.0986     0.9934     0.9934    -0.0000
 98 H      0.8936     1.0000     0.1064     0.9894     0.9894    -0.0000
 99 C      6.2044     6.0000    -0.2044     3.8638     3.8638    -0.0000
100 H      0.8886     1.0000     0.1114     0.9787     0.9787    -0.0000
101 H      0.9127     1.0000     0.0873     0.9848     0.9848    -0.0000
102 H      0.9128     1.0000     0.0872     0.9853     0.9853    -0.0000
103 H      0.8890     1.0000     0.1110     0.9790     0.9790    -0.0000
104 H      0.9036     1.0000     0.0964     0.9945     0.9945    -0.0000
105 H      0.8916     1.0000     0.1084     0.9889     0.9889    -0.0000

  Mayer bond orders larger than 0.100000
B(  0-C ,  1-C ) :   1.0096 B(  0-C ,  2-C ) :   1.3029 B(  0-C ,  8-C ) :   1.3483 
B(  1-C , 13-H ) :   0.9886 B(  1-C , 30-N ) :   1.9608 B(  2-C ,  3-C ) :   1.3884 
B(  2-C ,  4-H ) :   0.9574 B(  3-C ,  5-C ) :   1.3288 B(  3-C , 11-C ) :   1.0377 
B(  5-C ,  6-C ) :   1.3494 B(  5-C ,  7-H ) :   0.9542 B(  6-C ,  8-C ) :   1.3197 
B(  6-C ,  9-C ) :   0.9917 B(  8-C , 10-H ) :   0.9635 B(  9-C , 12-H ) :   0.9889 
B(  9-C , 37-N ) :   1.9759 B( 11-C , 33-N ) :   1.0183 B( 11-C , 34-N ) :   1.0297 
B( 11-C , 49-H ) :   0.9881 B( 14-C , 15-C ) :   0.9918 B( 14-C , 16-C ) :   1.3197 
B( 14-C , 22-C ) :   1.3495 B( 15-C , 29-N ) :   1.9758 B( 15-C , 43-H ) :   0.9889 
B( 16-C , 17-C ) :   1.3482 B( 16-C , 18-H ) :   0.9635 B( 17-C , 19-C ) :   1.3030 
B( 17-C , 25-C ) :   1.0096 B( 19-C , 20-C ) :   1.3884 B( 19-C , 21-H ) :   0.9574 
B( 20-C , 22-C ) :   1.3288 B( 20-C , 23-C ) :   1.0376 B( 22-C , 24-H ) :   0.9542 
B( 23-C , 41-N ) :   1.0297 B( 23-C , 42-N ) :   1.0184 B( 23-C , 45-H ) :   0.9882 
B( 25-C , 26-H ) :   0.9886 B( 25-C , 38-N ) :   1.9607 B( 27-C , 28-C ) :   0.9315 
B( 27-C , 29-N ) :   0.9376 B( 27-C , 52-C ) :   0.9505 B( 27-C , 54-H ) :   0.9714 
B( 28-C , 30-N ) :   0.9379 B( 28-C , 55-C ) :   0.9546 B( 28-C , 56-H ) :   0.9736 
B( 31-C , 32-C ) :   0.9325 B( 31-C , 33-N ) :   0.9858 B( 31-C , 74-C ) :   0.9611 
B( 31-C , 79-H ) :   0.9662 B( 32-C , 34-N ) :   1.0239 B( 32-C , 51-C ) :   0.9757 
B( 32-C , 67-H ) :   0.9764 B( 33-N , 48-H ) :   0.9943 B( 34-N , 47-H ) :   0.9916 
B( 35-C , 36-C ) :   0.9316 B( 35-C , 37-N ) :   0.9376 B( 35-C , 94-C ) :   0.9505 
B( 35-C , 95-H ) :   0.9714 B( 36-C , 38-N ) :   0.9379 B( 36-C , 53-C ) :   0.9546 
B( 36-C , 93-H ) :   0.9736 B( 39-C , 40-C ) :   0.9324 B( 39-C , 41-N ) :   1.0239 
B( 39-C , 87-C ) :   0.9758 B( 39-C , 92-H ) :   0.9764 B( 40-C , 42-N ) :   0.9858 
B( 40-C , 50-C ) :   0.9612 B( 40-C , 80-H ) :   0.9662 B( 41-N , 44-H ) :   0.9917 
B( 42-N , 46-H ) :   0.9943 B( 50-C , 81-C ) :   0.9533 B( 50-C , 82-H ) :   0.9900 
B( 50-C , 83-H ) :   0.9823 B( 51-C , 68-C ) :   0.9448 B( 51-C , 69-H ) :   0.9871 
B( 51-C , 70-H ) :   0.9808 B( 52-C , 60-C ) :   0.9416 B( 52-C , 65-H ) :   0.9832 
B( 52-C , 66-H ) :   0.9917 B( 53-C , 99-C ) :   0.9440 B( 53-C ,104-H ) :   0.9843 
B( 53-C ,105-H ) :   0.9918 B( 55-C , 57-C ) :   0.9440 B( 55-C , 58-H ) :   0.9843 
B( 55-C , 59-H ) :   0.9918 B( 57-C , 60-C ) :   0.9441 B( 57-C , 61-H ) :   0.9959 
B( 57-C , 62-H ) :   0.9849 B( 60-C , 63-H ) :   0.9849 B( 60-C , 64-H ) :   0.9953 
B( 68-C , 71-C ) :   0.9398 B( 68-C , 72-H ) :   0.9863 B( 68-C , 73-H ) :   0.9905 
B( 71-C , 74-C ) :   0.9534 B( 71-C , 75-H ) :   0.9930 B( 71-C , 76-H ) :   0.9853 
B( 74-C , 77-H ) :   0.9823 B( 74-C , 78-H ) :   0.9900 B( 81-C , 84-C ) :   0.9398 
B( 81-C , 85-H ) :   0.9853 B( 81-C , 86-H ) :   0.9930 B( 84-C , 87-C ) :   0.9448 
B( 84-C , 88-H ) :   0.9905 B( 84-C , 89-H ) :   0.9863 B( 87-C , 90-H ) :   0.9871 
B( 87-C , 91-H ) :   0.9808 B( 94-C , 96-C ) :   0.9416 B( 94-C , 97-H ) :   0.9832 
B( 94-C , 98-H ) :   0.9917 B( 96-C , 99-C ) :   0.9442 B( 96-C ,100-H ) :   0.9953 
B( 96-C ,101-H ) :   0.9849 B( 99-C ,102-H ) :   0.9849 B( 99-C ,103-H ) :   0.9959 


-------
TIMINGS
-------

Total SCF time: 0 days 0 hours 51 min 52 sec 

Total time                  ....    3112.395 sec
Sum of individual times     ....    3083.269 sec  ( 99.1%)

Fock matrix formation       ....    2954.504 sec  ( 94.9%)
Diagonalization             ....      16.375 sec  (  0.5%)
Density matrix formation    ....       1.100 sec  (  0.0%)
Population analysis         ....       9.831 sec  (  0.3%)
Initial guess               ....       3.550 sec  (  0.1%)
Orbital Transformation      ....       0.000 sec  (  0.0%)
Orbital Orthonormalization  ....       0.000 sec  (  0.0%)
DIIS solution               ....      72.573 sec  (  2.3%)
SOSCF solution              ....       9.831 sec  (  0.3%)


           ************************************************************
           *        Program running with 32 parallel MPI-processes    *
           *              working on a common directory               *
           ************************************************************

------------------------------------------------------------------------------
                                ORCA  MP2 
------------------------------------------------------------------------------

Freezing NCore=100 chemical core electrons

-------------
RI-MP2 ENERGY
-------------
Dimension of the basis                    ... 2284
Memory devoted to MP2                     ... 3000 MB   
Data format for buffers                   ... DOUBLE
Compression type for matrix containers    ... UNCOMPRESSED
Overall scaling of the MP2 energy         ...   1.000e+00
Calculating two index integrals           ... done (    0.344 sec)
Cholesky decomposition of V**-1           ... done (    4.929 sec)

-----------------
RI-TRANSFORMATION (AUX index driven)
-----------------

Dimension of the orbital-basis         ... 2284
Dimension of the aux-basis             ... 5730
Transformation of internal/external MOs...   50- 181 to  182-2283
Number Format for Storage              ... Double (8 Byte)
Integral mode                          ... Direct

First Phase: integral generation and transformation of MO indices
  Aux angular momentum 0               ... done (    6.501 sec)
  Aux angular momentum 1               ... done (   13.605 sec)
  Aux angular momentum 2               ... done (   17.937 sec)
  Aux angular momentum 3               ... done (   14.633 sec)
  Aux angular momentum 4               ... done (    5.384 sec)
Closing buffer VIA (11.85 GB; CompressionRatio= 1.00)
  Phase 1 completed in    58.507 sec
Second Phase: sorting and transformation of aux index

IA-Transformation
Memory available                       ... 2333 MB 
Max. # MO pairs treated in a batch     ... 5    
# of internal orbitals                 ... 132
# batches for internal orbitals        ... 1
Closing buffer IAV ( 0.45 GB; CompressionRatio= 1.00)
(ia|v) transformation done in    70.609 sec

  Phase 2 completed in    89.443 sec
RI-Integral transformation completed in   148.082 sec
Opening buffers                              ... done

Starting loop over batches of integrals:

Operator 0  - window                       ... ( 50-181)x(182-2283)
Operator 0  - Memory available             ...  3000 MB
Operator 0  - Memory needed per MO         ...  91.9 MB
Operator 0  - Number of orbitals per batch ... 5
Operator 0  - Number of batches            ... 1

OPERATOR  0   PASS   0:  MOs    50 ...   54 +   55 ...   59 +   60 ...   64 +   65 ...   69
                            +   70 ...   74 +   75 ...   79 +   80 ...   84 +   85 ...   89
                            +   90 ...   94 +   95 ...   99 +  100 ...  104 +  105 ...  109
                            +  110 ...  114 +  115 ...  119 +  120 ...  124 +  125 ...  129
                            +  130 ...  134 +  135 ...  139 +  140 ...  144 +  145 ...  149
                            +  150 ...  154 +  155 ...  159 +  160 ...  164 +  165 ...  169
                            +  170 ...  174 +  175 ...  179 +  180 ...  181
  Reading integrals       ... ok
  Internal MO  52
Time spent in pair loops =    74.666 sec
Deleting buffer (Ka|jb)[aa] ...done

-----------------------------------------------
 RI-MP2 CORRELATION ENERGY:     -8.559192437 Eh
-----------------------------------------------


-------
TIMINGS
-------

Total time                : 3331.817 sec
Integral trafo            :  148.085 sec (  4.4%)
I/O of integrals          :    0.266 sec (  0.0%)
K(i,j) Operators          :   73.702 sec (  2.2%)
T(i,j) pair energies      :    0.458 sec (  0.0%)
V-calculation             :    0.344 sec (  0.0%)
V**(-1/2)                 :    4.929 sec (  0.1%)
Gamma(ia|P)               :    0.000 sec (  0.0%)
Gamma-Trafo               :    0.000 sec (  0.0%)
D(virtual)                :    0.000 sec (  0.0%)
D(internal)               :    0.000 sec (  0.0%)
W(virtual)                :    0.000 sec (  0.0%)
W(internal)               :    0.000 sec (  0.0%)
L(virtual)                :    0.000 sec (  0.0%)
L(internal)               :    0.000 sec (  0.0%)
G(D)                      :    0.000 sec (  0.0%)
G(Z)                      :    0.000 sec (  0.0%)
Z-Vector Solution         :    0.000 sec (  0.0%)
3-Index Derivative        :    0.000 sec (  0.0%)
2-Index Derivative        :    0.000 sec (  0.0%)
Separable Gradient        :    0.000 sec (  0.0%)


---------------------------------------
MP2 TOTAL ENERGY:    -2067.854691683 Eh
---------------------------------------

-------------------------   --------------------
FINAL SINGLE POINT ENERGY     -2067.854691682842
-------------------------   --------------------


                            ***************************************
                            *     ORCA property calculations      *
                            ***************************************


  WARNING: The energy has been calculated at the MP2 level but the densities
           used in the property calculations are still SCF densities
           MP2 response densities have not been calculated 
           use %mp2 Density relaxed end
           or  %mp2 Density unrelaxed end

                                    ---------------------
                                    Active property flags
                                    ---------------------
   (+) Dipole Moment


------------------------------------------------------------------------------
                       ORCA ELECTRIC PROPERTIES CALCULATION
------------------------------------------------------------------------------

Dipole Moment Calculation                       ... on
Quadrupole Moment Calculation                   ... off
Polarizability Calculation                      ... off
GBWName                                         ... _o_2_alde1_4_ami3_1_opt_MP2.gbw
Electron density file                           ... _o_2_alde1_4_ami3_1_opt_MP2.scfp
The origin for moment calculation is the CENTER OF MASS  = (-2.993813, -1.071449 -2.965852)

-------------
DIPOLE MOMENT
-------------
                                X             Y             Z
Electronic contribution:    -19.92966       9.45229       9.00845
Nuclear contribution   :     21.39924     -10.14808      -9.67367
                        -----------------------------------------
Total Dipole Moment    :      1.46958      -0.69578      -0.66521
                        -----------------------------------------
Magnitude (a.u.)       :      1.75679
Magnitude (Debye)      :      4.46540



--------------------
Rotational spectrum 
--------------------
 
Rotational constants in cm-1:     0.001692     0.001552     0.001232 
Rotational constants in MHz :    50.736023    46.527348    36.921564 

 Dipole components along the rotational axes: 
x,y,z [a.u.] :     1.756785     0.001944     0.000881 
x,y,z [Debye]:     4.465394     0.004941     0.002240 

 

Timings for individual modules:

Sum of individual times         ...     7083.447 sec (= 118.057 min)
GTO integral calculation        ...      123.496 sec (=   2.058 min)   1.7 %
SCF iterations                  ...     3302.869 sec (=  55.048 min)  46.6 %
MP2 module                      ...     3657.081 sec (=  60.951 min)  51.6 %
                             ****ORCA TERMINATED NORMALLY****
TOTAL RUN TIME: 0 days 2 hours 0 minutes 47 seconds 403 msec
