Job execution start: Sat Nov  6 18:19:42 GMT 2021
Shared library path: /work/e05/e05/atarzia/orca_4_2_1_linux_x86-64_openmpi314:/work/e05/e05/atarzia/openmpi-3.1.4/lib:/opt/cray/pe/papi/6.0.0.4/lib64:/opt/cray/libfabric/1.11.0.0.233/lib64
Slurm Job ID is: 621534
Slurm Job name is: o_2_alde1_4_ami3_1_opt_B97-3c
nid001741

                                 *****************
                                 * O   R   C   A *
                                 *****************

           --- An Ab Initio, DFT and Semiempirical electronic structure package ---

                  #######################################################
                  #                        -***-                        #
                  #          Department of theory and spectroscopy      #
                  #               Directorship: Frank Neese             #
                  #        Max Planck Institute fuer Kohlenforschung    #
                  #                Kaiser Wilhelm Platz 1               #
                  #                 D-45470 Muelheim/Ruhr               #
                  #                      Germany                        #
                  #                                                     #
                  #                  All rights reserved                #
                  #                        -***-                        #
                  #######################################################


                         Program Version 4.2.1 -  RELEASE  -


 With contributions from (in alphabetic order):
   Daniel Aravena         : Magnetic Suceptibility
   Michael Atanasov       : Ab Initio Ligand Field Theory (pilot matlab implementation)
   Alexander A. Auer      : GIAO ZORA, VPT2
   Ute Becker             : Parallelization
   Giovanni Bistoni       : ED, misc. LED, open-shell LED, HFLD
   Martin Brehm           : Molecular dynamics
   Dmytro Bykov           : SCF Hessian
   Vijay G. Chilkuri      : MRCI spin determinant printing, contributions to CSF-ICE
   Dipayan Datta          : RHF DLPNO-CCSD density
   Achintya Kumar Dutta   : EOM-CC, STEOM-CC
   Dmitry Ganyushin       : Spin-Orbit,Spin-Spin,Magnetic field MRCI
   Miquel Garcia          : C-PCM Hessian, Gaussian charge scheme
   Yang Guo               : DLPNO-NEVPT2, CIM, IAO-localization
   Andreas Hansen         : Spin unrestricted coupled pair/coupled cluster methods
   Benjamin Helmich-Paris : CASSCF linear response (MC-RPA)
   Lee Huntington         : MR-EOM, pCC
   Robert Izsak           : Overlap fitted RIJCOSX, COSX-SCS-MP3, EOM
   Christian Kollmar      : KDIIS, OOCD, Brueckner-CCSD(T), CCSD density
   Simone Kossmann        : Meta GGA functionals, TD-DFT gradient, OOMP2, MP2 Hessian
   Martin Krupicka        : AUTO-CI
   Lucas Lang             : DCDCAS
   Dagmar Lenk            : GEPOL surface, SMD
   Dimitrios Liakos       : Extrapolation schemes; Compound Job, initial MDCI parallelization
   Dimitrios Manganas     : Further ROCIS development; embedding schemes
   Dimitrios Pantazis     : SARC Basis sets
   Taras Petrenko         : DFT Hessian,TD-DFT gradient, ASA, ECA, R-Raman, ABS, FL, XAS/XES, NRVS
   Peter Pinski           : DLPNO-MP2, DLPNO-MP2 Gradient
   Christoph Reimann      : Effective Core Potentials
   Marius Retegan         : Local ZFS, SOC
   Christoph Riplinger    : Optimizer, TS searches, QM/MM, DLPNO-CCSD(T), (RO)-DLPNO pert. Triples
   Tobias Risthaus        : Range-separated hybrids, TD-DFT gradient, RPA, STAB
   Michael Roemelt        : Original ROCIS implementation
   Masaaki Saitow         : Open-shell DLPNO-CCSD energy and density
   Barbara Sandhoefer     : DKH picture change effects
   Avijit Sen             : IP-ROCIS
   Kantharuban Sivalingam : CASSCF convergence, NEVPT2, FIC-MRCI
   Bernardo de Souza      : ESD, SOC TD-DFT
   Georgi Stoychev        : AutoAux, RI-MP2 NMR
   Willem Van den Heuvel  : Paramagnetic NMR
   Boris Wezisla          : Elementary symmetry handling
   Frank Wennmohs         : Technical directorship


 We gratefully acknowledge several colleagues who have allowed us to
 interface, adapt or use parts of their codes:
   Stefan Grimme, W. Hujo, H. Kruse,             : VdW corrections, initial TS optimization,
                  C. Bannwarth                     DFT functionals, gCP, sTDA/sTD-DF
   Ed Valeev, F. Pavosevic, A. Kumar             : LibInt (2-el integral package), F12 methods
   Garnet Chan, S. Sharma, J. Yang, R. Olivares  : DMRG
   Ulf Ekstrom                                   : XCFun DFT Library
   Mihaly Kallay                                 : mrcc  (arbitrary order and MRCC methods)
   Andreas Klamt, Michael Diedenhofen            : otool_cosmo (COSMO solvation model)
   Jiri Pittner, Ondrej Demel                    : Mk-CCSD
   Frank Weinhold                                : gennbo (NPA and NBO analysis)
   Christopher J. Cramer and Donald G. Truhlar   : smd solvation model
   Lars Goerigk                                  : TD-DFT with DH, B97 family of functionals
   V. Asgeirsson, H. Jonsson                     : NEB implementation
   FAccTs GmbH                                   : IRC, NEB, NEB-TS, Multilevel, MM, QM/MM, CI optimization
   S Lehtola, MJT Oliveira, MAL Marques          : LibXC Library


 Your calculation uses the libint2 library for the computation of 2-el integrals
 For citations please refer to: http://libint.valeyev.net

 Your ORCA version has been built with support for libXC version: 4.2.3
 For citations please refer to: https://tddft.org/programs/libxc/

 This ORCA versions uses:
   CBLAS   interface :  Fast vector & matrix operations
   LAPACKE interface :  Fast linear algebra routines
   SCALAPACK package :  Parallel linear algebra routines




***************************************
The coordinates will be read from file: o_2_alde1_4_ami3_1_opt.xyz
***************************************


Your calculation utilizes the atom-pairwise dispersion correction
with the Becke-Johnson damping scheme (D3BJ)
Cite in your paper:
S.Grimme, S.Ehrlich, L.Goerigk, J Comput Chem, (2011), 32, 1456–1465 
S.Grimme, J.Antony, S.Ehrlich and H.Krieg, J.Chem.Phys., 132, (2010), 154104 
   

Your calculation employs the composite approach B97-3c by Grimme and coworkers.
For the correct reference, please check the publication list of the Grimme group:
http://www.thch.uni-bonn.de/tc/index.php?section=publikationen&subsection=grimme#2017
   

XCFun DFT library Copyright 2009-2010 Ulf Ekstrom and contributors.
See http://admol.org/xcfun for more information. This is free soft-
ware; see the source code for copying conditions. There is ABSOLUTELY
NO WARRANTY; not even for MERCHANTABILITY or FITNESS FOR A PARTICULAR
PURPOSE. For details see the documentation. Scientific users of this 
library should cite U. Ekstrom, L. Visscher, R. Bast, A. J. Thorvald-
sen and K. Ruud; J.Chem.Theor.Comp. 2010, DOI: 10.1021/ct100117s
XCFun Version 0.99 
----- Orbital basis set information -----
Your calculation utilizes the basis: def2-mTZVP
----- AuxJ basis set information -----
Your calculation utilizes the basis: def2-mTZVP/J
================================================================================
                                        WARNINGS
                       Please study these warnings very carefully!
================================================================================


WARNING: Geometry Optimization
  ===> : Switching off AutoStart
         For restart on a previous wavefunction, please use MOREAD

INFO   : the flag for use of LIBINT has been found!

================================================================================
                                       INPUT FILE
================================================================================
NAME = o_2_alde1_4_ami3_1_opt_B97-3c.in
|  1> ! DFT COPT B97-3c TightSCF printbasis  Grid6 NOFINALGRID SlowConv 
|  2> 
|  3> %base "_o_2_alde1_4_ami3_1_opt_B97-3c"
|  4> %maxcore 3000
|  5> %scf
|  6>    MaxIter 2000
|  7> end
|  8> %pal
|  9>    nprocs 32
| 10> end
| 11> 
| 12> * xyzfile 0 1 o_2_alde1_4_ami3_1_opt.xyz
| 13> # * xyzfile 0 1 _o_2_alde1_4_ami3_1_opt_B97-3c.xyz
| 14> 
| 15>                          ****END OF INPUT****
================================================================================

                       *****************************
                       * Geometry Optimization Run *
                       *****************************

Geometry optimization settings:
Update method            Update   .... BFGS
Choice of coordinates    CoordSys .... Cartesian
Initial Hessian          InHess   .... Unit Matrix

Convergence Tolerances:
Energy Change            TolE     ....  5.0000e-06 Eh
Max. Gradient            TolMAXG  ....  3.0000e-04 Eh/bohr
RMS Gradient             TolRMSG  ....  1.0000e-04 Eh/bohr
Max. Displacement        TolMAXD  ....  4.0000e-03 bohr
RMS Displacement         TolRMSD  ....  2.0000e-03 bohr
Strict Convergence                ....  False
------------------------------------------------------------------------------
                        ORCA OPTIMIZATION COORDINATE SETUP
------------------------------------------------------------------------------

The optimization will be done in cartesian displacement coordinates
Initial hessian                         ....done
Number of atoms                         .... 106
Number of degrees of freedom            .... 318

         *************************************************************
         *                GEOMETRY OPTIMIZATION CYCLE   1            *
         *************************************************************
---------------------------------
CARTESIAN COORDINATES (ANGSTROEM)
---------------------------------
  C     -3.847400   -1.907900   -0.377000
  C     -4.113600   -1.503800    0.993400
  C     -3.101900   -3.049500   -0.669000
  C     -2.768400   -3.356500   -1.980500
  H     -2.779500   -3.682000    0.143500
  C     -3.145300   -2.498100   -3.002700
  C     -3.892700   -1.353700   -2.728600
  H     -2.858400   -2.736300   -4.015900
  C     -4.263300   -1.082100   -1.415600
  C     -4.189400   -0.395100   -3.782900
  H     -4.846800   -0.195900   -1.222200
  C     -1.944700   -4.593100   -2.259400
  H     -3.575700   -0.490300   -4.693700
  H     -4.775900   -0.631100    1.101600
  C     -1.249800    1.156100    0.482500
  C     -1.337200    0.379600    1.710500
  C     -2.408800    1.609900   -0.138700
  C     -2.352000    2.211500   -1.391100
  H     -3.352100    1.448000    0.358400
  C     -1.112200    2.411500   -1.997100
  C      0.054400    2.006900   -1.364100
  H     -1.077900    2.874800   -2.970900
  C     -0.018700    1.362100   -0.138300
  C      1.380300    2.224000   -2.057300
  H      0.895000    1.030800    0.331900
  C     -3.593600    2.522600   -2.079500
  H     -4.505400    2.396500   -1.475800
  C     -2.468500   -0.562200    3.515600
  C     -3.731200   -1.427100    3.269700
  N     -2.373300    0.360700    2.429000
  N     -3.571300   -2.052400    1.992800
  C     -0.271100   -4.388600   -3.844600
  C      0.351500   -4.874200   -2.524100
  N     -1.672100   -4.754800   -3.697400
  N     -0.654300   -4.525400   -1.532600
  C     -5.158000    1.542900   -4.638200
  C     -4.932300    2.899600   -3.923300
  N     -5.044800    0.521200   -3.645800
  N     -3.645500    2.838700   -3.300700
  C      2.650500    0.813300   -3.405700
  C      2.915500    0.497500   -1.923300
  N      1.390400    1.539400   -3.372300
  N      2.506300    1.722400   -1.252000
  H     -0.452800   -0.235800    1.943700
  H      0.610600    0.888500   -3.418800
  H      1.507800    3.301200   -2.234900
  H      3.270900    2.389800   -1.267400
  H     -0.504100   -3.575800   -1.201400
  H     -1.800200   -5.724200   -3.970000
  H     -2.496400   -5.469200   -1.890100
  C      4.336200    0.007500   -1.733800
  C      1.749900   -4.313400   -2.368300
  C     -2.617300    0.163200    4.853000
  C     -5.010300    4.029500   -4.944700
  H     -1.590200   -1.232300    3.556400
  C     -3.865700   -2.456100    4.387300
  H     -4.598900   -0.743200    3.277300
  C     -3.982700   -1.753900    5.736600
  H     -2.991500   -3.108700    4.371300
  H     -4.748000   -3.071800    4.201900
  C     -2.779400   -0.847800    5.983700
  H     -4.057400   -2.496300    6.533700
  H     -4.895400   -1.153500    5.751800
  H     -1.875800   -1.458300    6.052300
  H     -2.900000   -0.320400    6.932300
  H     -3.486400    0.821200    4.802700
  H     -1.734500    0.783900    5.022000
  H      0.405900   -5.973300   -2.546300
  C      2.578800   -4.806800   -3.558900
  H      2.200500   -4.643300   -1.430700
  H      1.708200   -3.220700   -2.362000
  C      1.945500   -4.441300   -4.905100
  H      2.673200   -5.893100   -3.491800
  H      3.583900   -4.383300   -3.508000
  C      0.501100   -4.938800   -5.026000
  H      2.547500   -4.865800   -5.710900
  H      1.952800   -3.355500   -5.023100
  H      0.476700   -6.031400   -5.008000
  H      0.064100   -4.603700   -5.968000
  H     -0.232500   -3.289100   -3.865600
  H      2.214500   -0.287800   -1.602700
  C      4.505900   -1.255800   -2.584600
  H      4.535500   -0.214900   -0.684200
  H      5.040100    0.777600   -2.059200
  C      4.149400   -1.021600   -4.056000
  H      3.862900   -2.040000   -2.179100
  H      5.537700   -1.606300   -2.517700
  C      2.737800   -0.452300   -4.233400
  H      4.237100   -1.963600   -4.601200
  H      4.865500   -0.319800   -4.489700
  H      2.543300   -0.243900   -5.286700
  H      1.992100   -1.171400   -3.883400
  H      3.415700    1.523600   -3.754200
  H     -5.737200    3.009100   -3.174400
  C     -6.545000    1.545900   -5.280900
  H     -4.388600    1.431400   -5.424200
  C     -6.654300    2.685600   -6.288900
  H     -7.296600    1.656700   -4.497500
  H     -6.711600    0.585500   -5.773800
  C     -6.376700    4.030900   -5.623100
  H     -7.652600    2.689000   -6.731400
  H     -5.932000    2.525000   -7.092900
  H     -7.149000    4.229700   -4.876100
  H     -6.418300    4.828500   -6.367600
  H     -4.218300    3.891700   -5.682500
  H     -4.836500    4.981200   -4.439000

----------------------------
CARTESIAN COORDINATES (A.U.)
----------------------------
  NO LB      ZA    FRAG     MASS         X           Y           Z
   0 C     6.0000    0    12.011   -7.270532   -3.605408   -0.712427
   1 C     6.0000    0    12.011   -7.773577   -2.841770    1.877254
   2 C     6.0000    0    12.011   -5.861741   -5.762720   -1.264227
   3 C     6.0000    0    12.011   -5.231518   -6.342866   -3.742603
   4 H     1.0000    0     1.008   -5.252494   -6.957972    0.271176
   5 C     6.0000    0    12.011   -5.943756   -4.720725   -5.674281
   6 C     6.0000    0    12.011   -7.356137   -2.558122   -5.156307
   7 H     1.0000    0     1.008   -5.401593   -5.170858   -7.588951
   8 C     6.0000    0    12.011   -8.056469   -2.044873   -2.675096
   9 C     6.0000    0    12.011   -7.916819   -0.746631   -7.148645
  10 H     1.0000    0     1.008   -9.159125   -0.370197   -2.309623
  11 C     6.0000    0    12.011   -3.674950   -8.679701   -4.269647
  12 H     1.0000    0     1.008   -6.757094   -0.926533   -8.869808
  13 H     1.0000    0     1.008   -9.025143   -1.192606    2.081722
  14 C     6.0000    0    12.011   -2.361780    2.184712    0.911793
  15 C     6.0000    0    12.011   -2.526942    0.717340    3.232377
  16 C     6.0000    0    12.011   -4.551972    3.042270   -0.262105
  17 C     6.0000    0    12.011   -4.444636    4.179129   -2.628798
  18 H     1.0000    0     1.008   -6.334551    2.736323    0.677278
  19 C     6.0000    0    12.011   -2.101753    4.557075   -3.773972
  20 C     6.0000    0    12.011    0.102801    3.792491   -2.577775
  21 H     1.0000    0     1.008   -2.036936    5.432585   -5.614187
  22 C     6.0000    0    12.011   -0.035338    2.573996   -0.261349
  23 C     6.0000    0    12.011    2.608389    4.202751   -3.887734
  24 H     1.0000    0     1.008    1.691305    1.947930    0.627200
  25 C     6.0000    0    12.011   -6.790920    4.767023   -3.929685
  26 H     1.0000    0     1.008   -8.513972    4.528729   -2.788858
  27 C     6.0000    0    12.011   -4.664789   -1.062404    6.643521
  28 C     6.0000    0    12.011   -7.050946   -2.696828    6.178838
  29 N     7.0000    0    14.007   -4.484887    0.681624    4.590145
  30 N     7.0000    0    14.007   -6.748779   -3.878474    3.765846
  31 C     6.0000    0    12.011   -0.512305   -8.293252   -7.265241
  32 C     6.0000    0    12.011    0.664239   -9.210903   -4.769858
  33 N     7.0000    0    14.007   -3.159811   -8.985270   -6.987073
  34 N     7.0000    0    14.007   -1.236448   -8.551767   -2.896194
  35 C     6.0000    0    12.011   -9.747207    2.915658   -8.764928
  36 C     6.0000    0    12.011   -9.320696    5.479450   -7.413963
  37 N     7.0000    0    14.007   -9.533290    0.984925   -6.889564
  38 N     7.0000    0    14.007   -6.888997    5.364366   -6.237419
  39 C     6.0000    0    12.011    5.008719    1.536914   -6.435840
  40 C     6.0000    0    12.011    5.509497    0.940139   -3.634510
  41 N     7.0000    0    14.007    2.627475    2.909044   -6.372723
  42 N     7.0000    0    14.007    4.736221    3.254864   -2.365937
  43 H     1.0000    0     1.008   -0.855668   -0.445597    3.673061
  44 H     1.0000    0     1.008    1.153867    1.679022   -6.460596
  45 H     1.0000    0     1.008    2.849329    6.238364   -4.223349
  46 H     1.0000    0     1.008    6.181105    4.516068   -2.395039
  47 H     1.0000    0     1.008   -0.952611   -6.757283   -2.270317
  48 H     1.0000    0     1.008   -3.401885  -10.817170   -7.502213
  49 H     1.0000    0     1.008   -4.717512  -10.335290   -3.571771
  50 C     6.0000    0    12.011    8.194230    0.014173   -3.276407
  51 C     6.0000    0    12.011    3.306832   -8.151145   -4.475438
  52 C     6.0000    0    12.011   -4.945980    0.308403    9.170841
  53 C     6.0000    0    12.011   -9.468095    7.614651   -9.344129
  54 H     1.0000    0     1.008   -3.005042   -2.328710    6.720622
  55 C     6.0000    0    12.011   -7.305114   -4.641356    8.290795
  56 H     1.0000    0     1.008   -8.690662   -1.404444    6.193199
  57 C     6.0000    0    12.011   -7.526212   -3.314391   10.840603
  58 H     1.0000    0     1.008   -5.653116   -5.874592    8.260560
  59 H     1.0000    0     1.008   -8.972420   -5.804861    7.940440
  60 C     6.0000    0    12.011   -5.252305   -1.602110   11.307554
  61 H     1.0000    0     1.008   -7.667375   -4.717323   12.346904
  62 H     1.0000    0     1.008   -9.250965   -2.179799   10.869327
  63 H     1.0000    0     1.008   -3.544748   -2.755788   11.437189
  64 H     1.0000    0     1.008   -5.480206   -0.605468   13.100148
  65 H     1.0000    0     1.008   -6.588341    1.551843    9.075788
  66 H     1.0000    0     1.008   -3.277730    1.481356    9.490205
  67 H     1.0000    0     1.008    0.767040  -11.287901   -4.811810
  68 C     6.0000    0    12.011    4.873226   -9.083536   -6.725346
  69 H     1.0000    0     1.008    4.158342   -8.774565   -2.703631
  70 H     1.0000    0     1.008    3.228030   -6.086241   -4.463533
  71 C     6.0000    0    12.011    3.676462   -8.392841   -9.269296
  72 H     1.0000    0     1.008    5.051616  -11.136345   -6.598546
  73 H     1.0000    0     1.008    6.772589   -8.283237   -6.629159
  74 C     6.0000    0    12.011    0.946942   -9.332979   -9.497764
  75 H     1.0000    0     1.008    4.814077   -9.195029  -10.792037
  76 H     1.0000    0     1.008    3.690257   -6.340976   -9.492283
  77 H     1.0000    0     1.008    0.900832  -11.397694   -9.463748
  78 H     1.0000    0     1.008    0.121131   -8.699732  -11.277886
  79 H     1.0000    0     1.008   -0.439361   -6.215498   -7.304925
  80 H     1.0000    0     1.008    4.184799   -0.543863   -3.028664
  81 C     6.0000    0    12.011    8.514917   -2.373118   -4.884186
  82 H     1.0000    0     1.008    8.570853   -0.406102   -1.292951
  83 H     1.0000    0     1.008    9.524409    1.469451   -3.891324
  84 C     6.0000    0    12.011    7.841230   -1.930544   -7.664729
  85 H     1.0000    0     1.008    7.299823   -3.855041   -4.117902
  86 H     1.0000    0     1.008   10.464736   -3.035467   -4.757763
  87 C     6.0000    0    12.011    5.173692   -0.854723   -7.999967
  88 H     1.0000    0     1.008    8.006959   -3.710666   -8.695008
  89 H     1.0000    0     1.008    9.194463   -0.604334   -8.484303
  90 H     1.0000    0     1.008    4.806140   -0.460904   -9.990415
  91 H     1.0000    0     1.008    3.764523   -2.213625   -7.338562
  92 H     1.0000    0     1.008    6.454738    2.879187   -7.094410
  93 H     1.0000    0     1.008  -10.841737    5.686375   -5.998747
  94 C     6.0000    0    12.011  -12.368258    2.921328   -9.979455
  95 H     1.0000    0     1.008   -8.293252    2.704954  -10.250252
  96 C     6.0000    0    12.011  -12.574805    5.075049  -11.884299
  97 H     1.0000    0     1.008  -13.788576    3.130709   -8.499043
  98 H     1.0000    0     1.008  -12.683086    1.106435  -10.910901
  99 C     6.0000    0    12.011  -12.050217    7.617297  -10.626119
 100 H     1.0000    0     1.008  -14.461318    5.081474  -12.720502
 101 H     1.0000    0     1.008  -11.209855    4.771558  -13.403638
 102 H     1.0000    0     1.008  -13.509652    7.992975   -9.214494
 103 H     1.0000    0     1.008  -12.128829    9.124543  -12.033020
 104 H     1.0000    0     1.008   -7.971432    7.354247  -10.738369
 105 H     1.0000    0     1.008   -9.139660    9.413104   -8.388494

--------------------------------
INTERNAL COORDINATES (ANGSTROEM)
--------------------------------
 C      0   0   0     0.000000000000     0.00000000     0.00000000
 C      1   0   0     1.453325637977     0.00000000     0.00000000
 C      1   2   0     1.394376136485   121.53632438     0.00000000
 C      3   1   2     1.387625129493   120.50109991   185.25558437
 H      3   1   2     1.078959804627   118.81627472     4.51519175
 C      4   3   1     1.387010097296   119.62482890     1.99423347
 C      6   4   3     1.394054851862   120.58611786   357.90505076
 H      6   4   3     1.079641185765   118.87321793   178.50538742
 C      1   2   3     1.390542487664   118.97154166   184.78179101
 C      7   6   4     1.455504496730   120.49900039   174.69954197
 H      9   1   2     1.078529670431   121.05405541   354.90353100
 C      4   3   1     1.511769314413   119.09681705   179.26035617
 H     10   7   6     1.102382587852   115.34770207   344.15187595
 H      2   1   3     1.100887741779   115.04237351   184.45977562
 C      2   1   3     3.941755606326    86.12025762   101.68902547
 C     15   2   1     1.455532552023    59.13809726   223.28058878
 C     15   2   1     1.391080472151    70.89472707    77.75746213
 C     17  15   2     1.390559081808   120.61674067   221.92340075
 H     17  15   2     1.078487324914   118.28955256    39.57112932
 C     18  17  15     1.394395940901   119.32668348   357.15345662
 C     20  18  17     1.387568275798   120.49441602     0.46116646
 H     20  18  17     1.078939210521   118.82280710   179.71617538
 C     21  20  18     1.386973788505   119.63210881     1.98608116
 C     21  20  18     1.511843067253   119.09791765   179.26199593
 H     23  21  20     1.079673756280   118.87800221   178.50470116
 C     18  17  15     1.453357605684   118.96748281   172.48520194
 H     26  18  17     1.100787963234   115.04557410     9.23351322
 C     16  15   2     2.329208651023   153.98918742   314.77976764
 C     28  16  15     1.550138738952   119.88797638    51.80585775
 N     16  15   2     1.260992731938   122.55111925   304.02929350
 N      2   1   3     1.262478360211   123.15759793     8.48090266
 C     12   4   3     2.314220441099   116.62301635   221.64388269
 C     32  12   4     1.538557236504    71.14675340   123.35229609
 N     32  12   4     1.455531270705    38.03889525   268.37411539
 N     33  32  12     1.454773979008   103.26785525   341.11191787
 C     10   7   6     2.329284879528   153.98942268   178.04863249
 C     36  10   7     1.550050770136   119.88943322    51.79194222
 N     10   7   6     1.260996137980   122.55427497   167.29727800
 N     26  18  17     1.262514261306   123.15286024   193.25729138
 C     24  21  20     2.328446926602   131.06724892   265.50357496
 C     40  24  21     1.538656686854    70.14600093   277.86707558
 N     40  24  21     1.454712610793    37.97916385    67.07702867
 N     41  40  24     1.455495908617   102.89745843   338.75414176
 H     16  15   2     1.102389568165   115.34772656   120.89691886
 H     42  40  24     1.016819108790   110.10494919   242.49220593
 H     24  21  20     1.099162340148   108.45420251    59.88355813
 H     43  41  40     1.015023684453   109.54658301   275.90548579
 H     35  33  32     1.016854778225   110.10661729   272.15196107
 H     34  32  12     1.015114146291   109.54632285   242.09079689
 H     12   4   3     1.099229998681   108.45132357    59.89665790
 C     41  40  24     1.514727282385   110.39329897   211.27015839
 C     33  32  12     1.514692325193   110.18313615   213.41566561
 C     28  16  15     1.528720170600   122.23574758   268.23667359
 C     37  36  10     1.525128181498   109.39728352   151.41293516
 H     28  16  15     1.105490633158    83.55859435   159.29527923
 C     29  28  16     1.525110163234   109.39292226   151.41040692
 H     29  28  16     1.104843998038   107.05377922   270.66675564
 C     56  29  28     1.525576720457   110.14109115    59.53649759
 H     56  29  28     1.091040054260   108.79373920   298.31764279
 H     56  29  28     1.091747653993   109.10699967   180.80873059
 C     53  28  16     1.525411387135   110.14055594   206.55036364
 H     58  56  29     1.091836187347   109.75338344   181.18868155
 H     58  56  29     1.092580656062   109.22679473    63.15661406
 H     61  53  28     1.092661507513   109.20606968    62.89415374
 H     61  53  28     1.092033461026   109.60491306   180.84810068
 H     53  28  16     1.091251071019   108.86367747    85.33016479
 H     53  28  16     1.092321074593   109.04590081   327.78432173
 H     33  32  12     1.100669346352   108.53354087    94.09233844
 C     52  33  32     1.532333883330   107.47404257   300.16993795
 H     52  33  32     1.091314862906   110.95562953   179.50929691
 H     52  33  32     1.093513543583   109.59389429    60.04084104
 C     69  52  33     1.531963961717   112.47791172    55.55627370
 H     69  52  33     1.092456616988   108.61440216   294.71206689
 H     69  52  33     1.091864950440   109.68458949   177.30084819
 C     32  12   4     1.514832941284   150.54731283   221.63773988
 H     72  69  52     1.091749920998   109.13943434   183.18426987
 H     72  69  52     1.092217437143   109.22960193    65.74118296
 H     75  32  12     1.093020640244   109.80656409   332.62503315
 H     75  32  12     1.091157646722   110.95178679    92.18259592
 H     32  12   4     1.100377757863    97.28107694    16.21541595
 H     41  40  24     1.100400586150   108.50889911    91.53859463
 C     51  41  40     1.532509582352   107.52185888   300.34133608
 H     51  41  40     1.091257261144   110.95002750   179.73637684
 H     51  41  40     1.092892666276   109.80956616    60.17114066
 C     82  51  41     1.531979063173   112.42211168    55.23017629
 H     82  51  41     1.092176217467   108.69749876   294.17970123
 H     82  51  41     1.091758718765   109.58946843   176.78436870
 C     40  24  21     1.514744843200   148.65819405    14.31876831
 H     85  82  51     1.091924141138   109.20711188   182.98581280
 H     85  82  51     1.092436789933   109.08512443    65.57047758
 H     88  40  24     1.091192787733   110.95347495    94.79665264
 H     88  40  24     1.093468472339   109.58829726   335.32253214
 H     40  24  21     1.100685867993    99.88227871   171.60541842
 H     37  36  10     1.104855406829   107.05496228   270.66690008
 C     36  10   7     1.528673048758   122.22934527   268.22430509
 H     36  10   7     1.105533631329    83.55481425   159.28121849
 C     95  36  10     1.525426687848   110.13891336   206.55012226
 H     95  36  10     1.091281246975   108.86179272    85.33279748
 H     95  36  10     1.092279327828   109.04959314   327.78497151
 C     54  37  36     1.525541700512   110.13944826    59.52973000
 H     97  95  36     1.091980173813   109.60932970   180.84960715
 H     97  95  36     1.092669048706   109.21085815    62.89114916
 H    100  54  37     1.092692879999   109.22112781    63.16082085
 H    100  54  37     1.091868384926   109.75595471   181.18860614
 H     54  37  36     1.091146956189   108.79337339   298.32622634
 H     54  37  36     1.091637219959   109.11699863   180.80782758

---------------------------
INTERNAL COORDINATES (A.U.)
---------------------------
 C      0   0   0     0.000000000000     0.00000000     0.00000000
 C      1   0   0     2.746387439182     0.00000000     0.00000000
 C      1   2   0     2.634989025633   121.53632438     0.00000000
 C      3   1   2     2.622231471288   120.50109991   185.25558437
 H      3   1   2     2.038938540254   118.81627472     4.51519175
 C      4   3   1     2.621069228872   119.62482890     1.99423347
 C      6   4   3     2.634381885683   120.58611786   357.90505076
 H      6   4   3     2.040226163998   118.87321793   178.50538742
 C      1   2   3     2.627744479267   118.97154166   184.78179101
 C      7   6   4     2.750504885510   120.49900039   174.69954197
 H      9   1   2     2.038125704423   121.05405541   354.90353100
 C      4   3   1     2.856829981906   119.09681705   179.26035617
 H     10   7   6     2.083201185844   115.34770207   344.15187595
 H      2   1   3     2.080376336154   115.04237351   184.45977562
 C      2   1   3     7.448838582804    86.12025762   101.68902547
 C     15   2   1     2.750557902332    59.13809726   223.28058878
 C     15   2   1     2.628761122611    70.89472707    77.75746213
 C     17  15   2     2.627775837655   120.61674067   221.92340075
 H     17  15   2     2.038045682993   118.28955256    39.57112932
 C     18  17  15     2.635026450554   119.32668348   357.15345662
 C     20  18  17     2.622124033375   120.49441602     0.46116646
 H     20  18  17     2.038899623034   118.82280710   179.71617538
 C     21  20  18     2.621000615202   119.63210881     1.98608116
 C     21  20  18     2.856969354575   119.09791765   179.26199593
 H     23  21  20     2.040287713351   118.87800221   178.50470116
 C     18  17  15     2.746447849395   118.96748281   172.48520194
 H     26  18  17     2.080187782028   115.04557410     9.23351322
 C     16  15   2     4.401566459193   153.98918742   314.77976764
 C     28  16  15     2.929337686202   119.88797638    51.80585775
 N     16  15   2     2.382930920228   122.55111925   304.02929350
 N      2   1   3     2.385738350800   123.15759793     8.48090266
 C     12   4   3     4.373242847199   116.62301635   221.64388269
 C     32  12   4     2.907451818356    71.14675340   123.35229609
 N     32  12   4     2.750555480991    38.03889525   268.37411539
 N     33  32  12     2.749124407081   103.26785525   341.11191787
 C     10   7   6     4.401710510193   153.98942268   178.04863249
 C     36  10   7     2.929171449231   119.88943322    51.79194222
 N     10   7   6     2.382937356714   122.55427497   167.29727800
 N     26  18  17     2.385806194037   123.15286024   193.25729138
 C     24  21  20     4.400127008647   131.06724892   265.50357496
 C     40  24  21     2.907639752280    70.14600093   277.86707558
 N     40  24  21     2.749008437960    37.97916385    67.07702867
 N     41  40  24     2.750488656328   102.89745843   338.75414176
 H     16  15   2     2.083214376724   115.34772656   120.89691886
 H     42  40  24     1.921509643351   110.10494919   242.49220593
 H     24  21  20     2.077115799600   108.45420251    59.88355813
 H     43  41  40     1.918116783059   109.54658301   275.90548579
 H     35  33  32     1.921577048815   110.10661729   272.15196107
 H     34  32  12     1.918287731159   109.54632285   242.09079689
 H     12   4   3     2.077243655698   108.45132357    59.89665790
 C     41  40  24     2.862419731286   110.39329897   211.27015839
 C     33  32  12     2.862353671768   110.18313615   213.41566561
 C     28  16  15     2.888862457836   122.23574758   268.23667359
 C     37  36  10     2.882074582157   109.39728352   151.41293516
 H     28  16  15     2.089074540284    83.55859435   159.29527923
 C     29  28  16     2.882040532572   109.39292226   151.41040692
 H     29  28  16     2.087852576998   107.05377922   270.66675564
 C     56  29  28     2.882922197949   110.14109115    59.53649759
 H     56  29  28     2.061766903690   108.79373920   298.31764279
 H     56  29  28     2.063104073398   109.10699967   180.80873059
 C     53  28  16     2.882609763249   110.14055594   206.55036364
 H     58  56  29     2.063271377190   109.75338344   181.18868155
 H     58  56  29     2.064678219176   109.22679473    63.15661406
 H     61  53  28     2.064831006277   109.20606968    62.89415374
 H     61  53  28     2.063644170417   109.60491306   180.84810068
 H     53  28  16     2.062165667574   108.86367747    85.33016479
 H     53  28  16     2.064187681291   109.04590081   327.78432173
 H     33  32  12     2.079963628608   108.53354087    94.09233844
 C     52  33  32     2.895691385221   107.47404257   300.16993795
 H     52  33  32     2.062286216771   110.95562953   179.50929691
 H     52  33  32     2.066441121106   109.59389429    60.04084104
 C     69  52  33     2.894992334682   112.47791172    55.55627370
 H     69  52  33     2.064443819297   108.61440216   294.71206689
 H     69  52  33     2.063325731560   109.68458949   177.30084819
 C     32  12   4     2.862619397670   150.54731283   221.63773988
 H     72  69  52     2.063108357417   109.13943434   183.18426987
 H     72  69  52     2.063991834894   109.22960193    65.74118296
 H     75  32  12     2.065509668785   109.80656409   332.62503315
 H     75  32  12     2.061989121239   110.95178679    92.18259592
 H     32  12   4     2.079412606220    97.28107694    16.21541595
 H     41  40  24     2.079455745431   108.50889911    91.53859463
 C     51  41  40     2.896023408255   107.52185888   300.34133608
 H     51  41  40     2.062177365216   110.95002750   179.73637684
 H     51  41  40     2.065267833033   109.80956616    60.17114066
 C     82  51  41     2.895020872298   112.42211168    55.23017629
 H     82  51  41     2.063913940994   108.69749876   294.17970123
 H     82  51  41     2.063124982787   109.58946843   176.78436870
 C     40  24  21     2.862452916417   148.65819405    14.31876831
 H     85  82  51     2.063437585768   109.20711188   182.98581280
 H     85  82  51     2.064406351594   109.08512443    65.57047758
 H     88  40  24     2.062055528125   110.95347495    94.79665264
 H     88  40  24     2.066355948798   109.58829726   335.32253214
 H     40  24  21     2.079994849985    99.88227871   171.60541842
 H     37  36  10     2.087874136490   107.05496228   270.66690008
 C     36  10   7     2.888773410460   122.22934527   268.22430509
 H     36  10   7     2.089155795052    83.55481425   159.28121849
 C     95  36  10     2.882638677408   110.13891336   206.55012226
 H     95  36  10     2.062222691867   108.86179272    85.33279748
 H     95  36  10     2.064108791338   109.04959314   327.78497151
 C     54  37  36     2.882856019844   110.13944826    59.52973000
 H     97  95  36     2.063543472178   109.60932970   180.84960715
 H     97  95  36     2.064845257067   109.21085815    62.89114916
 H    100  54  37     2.064890291683   109.22112781    63.16082085
 H    100  54  37     2.063332221796   109.75595471   181.18860614
 H     54  37  36     2.061968919059   108.79337339   298.32622634
 H     54  37  36     2.062895383318   109.11699863   180.80782758

---------------------
BASIS SET INFORMATION
---------------------
There are 3 groups of distinct atoms

 Group   1 Type C   : 11s6p1d contracted to 5s3p1d pattern {62111/411/1}
 Group   2 Type H   : 5s contracted to 3s pattern {311}
 Group   3 Type N   : 11s6p1d contracted to 5s3p1d pattern {62111/411/1}

Atom   0C    basis set group =>   1
Atom   1C    basis set group =>   1
Atom   2C    basis set group =>   1
Atom   3C    basis set group =>   1
Atom   4H    basis set group =>   2
Atom   5C    basis set group =>   1
Atom   6C    basis set group =>   1
Atom   7H    basis set group =>   2
Atom   8C    basis set group =>   1
Atom   9C    basis set group =>   1
Atom  10H    basis set group =>   2
Atom  11C    basis set group =>   1
Atom  12H    basis set group =>   2
Atom  13H    basis set group =>   2
Atom  14C    basis set group =>   1
Atom  15C    basis set group =>   1
Atom  16C    basis set group =>   1
Atom  17C    basis set group =>   1
Atom  18H    basis set group =>   2
Atom  19C    basis set group =>   1
Atom  20C    basis set group =>   1
Atom  21H    basis set group =>   2
Atom  22C    basis set group =>   1
Atom  23C    basis set group =>   1
Atom  24H    basis set group =>   2
Atom  25C    basis set group =>   1
Atom  26H    basis set group =>   2
Atom  27C    basis set group =>   1
Atom  28C    basis set group =>   1
Atom  29N    basis set group =>   3
Atom  30N    basis set group =>   3
Atom  31C    basis set group =>   1
Atom  32C    basis set group =>   1
Atom  33N    basis set group =>   3
Atom  34N    basis set group =>   3
Atom  35C    basis set group =>   1
Atom  36C    basis set group =>   1
Atom  37N    basis set group =>   3
Atom  38N    basis set group =>   3
Atom  39C    basis set group =>   1
Atom  40C    basis set group =>   1
Atom  41N    basis set group =>   3
Atom  42N    basis set group =>   3
Atom  43H    basis set group =>   2
Atom  44H    basis set group =>   2
Atom  45H    basis set group =>   2
Atom  46H    basis set group =>   2
Atom  47H    basis set group =>   2
Atom  48H    basis set group =>   2
Atom  49H    basis set group =>   2
Atom  50C    basis set group =>   1
Atom  51C    basis set group =>   1
Atom  52C    basis set group =>   1
Atom  53C    basis set group =>   1
Atom  54H    basis set group =>   2
Atom  55C    basis set group =>   1
Atom  56H    basis set group =>   2
Atom  57C    basis set group =>   1
Atom  58H    basis set group =>   2
Atom  59H    basis set group =>   2
Atom  60C    basis set group =>   1
Atom  61H    basis set group =>   2
Atom  62H    basis set group =>   2
Atom  63H    basis set group =>   2
Atom  64H    basis set group =>   2
Atom  65H    basis set group =>   2
Atom  66H    basis set group =>   2
Atom  67H    basis set group =>   2
Atom  68C    basis set group =>   1
Atom  69H    basis set group =>   2
Atom  70H    basis set group =>   2
Atom  71C    basis set group =>   1
Atom  72H    basis set group =>   2
Atom  73H    basis set group =>   2
Atom  74C    basis set group =>   1
Atom  75H    basis set group =>   2
Atom  76H    basis set group =>   2
Atom  77H    basis set group =>   2
Atom  78H    basis set group =>   2
Atom  79H    basis set group =>   2
Atom  80H    basis set group =>   2
Atom  81C    basis set group =>   1
Atom  82H    basis set group =>   2
Atom  83H    basis set group =>   2
Atom  84C    basis set group =>   1
Atom  85H    basis set group =>   2
Atom  86H    basis set group =>   2
Atom  87C    basis set group =>   1
Atom  88H    basis set group =>   2
Atom  89H    basis set group =>   2
Atom  90H    basis set group =>   2
Atom  91H    basis set group =>   2
Atom  92H    basis set group =>   2
Atom  93H    basis set group =>   2
Atom  94C    basis set group =>   1
Atom  95H    basis set group =>   2
Atom  96C    basis set group =>   1
Atom  97H    basis set group =>   2
Atom  98H    basis set group =>   2
Atom  99C    basis set group =>   1
Atom 100H    basis set group =>   2
Atom 101H    basis set group =>   2
Atom 102H    basis set group =>   2
Atom 103H    basis set group =>   2
Atom 104H    basis set group =>   2
Atom 105H    basis set group =>   2

-------------------------
BASIS SET IN INPUT FORMAT
-------------------------

 # Basis set for element : H 
 NewGTO H 
 S 3 
   1      34.0613410000      0.0254393072
   2       5.1235746000      0.1900859489
   3       1.1646626000      0.8524411301
 S 1 
   1       0.3272304100      1.0000000000
 S 1 
   1       0.1030724100      1.0000000000
  end;

 # Basis set for element : C 
 NewGTO C 
 S 6 
   1   13575.3496820000      0.0006064549
   2    2035.2333680000      0.0046979088
   3     463.2256235900      0.0243324776
   4     131.2001959800      0.0973999683
   5      42.8530158910      0.3019558425
   6      15.5841857660      0.6623360915
 S 2 
   1       6.2067138508      0.6559530854
   2       2.5764896527      0.3758563329
 S 1 
   1       0.5769633942      1.0000000000
 S 1 
   1       0.2297283136      1.0000000000
 S 1 
   1       0.0951644400      1.0000000000
 P 4 
   1      34.6972322440      0.0113272200
   2       7.9582622826      0.0761696592
   3       2.3780826883      0.3019225220
   4       0.8143320818      0.7278502735
 P 1 
   1       0.2888754725      1.0000000000
 P 1 
   1       0.1005682367      1.0000000000
 D 1 
   1       0.8000000000      1.0000000000
  end;

 # Basis set for element : N 
 NewGTO N 
 S 6 
   1   19730.8006470000      0.0005862639
   2    2957.8958745000      0.0045428821
   3     673.2213359500      0.0235584136
   4     190.6824949400      0.0947091933
   5      62.2954418980      0.2971978492
   6      22.6541611820      0.6691624689
 S 2 
   1       8.9791477428      0.6459668363
   2       3.6863002370      0.3870057440
 S 1 
   1       0.8466007680      1.0000000000
 S 1 
   1       0.3364713377      1.0000000000
 S 1 
   1       0.1364765367      1.0000000000
 P 4 
   1      49.2003805100      0.0114488252
   2      11.3467905370      0.0784223379
   3       3.4273972411      0.3081809474
   4       1.1785525134      0.7202719637
 P 1 
   1       0.4164220497      1.0000000000
 P 1 
   1       0.1426082601      1.0000000000
 D 1 
   1       0.8000000000      1.0000000000
  end;

---------------------------------
AUXILIARY/J BASIS SET INFORMATION
---------------------------------
There are 3 groups of distinct atoms

 Group   1 Type C   : 8s3p3d contracted to 6s3p3d pattern {311111/111/111}
 Group   2 Type H   : 5s2p contracted to 3s1p pattern {311/2}
 Group   3 Type N   : 8s3p3d contracted to 6s3p3d pattern {311111/111/111}

Atom   0C    basis set group =>   1
Atom   1C    basis set group =>   1
Atom   2C    basis set group =>   1
Atom   3C    basis set group =>   1
Atom   4H    basis set group =>   2
Atom   5C    basis set group =>   1
Atom   6C    basis set group =>   1
Atom   7H    basis set group =>   2
Atom   8C    basis set group =>   1
Atom   9C    basis set group =>   1
Atom  10H    basis set group =>   2
Atom  11C    basis set group =>   1
Atom  12H    basis set group =>   2
Atom  13H    basis set group =>   2
Atom  14C    basis set group =>   1
Atom  15C    basis set group =>   1
Atom  16C    basis set group =>   1
Atom  17C    basis set group =>   1
Atom  18H    basis set group =>   2
Atom  19C    basis set group =>   1
Atom  20C    basis set group =>   1
Atom  21H    basis set group =>   2
Atom  22C    basis set group =>   1
Atom  23C    basis set group =>   1
Atom  24H    basis set group =>   2
Atom  25C    basis set group =>   1
Atom  26H    basis set group =>   2
Atom  27C    basis set group =>   1
Atom  28C    basis set group =>   1
Atom  29N    basis set group =>   3
Atom  30N    basis set group =>   3
Atom  31C    basis set group =>   1
Atom  32C    basis set group =>   1
Atom  33N    basis set group =>   3
Atom  34N    basis set group =>   3
Atom  35C    basis set group =>   1
Atom  36C    basis set group =>   1
Atom  37N    basis set group =>   3
Atom  38N    basis set group =>   3
Atom  39C    basis set group =>   1
Atom  40C    basis set group =>   1
Atom  41N    basis set group =>   3
Atom  42N    basis set group =>   3
Atom  43H    basis set group =>   2
Atom  44H    basis set group =>   2
Atom  45H    basis set group =>   2
Atom  46H    basis set group =>   2
Atom  47H    basis set group =>   2
Atom  48H    basis set group =>   2
Atom  49H    basis set group =>   2
Atom  50C    basis set group =>   1
Atom  51C    basis set group =>   1
Atom  52C    basis set group =>   1
Atom  53C    basis set group =>   1
Atom  54H    basis set group =>   2
Atom  55C    basis set group =>   1
Atom  56H    basis set group =>   2
Atom  57C    basis set group =>   1
Atom  58H    basis set group =>   2
Atom  59H    basis set group =>   2
Atom  60C    basis set group =>   1
Atom  61H    basis set group =>   2
Atom  62H    basis set group =>   2
Atom  63H    basis set group =>   2
Atom  64H    basis set group =>   2
Atom  65H    basis set group =>   2
Atom  66H    basis set group =>   2
Atom  67H    basis set group =>   2
Atom  68C    basis set group =>   1
Atom  69H    basis set group =>   2
Atom  70H    basis set group =>   2
Atom  71C    basis set group =>   1
Atom  72H    basis set group =>   2
Atom  73H    basis set group =>   2
Atom  74C    basis set group =>   1
Atom  75H    basis set group =>   2
Atom  76H    basis set group =>   2
Atom  77H    basis set group =>   2
Atom  78H    basis set group =>   2
Atom  79H    basis set group =>   2
Atom  80H    basis set group =>   2
Atom  81C    basis set group =>   1
Atom  82H    basis set group =>   2
Atom  83H    basis set group =>   2
Atom  84C    basis set group =>   1
Atom  85H    basis set group =>   2
Atom  86H    basis set group =>   2
Atom  87C    basis set group =>   1
Atom  88H    basis set group =>   2
Atom  89H    basis set group =>   2
Atom  90H    basis set group =>   2
Atom  91H    basis set group =>   2
Atom  92H    basis set group =>   2
Atom  93H    basis set group =>   2
Atom  94C    basis set group =>   1
Atom  95H    basis set group =>   2
Atom  96C    basis set group =>   1
Atom  97H    basis set group =>   2
Atom  98H    basis set group =>   2
Atom  99C    basis set group =>   1
Atom 100H    basis set group =>   2
Atom 101H    basis set group =>   2
Atom 102H    basis set group =>   2
Atom 103H    basis set group =>   2
Atom 104H    basis set group =>   2
Atom 105H    basis set group =>   2

-------------------------------------
AUXILIARY/J BASIS SET IN INPUT FORMAT
-------------------------------------

 # Auxiliary/J basis set for element : H 
 NewAuxJGTO H 
 S 3 
   1      15.6752927000      0.1007184237
   2       3.6063578000      0.3404257499
   3       1.2080016000      0.6491996172
 S 1 
   1       0.4726794000      1.0000000000
 S 1 
   1       0.2018100000      1.0000000000
 P 2 
   1       2.0281365000      0.5596620919
   2       0.5358730000      0.5596620919
  end;

 # Auxiliary/J basis set for element : C 
 NewAuxJGTO C 
 S 3 
   1     459.7023860000      0.1098751775
   2     132.9577920000      0.2844848472
   3      41.5658170000      0.6964707648
 S 1 
   1      13.9155610000      1.0000000000
 S 1 
   1       4.9305290000     -1.0000000000
 S 1 
   1       1.8229480000      1.0000000000
 S 1 
   1       0.6920510000      1.0000000000
 S 1 
   1       0.2650930000      1.0000000000
 P 1 
   1       0.3278473579      1.0000000000
 P 1 
   1       0.7868336591      1.0000000000
 P 1 
   1       1.9710183160      1.0000000000
 D 1 
   1       4.0133010000      1.0000000000
 D 1 
   1       1.2475050000      1.0000000000
 D 1 
   1       0.4081480000      1.0000000000
  end;

 # Auxiliary/J basis set for element : N 
 NewAuxJGTO N 
 S 3 
   1     680.5425300000      0.1043830093
   2     196.7562140000      0.2751518961
   3      61.2707930000      0.7090825511
 S 1 
   1      20.3644630000      1.0000000000
 S 1 
   1       7.1424770000     -1.0000000000
 S 1 
   1       2.6080260000      1.0000000000
 S 1 
   1       0.9763730000      1.0000000000
 S 1 
   1       0.3686330000      1.0000000000
 P 1 
   1       0.4707391941      1.0000000000
 P 1 
   1       1.1297740658     -1.0000000000
 P 1 
   1       2.8300840347      1.0000000000
 D 1 
   1       5.8329865000      1.0000000000
 D 1 
   1       1.7326865000      1.0000000000
 D 1 
   1       0.5452425000      1.0000000000
  end;



           ************************************************************
           *        Program running with 32 parallel MPI-processes    *
           *              working on a common directory               *
           ************************************************************
------------------------------------------------------------------------------
                           ORCA GTO INTEGRAL CALCULATION
                           -- RI-GTO INTEGRALS CHOSEN --
------------------------------------------------------------------------------

                         BASIS SET STATISTICS AND STARTUP INFO

Gaussian basis set:
 # of primitive gaussian shells          ... 1180
 # of primitive gaussian functions       ... 1980
 # of contracted shells                  ...  618
 # of contracted basis functions         ... 1118
 Highest angular momentum                ...    2
 Maximum contraction depth               ...    6
Auxiliary gaussian basis set:
 # of primitive gaussian shells          ... 1092
 # of primitive gaussian functions       ... 2216
 # of contracted shells                  ...  824
 # of contracted aux-basis functions     ... 1836
 Highest angular momentum                ...    2
 Maximum contraction depth               ...    3
Ratio of auxiliary to basis functions    ...  1.64
Integral package used                  ... LIBINT
 One Electron integrals                  ... done
 Ordering auxiliary basis shells         ... done
 Integral threshhold             Thresh  ...  2.500e-11
 Primitive cut-off               TCut    ...  2.500e-12
 Pre-screening matrix                    ... done
 Shell pair data                         ... 
 Ordering of the shell pairs             ... done (   0.044 sec) 101259 of 191271 pairs
 Determination of significant pairs      ... done (   0.000 sec)
 Creation of shell pair data             ... done (   0.012 sec)
 Storage of shell pair data              ... done (   0.021 sec)
 Shell pair data done in (   0.077 sec)
 Computing two index integrals           ... done
 Cholesky decomposition of the V-matrix  ... done


Timings:
 Total evaluation time                   ...   2.385 sec (  0.040 min)
 One electron matrix time                ...   0.883 sec (  0.015 min) = 37.0%
 Schwartz matrix evaluation time         ...   0.663 sec (  0.011 min) = 27.8%
 Two index repulsion integral time       ...   0.085 sec (  0.001 min) =  3.6%
 Cholesky decomposition of V             ...   0.637 sec (  0.011 min) = 26.7%
 Three index repulsion integral time     ...   0.001 sec (  0.000 min) =  0.0%



           ************************************************************
           *        Program running with 32 parallel MPI-processes    *
           *              working on a common directory               *
           ************************************************************
-------------------------------------------------------------------------------
                                 ORCA SCF
-------------------------------------------------------------------------------

------------
SCF SETTINGS
------------
Hamiltonian:
 Density Functional     Method          .... DFT(GTOs)
 Exchange Functional    Exchange        .... B973C
 Correlation Functional Correlation     .... B973C
 Gradients option       PostSCFGGA      .... off
   Density functional embedding theory  .... OFF
 RI-approximation to the Coulomb term is turned on
   Number of auxiliary basis functions  .... 1836


General Settings:
 Integral files         IntName         .... _o_2_alde1_4_ami3_1_opt_B97-3c
 Hartree-Fock type      HFTyp           .... RHF
 Total Charge           Charge          ....    0
 Multiplicity           Mult            ....    1
 Number of Electrons    NEL             ....  364
 Basis Dimension        Dim             .... 1118
 Nuclear Repulsion      ENuc            ....   6739.3960997711 Eh

Convergence Acceleration:
 DIIS                   CNVDIIS         .... on
   Start iteration      DIISMaxIt       ....     0
   Startup error        DIISStart       ....  0.200000
   # of expansion vecs  DIISMaxEq       ....     5
   Bias factor          DIISBfac        ....   1.050
   Max. coefficient     DIISMaxC        ....  10.000
 Newton-Raphson         CNVNR           .... off
 SOSCF                  CNVSOSCF        .... on
   Start iteration      SOSCFMaxIt      ....   150
   Startup grad/error   SOSCFStart      ....  0.001000
 Level Shifting         CNVShift        .... on
   Level shift para.    LevelShift      ....    0.2500
   Turn off err/grad.   ShiftErr        ....    0.0000
 Zerner damping         CNVZerner       .... off
 Static damping         CNVDamp         .... on
   Fraction old density DampFac         ....    0.8500
   Max. Damping (<1)    DampMax         ....    0.9800
   Min. Damping (>=0)   DampMin         ....    0.0000
   Turn off err/grad.   DampErr         ....    0.0300
 Fernandez-Rico         CNVRico         .... off

SCF Procedure:
 Maximum # iterations   MaxIter         ....  2000
 SCF integral mode      SCFMode         .... Direct
   Integral package                     .... LIBINT
 Reset frequency        DirectResetFreq ....    20
 Integral Threshold     Thresh          ....  2.500e-11 Eh
 Primitive CutOff       TCut            ....  2.500e-12 Eh

Convergence Tolerance:
 Convergence Check Mode ConvCheckMode   .... Total+1el-Energy
 Convergence forced     ConvForced      .... 0
 Energy Change          TolE            ....  1.000e-08 Eh
 1-El. energy change                    ....  1.000e-05 Eh
 Orbital Gradient       TolG            ....  1.000e-05
 Orbital Rotation angle TolX            ....  1.000e-05
 DIIS Error             TolErr          ....  5.000e-07


Diagonalization of the overlap matrix:
Smallest eigenvalue                        ... 5.879e-06
Time for diagonalization                   ...    0.416 sec
Threshold for overlap eigenvalues          ... 1.000e-08
Number of eigenvalues below threshold      ... 0
Time for construction of square roots      ...    0.135 sec
Total time needed                          ...    0.553 sec

--------------------------------
INITIAL GUESS: MINIMAL BASIS EHT
--------------------------------
The minimal basis has 306 functions
EHT matrix was diagonalized
Basis set overlap was calculated now projecting the orbitals
Using GuessMode=FMatrix for the initial guess
C*T matrix was formed
Effective Fockian was calculated
Effective Fockian was diagonalized
Initial density was built
                      ------------------
                      INITIAL GUESS DONE
                      ------------------
-------------------
DFT GRID GENERATION
-------------------

General Integration Accuracy     IntAcc      ...  5.340
Radial Grid Type                 RadialGrid  ... Gauss-Chebyshev
Angular Grid (max. acc.)         AngularGrid ... Lebedev-590
Angular grid pruning method      GridPruning ... 3 (G Style)
Weight generation scheme         WeightScheme... Becke
Basis function cutoff            BFCut       ...    1.0000e-11
Integration weight cutoff        WCut        ...    1.0000e-14
Grids for H and He will be reduced by one unit

# of grid points (after initial pruning)     ... 1441232 (   0.0 sec)
# of grid points (after weights+screening)   ... 1181418 (   2.6 sec)
nearest neighbour list constructed           ...    0.0 sec
Grid point re-assignment to atoms done       ...    0.2 sec
Grid point division into batches done        ...   11.3 sec
Reduced shell lists constructed in   12.1 sec

Total number of grid points                  ...  1181418
Total number of batches                      ...    18517
Average number of points per batch           ...       63
Average number of grid points per atom       ...    11145
Average number of shells per batch           ...   222.22 (35.96%)
Average number of basis functions per batch  ...   408.81 (36.57%)
Average number of large shells per batch     ...   121.59 (54.72%)
Average number of large basis fcns per batch ...   235.51 (57.61%)
Maximum spatial batch extension              ...  19.91, 13.40,  7.29 au
Average spatial batch extension              ...   0.03,  0.03,  0.03 au

Time for grid setup =   15.162 sec

--------------
SCF ITERATIONS
--------------
ITER       Energy         Delta-E        Max-DP      RMS-DP      [F,P]     Damp
               ***  Starting incremental Fock matrix formation  ***
  0  -2064.8144552561   0.000000000000 0.28452340  0.00169207  0.4770350 0.8500
  1  -2065.8928642810  -1.078409024856 0.57933580  0.00278764  0.4069045 0.8500
                               ***Turning on DIIS***
  2  -2066.6852229037  -0.792358622714 0.52255102  0.00241532  0.3457897 0.8500
  3  -2067.2787611241  -0.593538220424 0.22068047  0.00116475  0.2936052 0.8500
  4  -2067.7726263716  -0.493865247549 0.06846900  0.00077694  0.2491368 0.8500
  5  -2068.1808195089  -0.408193137270 0.06030832  0.00062692  0.2116429 0.8500
  6  -2068.5345722605  -0.353752751592 0.04780511  0.00052486  0.1799873 0.8500
  7  -2068.8381892120  -0.303616951510 0.04843566  0.00045562  0.1530740 0.8500
  8  -2069.0969763436  -0.258787131580 0.03828909  0.00038971  0.1301424 0.8500
  9  -2069.3154994664  -0.218523122824 0.03421399  0.00033479  0.1105620 0.8500
 10  -2069.5000412035  -0.184541737125 0.02811807  0.00028153  0.0939225 0.8500
 11  -2069.6570364538  -0.156995250253 0.02101076  0.00023639  0.0798378 0.8500
 12  -2069.7907968199  -0.133760366130 0.01894481  0.00020214  0.0678874 0.8500
 13  -2069.9044534179  -0.113656598009 0.01558416  0.00017300  0.0577109 0.8500
 14  -2070.0008982169  -0.096444798945 0.01393875  0.00014821  0.0490358 0.8500
 15  -2070.0827557683  -0.081857551449 0.01096212  0.00012566  0.0416616 0.8500
 16  -2070.1523288237  -0.069573055404 0.01130916  0.00010733  0.0354099 0.8500
 17  -2070.2114819206  -0.059153096892 0.01144478  0.00009337  0.0301041 0.8500
 18  -2070.2617485123  -0.050266591642 0.06952790  0.00053938  0.0255892 0.0000
                      *** Initiating the SOSCF procedure ***
                           *** Shutting down DIIS ***
                      *** Re-Reading the Fockian *** 
                      *** Removing any level shift *** 
ITER      Energy       Delta-E        Grad      Rot      Max-DP    RMS-DP
 19  -2070.54625650  -0.2845079840  0.000171  0.000171  0.019407  0.000075
               *** Restarting incremental Fock matrix formation ***
 20  -2070.54625633   0.0000001706  0.000123  0.000927  0.004993  0.000024
 21  -2070.54624318   0.0000131478  0.000475  0.001073  0.005419  0.000022
 22  -2070.54625923  -0.0000160526  0.000097  0.000495  0.002464  0.000013
 23  -2070.54625602   0.0000032080  0.000154  0.000275  0.003148  0.000012
 24  -2070.54625988  -0.0000038590  0.000022  0.000123  0.004194  0.000018
 25  -2070.54625970   0.0000001822  0.000059  0.000097  0.000706  0.000003
 26  -2070.54625993  -0.0000002295  0.000005  0.000022  0.002086  0.000010
 27  -2070.54625995  -0.0000000203  0.000010  0.000018  0.000564  0.000003
                  ***Gradient check signals convergence***
              ***Rediagonalizing the Fockian in SOSCF/NRSCF***

               *****************************************************
               *                     SUCCESS                       *
               *           SCF CONVERGED AFTER  28 CYCLES          *
               *****************************************************


----------------
TOTAL SCF ENERGY
----------------

Total Energy       :        -2070.54625996 Eh          -56342.42813 eV

Components:
Nuclear Repulsion  :         6739.39609977 Eh          183388.29116 eV
Electronic Energy  :        -8809.94235973 Eh         -239730.71928 eV
One Electron Energy:       -16230.34025004 Eh         -441650.01126 eV
Two Electron Energy:         7420.39789031 Eh          201919.29197 eV

Virial components:
Potential Energy   :        -4133.76491156 Eh         -112485.46189 eV
Kinetic Energy     :         2063.21865160 Eh           56143.03377 eV
Virial Ratio       :            2.00355154


DFT components:
N(Alpha)           :      181.999994963067 electrons
N(Beta)            :      181.999994963067 electrons
N(Total)           :      363.999989926133 electrons
E(XC)              :     -302.988774545845 Eh       
DFET-embed. en.    :        0.000000000000 Eh       

---------------
SCF CONVERGENCE
---------------

  Last Energy change         ...   -9.5624e-09  Tolerance :   1.0000e-08
  Last MAX-Density change    ...    4.4590e-03  Tolerance :   1.0000e-07
  Last RMS-Density change    ...    1.6833e-05  Tolerance :   5.0000e-09
  Last Orbital Gradient      ...    2.4067e-06  Tolerance :   1.0000e-05
  Last Orbital Rotation      ...    9.7434e-06  Tolerance :   1.0000e-05

             **** THE GBW FILE WAS UPDATED (_o_2_alde1_4_ami3_1_opt_B97-3c.gbw) ****
             **** DENSITY FILE WAS UPDATED (_o_2_alde1_4_ami3_1_opt_B97-3c.scfp) ****
             **** ENERGY FILE WAS UPDATED (_o_2_alde1_4_ami3_1_opt_B97-3c.en.tmp) ****
             **** THE GBW FILE WAS UPDATED (_o_2_alde1_4_ami3_1_opt_B97-3c.gbw) ****
             **** DENSITY FILE WAS UPDATED (_o_2_alde1_4_ami3_1_opt_B97-3c.scfp) ****
----------------
ORBITAL ENERGIES
----------------

  NO   OCC          E(Eh)            E(eV) 
   0   2.0000     -13.976972      -380.3327 
   1   2.0000     -13.976961      -380.3324 
   2   2.0000     -13.972540      -380.2121 
   3   2.0000     -13.972520      -380.2116 
   4   2.0000     -13.969500      -380.1294 
   5   2.0000     -13.969500      -380.1294 
   6   2.0000     -13.965769      -380.0279 
   7   2.0000     -13.965766      -380.0278 
   8   2.0000      -9.946184      -270.6494 
   9   2.0000      -9.946171      -270.6491 
  10   2.0000      -9.924656      -270.0636 
  11   2.0000      -9.924655      -270.0636 
  12   2.0000      -9.920099      -269.9396 
  13   2.0000      -9.920088      -269.9393 
  14   2.0000      -9.915367      -269.8109 
  15   2.0000      -9.915363      -269.8108 
  16   2.0000      -9.914605      -269.7901 
  17   2.0000      -9.914603      -269.7901 
  18   2.0000      -9.914056      -269.7752 
  19   2.0000      -9.914049      -269.7750 
  20   2.0000      -9.911683      -269.7106 
  21   2.0000      -9.911680      -269.7105 
  22   2.0000      -9.897273      -269.3185 
  23   2.0000      -9.897272      -269.3185 
  24   2.0000      -9.897135      -269.3147 
  25   2.0000      -9.897123      -269.3144 
  26   2.0000      -9.896830      -269.3064 
  27   2.0000      -9.896828      -269.3064 
  28   2.0000      -9.894922      -269.2545 
  29   2.0000      -9.894914      -269.2543 
  30   2.0000      -9.894782      -269.2507 
  31   2.0000      -9.894777      -269.2506 
  32   2.0000      -9.894506      -269.2432 
  33   2.0000      -9.894491      -269.2428 
  34   2.0000      -9.894433      -269.2412 
  35   2.0000      -9.894431      -269.2411 
  36   2.0000      -9.891164      -269.1523 
  37   2.0000      -9.891160      -269.1521 
  38   2.0000      -9.891138      -269.1516 
  39   2.0000      -9.891128      -269.1513 
  40   2.0000      -9.889423      -269.1049 
  41   2.0000      -9.889413      -269.1046 
  42   2.0000      -9.882192      -268.9081 
  43   2.0000      -9.882189      -268.9080 
  44   2.0000      -9.881974      -268.9022 
  45   2.0000      -9.881973      -268.9021 
  46   2.0000      -9.880872      -268.8722 
  47   2.0000      -9.880861      -268.8719 
  48   2.0000      -9.878150      -268.7981 
  49   2.0000      -9.878147      -268.7980 
  50   2.0000      -0.888797       -24.1854 
  51   2.0000      -0.888771       -24.1847 
  52   2.0000      -0.865559       -23.5531 
  53   2.0000      -0.864566       -23.5260 
  54   2.0000      -0.839242       -22.8369 
  55   2.0000      -0.836404       -22.7597 
  56   2.0000      -0.794359       -21.6156 
  57   2.0000      -0.788599       -21.4589 
  58   2.0000      -0.786416       -21.3995 
  59   2.0000      -0.786032       -21.3890 
  60   2.0000      -0.764387       -20.8000 
  61   2.0000      -0.761990       -20.7348 
  62   2.0000      -0.756917       -20.5968 
  63   2.0000      -0.751204       -20.4413 
  64   2.0000      -0.708115       -19.2688 
  65   2.0000      -0.708030       -19.2665 
  66   2.0000      -0.705876       -19.2079 
  67   2.0000      -0.704849       -19.1799 
  68   2.0000      -0.679706       -18.4957 
  69   2.0000      -0.679418       -18.4879 
  70   2.0000      -0.674157       -18.3447 
  71   2.0000      -0.671692       -18.2777 
  72   2.0000      -0.668041       -18.1783 
  73   2.0000      -0.659868       -17.9559 
  74   2.0000      -0.656910       -17.8754 
  75   2.0000      -0.656025       -17.8514 
  76   2.0000      -0.595149       -16.1948 
  77   2.0000      -0.592647       -16.1267 
  78   2.0000      -0.588118       -16.0035 
  79   2.0000      -0.584521       -15.9056 
  80   2.0000      -0.582896       -15.8614 
  81   2.0000      -0.573533       -15.6066 
  82   2.0000      -0.555893       -15.1266 
  83   2.0000      -0.555868       -15.1259 
  84   2.0000      -0.551493       -15.0069 
  85   2.0000      -0.550613       -14.9830 
  86   2.0000      -0.545969       -14.8566 
  87   2.0000      -0.541316       -14.7300 
  88   2.0000      -0.537660       -14.6305 
  89   2.0000      -0.532687       -14.4951 
  90   2.0000      -0.526996       -14.3403 
  91   2.0000      -0.524048       -14.2601 
  92   2.0000      -0.508017       -13.8238 
  93   2.0000      -0.506022       -13.7696 
  94   2.0000      -0.499999       -13.6057 
  95   2.0000      -0.498482       -13.5644 
  96   2.0000      -0.484248       -13.1771 
  97   2.0000      -0.480791       -13.0830 
  98   2.0000      -0.464981       -12.6528 
  99   2.0000      -0.459430       -12.5017 
 100   2.0000      -0.457923       -12.4607 
 101   2.0000      -0.456098       -12.4111 
 102   2.0000      -0.450657       -12.2630 
 103   2.0000      -0.445498       -12.1226 
 104   2.0000      -0.440935       -11.9985 
 105   2.0000      -0.439651       -11.9635 
 106   2.0000      -0.432033       -11.7562 
 107   2.0000      -0.424781       -11.5589 
 108   2.0000      -0.421151       -11.4601 
 109   2.0000      -0.421114       -11.4591 
 110   2.0000      -0.419396       -11.4123 
 111   2.0000      -0.416397       -11.3308 
 112   2.0000      -0.414653       -11.2833 
 113   2.0000      -0.414445       -11.2776 
 114   2.0000      -0.406472       -11.0607 
 115   2.0000      -0.405367       -11.0306 
 116   2.0000      -0.403197       -10.9716 
 117   2.0000      -0.399890       -10.8816 
 118   2.0000      -0.399801       -10.8791 
 119   2.0000      -0.391756       -10.6602 
 120   2.0000      -0.388635       -10.5753 
 121   2.0000      -0.384070       -10.4511 
 122   2.0000      -0.381441       -10.3795 
 123   2.0000      -0.381167       -10.3721 
 124   2.0000      -0.374904       -10.2016 
 125   2.0000      -0.373385       -10.1603 
 126   2.0000      -0.371526       -10.1097 
 127   2.0000      -0.371419       -10.1068 
 128   2.0000      -0.361388        -9.8339 
 129   2.0000      -0.360695        -9.8150 
 130   2.0000      -0.359967        -9.7952 
 131   2.0000      -0.358850        -9.7648 
 132   2.0000      -0.357396        -9.7252 
 133   2.0000      -0.357299        -9.7226 
 134   2.0000      -0.349321        -9.5055 
 135   2.0000      -0.348826        -9.4920 
 136   2.0000      -0.341433        -9.2909 
 137   2.0000      -0.340392        -9.2625 
 138   2.0000      -0.340259        -9.2589 
 139   2.0000      -0.339804        -9.2465 
 140   2.0000      -0.325161        -8.8481 
 141   2.0000      -0.324540        -8.8312 
 142   2.0000      -0.321945        -8.7606 
 143   2.0000      -0.320149        -8.7117 
 144   2.0000      -0.319809        -8.7024 
 145   2.0000      -0.317486        -8.6392 
 146   2.0000      -0.316728        -8.6186 
 147   2.0000      -0.315051        -8.5730 
 148   2.0000      -0.310161        -8.4399 
 149   2.0000      -0.307526        -8.3682 
 150   2.0000      -0.304528        -8.2866 
 151   2.0000      -0.302853        -8.2410 
 152   2.0000      -0.301687        -8.2093 
 153   2.0000      -0.301125        -8.1940 
 154   2.0000      -0.299793        -8.1578 
 155   2.0000      -0.297140        -8.0856 
 156   2.0000      -0.297083        -8.0840 
 157   2.0000      -0.292495        -7.9592 
 158   2.0000      -0.290014        -7.8917 
 159   2.0000      -0.289218        -7.8700 
 160   2.0000      -0.287660        -7.8276 
 161   2.0000      -0.285749        -7.7756 
 162   2.0000      -0.282889        -7.6978 
 163   2.0000      -0.282165        -7.6781 
 164   2.0000      -0.281133        -7.6500 
 165   2.0000      -0.280643        -7.6367 
 166   2.0000      -0.269186        -7.3249 
 167   2.0000      -0.264743        -7.2040 
 168   2.0000      -0.256809        -6.9881 
 169   2.0000      -0.252006        -6.8574 
 170   2.0000      -0.218747        -5.9524 
 171   2.0000      -0.215155        -5.8547 
 172   2.0000      -0.212576        -5.7845 
 173   2.0000      -0.211838        -5.7644 
 174   2.0000      -0.211445        -5.7537 
 175   2.0000      -0.205739        -5.5984 
 176   2.0000      -0.205182        -5.5833 
 177   2.0000      -0.201624        -5.4865 
 178   2.0000      -0.199375        -5.4253 
 179   2.0000      -0.197926        -5.3858 
 180   2.0000      -0.187688        -5.1072 
 181   2.0000      -0.187668        -5.1067 
 182   0.0000      -0.079305        -2.1580 
 183   0.0000      -0.072695        -1.9781 
 184   0.0000      -0.062210        -1.6928 
 185   0.0000      -0.055940        -1.5222 
 186   0.0000      -0.009720        -0.2645 
 187   0.0000      -0.006065        -0.1650 
 188   0.0000       0.000495         0.0135 
 189   0.0000       0.015465         0.4208 
 190   0.0000       0.021935         0.5969 
 191   0.0000       0.022832         0.6213 
 192   0.0000       0.027709         0.7540 
 193   0.0000       0.030300         0.8245 
 194   0.0000       0.032403         0.8817 
 195   0.0000       0.035173         0.9571 
 196   0.0000       0.035726         0.9721 
 197   0.0000       0.036342         0.9889 
 198   0.0000       0.038646         1.0516 
 199   0.0000       0.043327         1.1790 
 200   0.0000       0.049119         1.3366 
 201   0.0000       0.052407         1.4261 
 202   0.0000       0.055928         1.5219 
 203   0.0000       0.056310         1.5323 
 204   0.0000       0.063603         1.7307 
 205   0.0000       0.065048         1.7701 
 206   0.0000       0.065409         1.7799 
 207   0.0000       0.066779         1.8171 
 208   0.0000       0.072171         1.9639 
 209   0.0000       0.072913         1.9841 
 210   0.0000       0.078051         2.1239 
 211   0.0000       0.078812         2.1446 
 212   0.0000       0.082920         2.2564 
 213   0.0000       0.083216         2.2644 
 214   0.0000       0.084628         2.3028 
 215   0.0000       0.086688         2.3589 
 216   0.0000       0.089389         2.4324 
 217   0.0000       0.090415         2.4603 
 218   0.0000       0.092471         2.5163 
 219   0.0000       0.094999         2.5850 
 220   0.0000       0.095002         2.5851 
 221   0.0000       0.096836         2.6350 
 222   0.0000       0.099137         2.6977 
 223   0.0000       0.100687         2.7398 
 224   0.0000       0.101304         2.7566 
 225   0.0000       0.102152         2.7797 
 226   0.0000       0.104585         2.8459 
 227   0.0000       0.108526         2.9531 
 228   0.0000       0.108545         2.9537 
 229   0.0000       0.110672         3.0115 
 230   0.0000       0.112348         3.0571 
 231   0.0000       0.112743         3.0679 
 232   0.0000       0.116077         3.1586 
 233   0.0000       0.117481         3.1968 
 234   0.0000       0.120588         3.2814 
 235   0.0000       0.120658         3.2833 
 236   0.0000       0.121949         3.3184 
 237   0.0000       0.122431         3.3315 
 238   0.0000       0.124723         3.3939 
 239   0.0000       0.124882         3.3982 
 240   0.0000       0.126048         3.4299 
 241   0.0000       0.130164         3.5419 
 242   0.0000       0.132884         3.6159 
 243   0.0000       0.134313         3.6548 
 244   0.0000       0.136360         3.7106 
 245   0.0000       0.137028         3.7287 
 246   0.0000       0.141959         3.8629 
 247   0.0000       0.144011         3.9188 
 248   0.0000       0.145952         3.9716 
 249   0.0000       0.146527         3.9872 
 250   0.0000       0.148551         4.0423 
 251   0.0000       0.152768         4.1570 
 252   0.0000       0.154721         4.2102 
 253   0.0000       0.158678         4.3179 
 254   0.0000       0.159445         4.3387 
 255   0.0000       0.161212         4.3868 
 256   0.0000       0.166858         4.5404 
 257   0.0000       0.167495         4.5578 
 258   0.0000       0.169175         4.6035 
 259   0.0000       0.169758         4.6193 
 260   0.0000       0.171594         4.6693 
 261   0.0000       0.173506         4.7213 
 262   0.0000       0.175344         4.7714 
 263   0.0000       0.176000         4.7892 
 264   0.0000       0.179381         4.8812 
 265   0.0000       0.181030         4.9261 
 266   0.0000       0.181590         4.9413 
 267   0.0000       0.183454         4.9920 
 268   0.0000       0.185864         5.0576 
 269   0.0000       0.187007         5.0887 
 270   0.0000       0.190646         5.1877 
 271   0.0000       0.194321         5.2877 
 272   0.0000       0.197912         5.3855 
 273   0.0000       0.199294         5.4231 
 274   0.0000       0.199671         5.4333 
 275   0.0000       0.202868         5.5203 
 276   0.0000       0.204928         5.5764 
 277   0.0000       0.206066         5.6073 
 278   0.0000       0.206340         5.6148 
 279   0.0000       0.207472         5.6456 
 280   0.0000       0.209200         5.6926 
 281   0.0000       0.211627         5.7587 
 282   0.0000       0.214504         5.8370 
 283   0.0000       0.215932         5.8758 
 284   0.0000       0.216791         5.8992 
 285   0.0000       0.217268         5.9122 
 286   0.0000       0.218952         5.9580 
 287   0.0000       0.222139         6.0447 
 288   0.0000       0.222400         6.0518 
 289   0.0000       0.223467         6.0808 
 290   0.0000       0.224400         6.1062 
 291   0.0000       0.224588         6.1113 
 292   0.0000       0.229399         6.2423 
 293   0.0000       0.230709         6.2779 
 294   0.0000       0.234327         6.3764 
 295   0.0000       0.239571         6.5191 
 296   0.0000       0.240391         6.5414 
 297   0.0000       0.242221         6.5912 
 298   0.0000       0.245837         6.6896 
 299   0.0000       0.247597         6.7375 
 300   0.0000       0.247886         6.7453 
 301   0.0000       0.249518         6.7897 
 302   0.0000       0.252595         6.8735 
 303   0.0000       0.255595         6.9551 
 304   0.0000       0.255737         6.9589 
 305   0.0000       0.257471         7.0061 
 306   0.0000       0.260307         7.0833 
 307   0.0000       0.261054         7.1037 
 308   0.0000       0.261269         7.1095 
 309   0.0000       0.262984         7.1562 
 310   0.0000       0.266889         7.2624 
 311   0.0000       0.270313         7.3556 
 312   0.0000       0.271097         7.3769 
 313   0.0000       0.274298         7.4640 
 314   0.0000       0.276408         7.5215 
 315   0.0000       0.278831         7.5874 
 316   0.0000       0.283322         7.7096 
 317   0.0000       0.285711         7.7746 
 318   0.0000       0.286571         7.7980 
 319   0.0000       0.288486         7.8501 
 320   0.0000       0.290520         7.9054 
 321   0.0000       0.296680         8.0731 
 322   0.0000       0.297736         8.1018 
 323   0.0000       0.299252         8.1431 
 324   0.0000       0.299780         8.1574 
 325   0.0000       0.304456         8.2847 
 326   0.0000       0.305422         8.3110 
 327   0.0000       0.307024         8.3545 
 328   0.0000       0.311183         8.4677 
 329   0.0000       0.311767         8.4836 
 330   0.0000       0.314423         8.5559 
 331   0.0000       0.315150         8.5757 
 332   0.0000       0.318260         8.6603 
 333   0.0000       0.319556         8.6956 
 334   0.0000       0.325014         8.8441 
 335   0.0000       0.327834         8.9208 
 336   0.0000       0.332576         9.0499 
 337   0.0000       0.332868         9.0578 
 338   0.0000       0.334150         9.0927 
 339   0.0000       0.336772         9.1640 
 340   0.0000       0.338799         9.2192 
 341   0.0000       0.340367         9.2619 
 342   0.0000       0.344720         9.3803 
 343   0.0000       0.345028         9.3887 
 344   0.0000       0.345978         9.4146 
 345   0.0000       0.347411         9.4535 
 346   0.0000       0.348568         9.4850 
 347   0.0000       0.351562         9.5665 
 348   0.0000       0.352960         9.6045 
 349   0.0000       0.354276         9.6403 
 350   0.0000       0.355599         9.6763 
 351   0.0000       0.356748         9.7076 
 352   0.0000       0.358576         9.7574 
 353   0.0000       0.359164         9.7733 
 354   0.0000       0.366940         9.9850 
 355   0.0000       0.368243        10.0204 
 356   0.0000       0.372214        10.1285 
 357   0.0000       0.373861        10.1733 
 358   0.0000       0.377622        10.2756 
 359   0.0000       0.378059        10.2875 
 360   0.0000       0.379139        10.3169 
 361   0.0000       0.381044        10.3687 
 362   0.0000       0.383081        10.4242 
 363   0.0000       0.384888        10.4733 
 364   0.0000       0.385413        10.4876 
 365   0.0000       0.386752        10.5240 
 366   0.0000       0.388477        10.5710 
 367   0.0000       0.390241        10.6190 
 368   0.0000       0.390753        10.6329 
 369   0.0000       0.393530        10.7085 
 370   0.0000       0.396435        10.7875 
 371   0.0000       0.399114        10.8605 
 372   0.0000       0.399429        10.8690 
 373   0.0000       0.400515        10.8986 
 374   0.0000       0.404105        10.9962 
 375   0.0000       0.405197        11.0260 
 376   0.0000       0.405603        11.0370 
 377   0.0000       0.408061        11.1039 
 378   0.0000       0.409440        11.1414 
 379   0.0000       0.410210        11.1624 
 380   0.0000       0.412029        11.2119 
 381   0.0000       0.412381        11.2215 
 382   0.0000       0.414192        11.2707 
 383   0.0000       0.414404        11.2765 
 384   0.0000       0.415821        11.3151 
 385   0.0000       0.418480        11.3874 
 386   0.0000       0.419713        11.4210 
 387   0.0000       0.421596        11.4722 
 388   0.0000       0.422154        11.4874 
 389   0.0000       0.422628        11.5003 
 390   0.0000       0.423622        11.5273 
 391   0.0000       0.424545        11.5524 
 392   0.0000       0.424832        11.5603 
 393   0.0000       0.426269        11.5994 
 394   0.0000       0.427476        11.6322 
 395   0.0000       0.428888        11.6706 
 396   0.0000       0.429372        11.6838 
 397   0.0000       0.431243        11.7347 
 398   0.0000       0.432563        11.7706 
 399   0.0000       0.433638        11.7999 
 400   0.0000       0.434630        11.8269 
 401   0.0000       0.436777        11.8853 
 402   0.0000       0.440234        11.9794 
 403   0.0000       0.440777        11.9942 
 404   0.0000       0.442182        12.0324 
 405   0.0000       0.442317        12.0361 
 406   0.0000       0.444673        12.1002 
 407   0.0000       0.445773        12.1301 
[...]
      dxz     :     0.009630
      dyz     :     0.020213
      dx2y2   :     0.012710
      dxy     :     0.015020
 82 H s       :     0.839048  s :     0.839048
 83 H s       :     0.846876  s :     0.846876
 84 C s       :     2.931496  s :     2.931496
      pz      :     1.082595  p :     3.285070
      px      :     1.083244
      py      :     1.119230
      dz2     :     0.017250  d :     0.079123
      dxz     :     0.015321
      dyz     :     0.017020
      dx2y2   :     0.013691
      dxy     :     0.015841
 85 H s       :     0.844319  s :     0.844319
 86 H s       :     0.842993  s :     0.842993
 87 C s       :     2.931006  s :     2.931006
      pz      :     1.112361  p :     3.281182
      px      :     1.085166
      py      :     1.083655
      dz2     :     0.021039  d :     0.080441
      dxz     :     0.008877
      dyz     :     0.014794
      dx2y2   :     0.014812
      dxy     :     0.020918
 88 H s       :     0.844915  s :     0.844915
 89 H s       :     0.844138  s :     0.844138
 90 H s       :     0.837752  s :     0.837752
 91 H s       :     0.852628  s :     0.852628
 92 H s       :     0.848861  s :     0.848861
 93 H s       :     0.851789  s :     0.851789
 94 C s       :     2.936052  s :     2.936052
      pz      :     1.098886  p :     3.272111
      px      :     1.076546
      py      :     1.096679
      dz2     :     0.007562  d :     0.079566
      dxz     :     0.023538
      dyz     :     0.018868
      dx2y2   :     0.022569
      dxy     :     0.007029
 95 H s       :     0.853373  s :     0.853373
 96 C s       :     2.930931  s :     2.930931
      pz      :     1.091861  p :     3.285189
      px      :     1.121276
      py      :     1.072052
      dz2     :     0.009108  d :     0.080504
      dxz     :     0.020050
      dyz     :     0.021375
      dx2y2   :     0.022432
      dxy     :     0.007538
 97 H s       :     0.839096  s :     0.839096
 98 H s       :     0.842115  s :     0.842115
 99 C s       :     2.930653  s :     2.930653
      pz      :     1.109218  p :     3.285853
      px      :     1.090628
      py      :     1.086007
      dz2     :     0.005861  d :     0.080528
      dxz     :     0.021483
      dyz     :     0.021419
      dx2y2   :     0.022091
      dxy     :     0.009675
100 H s       :     0.845409  s :     0.845409
101 H s       :     0.847276  s :     0.847276
102 H s       :     0.847230  s :     0.847230
103 H s       :     0.845599  s :     0.845599
104 H s       :     0.839690  s :     0.839690
105 H s       :     0.841141  s :     0.841141


                      *****************************
                      * MAYER POPULATION ANALYSIS *
                      *****************************

  NA   - Mulliken gross atomic population
  ZA   - Total nuclear charge
  QA   - Mulliken gross atomic charge
  VA   - Mayer's total valence
  BVA  - Mayer's bonded valence
  FA   - Mayer's free valence

  ATOM       NA         ZA         QA         VA         BVA        FA
  0 C      5.6507     6.0000     0.3493     3.3227     3.3227    -0.0000
  1 C      6.3383     6.0000    -0.3383     4.0132     4.0132     0.0000
  2 C      6.1610     6.0000    -0.1610     3.4901     3.4901    -0.0000
  3 C      5.9552     6.0000     0.0448     3.5856     3.5856    -0.0000
  4 H      0.7907     1.0000     0.2093     0.9598     0.9598     0.0000
  5 C      6.2330     6.0000    -0.2330     3.5718     3.5718    -0.0000
  6 C      5.6999     6.0000     0.3001     3.4483     3.4483    -0.0000
  7 H      0.7664     1.0000     0.2336     0.9109     0.9109    -0.0000
  8 C      6.1572     6.0000    -0.1572     3.5245     3.5245    -0.0000
  9 C      6.3644     6.0000    -0.3644     4.0013     4.0013    -0.0000
 10 H      0.7926     1.0000     0.2074     0.9331     0.9331    -0.0000
 11 C      6.3372     6.0000    -0.3372     3.9032     3.9032    -0.0000
 12 H      0.8992     1.0000     0.1008     0.9617     0.9617    -0.0000
 13 H      0.8858     1.0000     0.1142     0.9534     0.9534    -0.0000
 14 C      5.6992     6.0000     0.3008     3.4479     3.4479    -0.0000
 15 C      6.3645     6.0000    -0.3645     4.0017     4.0017    -0.0000
 16 C      6.1572     6.0000    -0.1572     3.5251     3.5251    -0.0000
 17 C      5.6505     6.0000     0.3495     3.3230     3.3230    -0.0000
 18 H      0.7927     1.0000     0.2073     0.9331     0.9331     0.0000
 19 C      6.1614     6.0000    -0.1614     3.4909     3.4909    -0.0000
 20 C      5.9543     6.0000     0.0457     3.5846     3.5846    -0.0000
 21 H      0.7908     1.0000     0.2092     0.9598     0.9598    -0.0000
 22 C      6.2339     6.0000    -0.2339     3.5723     3.5723    -0.0000
 23 C      6.3376     6.0000    -0.3376     3.9035     3.9035    -0.0000
 24 H      0.7665     1.0000     0.2335     0.9109     0.9109    -0.0000
 25 C      6.3382     6.0000    -0.3382     4.0128     4.0128    -0.0000
 26 H      0.8858     1.0000     0.1142     0.9534     0.9534    -0.0000
 27 C      6.2269     6.0000    -0.2269     3.7094     3.7094    -0.0000
 28 C      6.2430     6.0000    -0.2430     3.7474     3.7474    -0.0000
 29 N      7.0417     7.0000    -0.0417     2.8688     2.8688    -0.0000
 30 N      7.0488     7.0000    -0.0488     2.8936     2.8936    -0.0000
 31 C      6.2590     6.0000    -0.2590     3.6973     3.6973    -0.0000
 32 C      6.2320     6.0000    -0.2320     3.6698     3.6698    -0.0000
 33 N      7.2700     7.0000    -0.2700     2.7738     2.7738    -0.0000
 34 N      7.2628     7.0000    -0.2628     2.8704     2.8704    -0.0000
 35 C      6.2273     6.0000    -0.2273     3.7091     3.7091    -0.0000
 36 C      6.2425     6.0000    -0.2425     3.7466     3.7466    -0.0000
 37 N      7.0417     7.0000    -0.0417     2.8687     2.8687    -0.0000
 38 N      7.0488     7.0000    -0.0488     2.8935     2.8935    -0.0000
 39 C      6.2324     6.0000    -0.2324     3.6703     3.6703    -0.0000
 40 C      6.2584     6.0000    -0.2584     3.6969     3.6969    -0.0000
 41 N      7.2628     7.0000    -0.2628     2.8703     2.8703    -0.0000
 42 N      7.2699     7.0000    -0.2699     2.7739     2.7739     0.0000
 43 H      0.8992     1.0000     0.1008     0.9617     0.9617    -0.0000
 44 H      0.6926     1.0000     0.3074     0.8744     0.8744    -0.0000
 45 H      0.8342     1.0000     0.1658     0.9261     0.9261    -0.0000
 46 H      0.6942     1.0000     0.3058     0.8779     0.8779    -0.0000
 47 H      0.6926     1.0000     0.3074     0.8744     0.8744    -0.0000
 48 H      0.6942     1.0000     0.3058     0.8779     0.8779    -0.0000
 49 H      0.8342     1.0000     0.1658     0.9261     0.9261    -0.0000
 50 C      6.2495     6.0000    -0.2495     3.7052     3.7052    -0.0000
 51 C      6.2504     6.0000    -0.2504     3.6773     3.6773    -0.0000
 52 C      6.2615     6.0000    -0.2615     3.6586     3.6586    -0.0000
 53 C      6.2708     6.0000    -0.2708     3.6337     3.6337    -0.0000
 54 H      0.8788     1.0000     0.1212     0.9804     0.9804    -0.0000
 55 C      6.2706     6.0000    -0.2706     3.6334     3.6334    -0.0000
 56 H      0.8764     1.0000     0.1236     0.9751     0.9751     0.0000
 57 C      6.2908     6.0000    -0.2908     3.7910     3.7910    -0.0000
 58 H      0.8443     1.0000     0.1557     0.9706     0.9706     0.0000
 59 H      0.8308     1.0000     0.1692     0.9550     0.9550    -0.0000
 60 C      6.2774     6.0000    -0.2774     3.7804     3.7804    -0.0000
 61 H      0.8256     1.0000     0.1744     0.9430     0.9430    -0.0000
 62 H      0.8620     1.0000     0.1380     0.9592     0.9592     0.0000
 63 H      0.8629     1.0000     0.1371     0.9592     0.9592    -0.0000
 64 H      0.8268     1.0000     0.1732     0.9427     0.9427    -0.0000
 65 H      0.8439     1.0000     0.1561     0.9710     0.9710     0.0000
 66 H      0.8330     1.0000     0.1670     0.9533     0.9533    -0.0000
 67 H      0.8629     1.0000     0.1371     0.9565     0.9565    -0.0000
 68 C      6.3068     6.0000    -0.3068     3.7540     3.7540    -0.0000
 69 H      0.8180     1.0000     0.1820     0.9466     0.9466    -0.0000
 70 H      0.8959     1.0000     0.1041     0.9848     0.9848    -0.0000
 71 C      6.2977     6.0000    -0.2977     3.7573     3.7573     0.0000
 72 H      0.8445     1.0000     0.1555     0.9542     0.9542    -0.0000
 73 H      0.8218     1.0000     0.1782     0.9452     0.9452    -0.0000
 74 C      6.2493     6.0000    -0.2493     3.7048     3.7048    -0.0000
 75 H      0.8243     1.0000     0.1757     0.9470     0.9470     0.0000
 76 H      0.8596     1.0000     0.1404     0.9688     0.9688     0.0000
 77 H      0.8646     1.0000     0.1354     0.9679     0.9679     0.0000
 78 H      0.8175     1.0000     0.1825     0.9440     0.9440    -0.0000
 79 H      0.8648     1.0000     0.1352     0.9695     0.9695     0.0000
 80 H      0.8649     1.0000     0.1351     0.9695     0.9695     0.0000
 81 C      6.2976     6.0000    -0.2976     3.7569     3.7569     0.0000
 82 H      0.8175     1.0000     0.1825     0.9440     0.9440     0.0000
 83 H      0.8646     1.0000     0.1354     0.9679     0.9679     0.0000
 84 C      6.3071     6.0000    -0.3071     3.7540     3.7540    -0.0000
 85 H      0.8596     1.0000     0.1404     0.9688     0.9688    -0.0000
 86 H      0.8242     1.0000     0.1758     0.9469     0.9469    -0.0000
 87 C      6.2503     6.0000    -0.2503     3.6766     3.6766    -0.0000
 88 H      0.8217     1.0000     0.1783     0.9452     0.9452    -0.0000
 89 H      0.8446     1.0000     0.1554     0.9542     0.9542     0.0000
 90 H      0.8180     1.0000     0.1820     0.9466     0.9466     0.0000
 91 H      0.8959     1.0000     0.1041     0.9849     0.9849     0.0000
 92 H      0.8629     1.0000     0.1371     0.9565     0.9565    -0.0000
 93 H      0.8765     1.0000     0.1235     0.9752     0.9752    -0.0000
 94 C      6.2614     6.0000    -0.2614     3.6585     3.6585    -0.0000
 95 H      0.8787     1.0000     0.1213     0.9803     0.9803    -0.0000
 96 C      6.2774     6.0000    -0.2774     3.7803     3.7803    -0.0000
 97 H      0.8439     1.0000     0.1561     0.9710     0.9710    -0.0000
 98 H      0.8330     1.0000     0.1670     0.9533     0.9533    -0.0000
 99 C      6.2909     6.0000    -0.2909     3.7910     3.7910    -0.0000
100 H      0.8268     1.0000     0.1732     0.9427     0.9427    -0.0000
101 H      0.8628     1.0000     0.1372     0.9592     0.9592    -0.0000
102 H      0.8620     1.0000     0.1380     0.9591     0.9591     0.0000
103 H      0.8257     1.0000     0.1743     0.9430     0.9430    -0.0000
104 H      0.8442     1.0000     0.1558     0.9706     0.9706    -0.0000
105 H      0.8309     1.0000     0.1691     0.9550     0.9550    -0.0000

  Mayer bond orders larger than 0.100000
B(  0-C ,  1-C ) :   0.9355 B(  0-C ,  2-C ) :   1.3246 B(  0-C ,  3-C ) :   0.1293 
B(  0-C ,  6-C ) :   0.1019 B(  0-C ,  8-C ) :   1.1233 B(  0-C , 30-N ) :  -0.1757 
B(  1-C ,  8-C ) :   0.1046 B(  1-C , 13-H ) :   0.8970 B(  1-C , 28-C ) :   0.1005 
B(  1-C , 30-N ) :   1.9307 B(  2-C ,  3-C ) :   1.3462 B(  2-C ,  4-H ) :   0.8963 
B(  2-C , 30-N ) :   0.1044 B(  3-C ,  5-C ) :   1.4282 B(  3-C , 11-C ) :   0.7660 
B(  3-C , 33-N ) :  -0.1916 B(  5-C ,  6-C ) :   1.1293 B(  5-C ,  7-H ) :   0.8874 
B(  5-C ,  9-C ) :   0.1087 B(  6-C ,  8-C ) :   1.4292 B(  6-C ,  9-C ) :   0.9155 
B(  6-C , 37-N ) :  -0.1912 B(  8-C , 10-H ) :   0.8691 B(  9-C , 12-H ) :   0.9099 
B(  9-C , 37-N ) :   1.9671 B( 11-C , 33-N ) :   1.2102 B( 11-C , 34-N ) :   1.0417 
B( 11-C , 49-H ) :   0.9720 B( 14-C , 15-C ) :   0.9160 B( 14-C , 16-C ) :   1.4293 
B( 14-C , 17-C ) :   0.1016 B( 14-C , 22-C ) :   1.1289 B( 14-C , 29-N ) :  -0.1913 
B( 15-C , 22-C ) :   0.1089 B( 15-C , 29-N ) :   1.9672 B( 15-C , 43-H ) :   0.9097 
B( 16-C , 17-C ) :   1.1237 B( 16-C , 18-H ) :   0.8692 B( 16-C , 25-C ) :   0.1045 
B( 17-C , 19-C ) :   1.3248 B( 17-C , 20-C ) :   0.1291 B( 17-C , 25-C ) :   0.9355 
B( 17-C , 38-N ) :  -0.1757 B( 19-C , 20-C ) :   1.3464 B( 19-C , 21-H ) :   0.8964 
B( 19-C , 38-N ) :   0.1045 B( 20-C , 22-C ) :   1.4283 B( 20-C , 23-C ) :   0.7657 
B( 20-C , 42-N ) :  -0.1918 B( 22-C , 24-H ) :   0.8876 B( 23-C , 41-N ) :   1.0416 
B( 23-C , 42-N ) :   1.2103 B( 23-C , 45-H ) :   0.9722 B( 25-C , 26-H ) :   0.8969 
B( 25-C , 36-C ) :   0.1005 B( 25-C , 38-N ) :   1.9306 B( 27-C , 28-C ) :   0.8692 
B( 27-C , 29-N ) :   0.9338 B( 27-C , 52-C ) :   0.9623 B( 27-C , 54-H ) :   0.9218 
B( 28-C , 30-N ) :   0.9783 B( 28-C , 55-C ) :   0.9498 B( 28-C , 56-H ) :   0.9270 
B( 30-N , 55-C ) :  -0.1148 B( 31-C , 32-C ) :   0.8933 B( 31-C , 33-N ) :   1.0204 
B( 31-C , 34-N ) :  -0.1053 B( 31-C , 74-C ) :   0.9625 B( 31-C , 79-H ) :   0.9366 
B( 32-C , 33-N ) :  -0.1009 B( 32-C , 34-N ) :   1.1499 B( 32-C , 51-C ) :   0.9312 
B( 32-C , 67-H ) :   0.9216 B( 33-N , 48-H ) :   0.8501 B( 34-N , 47-H ) :   0.8294 
B( 35-C , 36-C ) :   0.8689 B( 35-C , 37-N ) :   0.9337 B( 35-C , 94-C ) :   0.9623 
B( 35-C , 95-H ) :   0.9220 B( 36-C , 38-N ) :   0.9784 B( 36-C , 53-C ) :   0.9498 
B( 36-C , 93-H ) :   0.9270 B( 38-N , 53-C ) :  -0.1147 B( 39-C , 40-C ) :   0.8934 
B( 39-C , 41-N ) :   1.1499 B( 39-C , 42-N ) :  -0.1009 B( 39-C , 87-C ) :   0.9310 
B( 39-C , 92-H ) :   0.9218 B( 40-C , 41-N ) :  -0.1053 B( 40-C , 42-N ) :   1.0206 
B( 40-C , 50-C ) :   0.9625 B( 40-C , 80-H ) :   0.9364 B( 41-N , 44-H ) :   0.8293 
B( 42-N , 46-H ) :   0.8501 B( 50-C , 81-C ) :   0.9774 B( 50-C , 82-H ) :   0.9391 
B( 50-C , 83-H ) :   0.9459 B( 51-C , 68-C ) :   0.9900 B( 51-C , 69-H ) :   0.9369 
B( 51-C , 70-H ) :   0.9533 B( 52-C , 60-C ) :   0.9848 B( 52-C , 65-H ) :   0.9509 
B( 52-C , 66-H ) :   0.9295 B( 53-C , 99-C ) :   0.9784 B( 53-C ,104-H ) :   0.9573 
B( 53-C ,105-H ) :   0.9364 B( 55-C , 57-C ) :   0.9783 B( 55-C , 58-H ) :   0.9572 
B( 55-C , 59-H ) :   0.9365 B( 57-C , 60-C ) :   0.9962 B( 57-C , 61-H ) :   0.9399 
B( 57-C , 62-H ) :   0.9478 B( 60-C , 63-H ) :   0.9458 B( 60-C , 64-H ) :   0.9389 
B( 68-C , 71-C ) :   0.9760 B( 68-C , 72-H ) :   0.9409 B( 68-C , 73-H ) :   0.9419 
B( 71-C , 74-C ) :   0.9772 B( 71-C , 75-H ) :   0.9369 B( 71-C , 76-H ) :   0.9550 
B( 74-C , 77-H ) :   0.9459 B( 74-C , 78-H ) :   0.9391 B( 81-C , 84-C ) :   0.9760 
B( 81-C , 85-H ) :   0.9550 B( 81-C , 86-H ) :   0.9369 B( 84-C , 87-C ) :   0.9898 
B( 84-C , 88-H ) :   0.9420 B( 84-C , 89-H ) :   0.9409 B( 87-C , 90-H ) :   0.9369 
B( 87-C , 91-H ) :   0.9533 B( 94-C , 96-C ) :   0.9848 B( 94-C , 97-H ) :   0.9509 
B( 94-C , 98-H ) :   0.9295 B( 96-C , 99-C ) :   0.9962 B( 96-C ,100-H ) :   0.9389 
B( 96-C ,101-H ) :   0.9458 B( 99-C ,102-H ) :   0.9477 B( 99-C ,103-H ) :   0.9399 


-------
TIMINGS
-------

Total SCF time: 0 days 0 hours 0 min 42 sec 

Total time                  ....      42.012 sec
Sum of individual times     ....      38.916 sec  ( 92.6%)

Fock matrix formation       ....      17.907 sec  ( 42.6%)
  Split-RI-J                ....       6.349 sec  ( 35.5% of F)
  XC integration            ....      10.619 sec  ( 59.3% of F)
    Basis function eval.    ....       2.200 sec  ( 20.7% of XC)
    Density eval.           ....       4.106 sec  ( 38.7% of XC)
    XC-Functional eval.     ....       0.775 sec  (  7.3% of XC)
    XC-Potential eval.      ....       0.979 sec  (  9.2% of XC)
Diagonalization             ....       0.269 sec  (  0.6%)
Density matrix formation    ....       0.122 sec  (  0.3%)
Population analysis         ....       1.222 sec  (  2.9%)
Initial guess               ....       1.266 sec  (  3.0%)
Orbital Transformation      ....       0.000 sec  (  0.0%)
Orbital Orthonormalization  ....       1.188 sec  (  2.8%)
DIIS solution               ....       0.564 sec  (  1.3%)
SOSCF solution              ....       2.386 sec  (  5.7%)
Grid generation             ....      15.179 sec  ( 36.1%)


-------------------------------------------------------------------------------
                          DFT DISPERSION CORRECTION                            
                                                                               
                              DFTD3 V3.1  Rev 1                                
                          USING Becke-Johnson damping                          
-------------------------------------------------------------------------------
The B97-3c composite method is recognized
Using three-body term ABC
Active option DFTDOPT                   ...         4   

molecular C6(AA) [au] = 103880.111083 


            DFT-D V3
 parameters
 s6 scaling factor         :     1.0000 
 a1 scaling factor         :     0.3700 
 s8 scaling factor         :     1.5000 
 a2 scaling factor         :     4.1000 
 Damping factor alpha9(ATM):    16.0000 
 ad hoc parameters k1-k3   :    16.0000     1.3333    -4.0000 

 Edisp/kcal,au: -203.290680890228  -0.323964286768 
 E6   /kcal   : -106.905117846 
 E8   /kcal   : -97.372396559 
 E6(ABC)      :   0.986833514 
 % E8         :  47.898111282 
 % E6(ABC)    :  -0.485429785 

-------------------------   ----------------
Dispersion correction           -0.323964287
-------------------------   ----------------

------------------   -----------------
SRB correction            -0.317337762
------------------   -----------------

-------------------------   --------------------
FINAL SINGLE POINT ENERGY     -2071.197401193323
-------------------------   --------------------

                                *** OPTIMIZATION RUN DONE ***

                            ***************************************
                            *     ORCA property calculations      *
                            ***************************************

                                    ---------------------
                                    Active property flags
                                    ---------------------
   (+) Dipole Moment


------------------------------------------------------------------------------
                       ORCA ELECTRIC PROPERTIES CALCULATION
------------------------------------------------------------------------------

Dipole Moment Calculation                       ... on
Quadrupole Moment Calculation                   ... off
Polarizability Calculation                      ... off
GBWName                                         ... _o_2_alde1_4_ami3_1_opt_B97-3c.gbw
Electron density file                           ... _o_2_alde1_4_ami3_1_opt_B97-3c.scfp
The origin for moment calculation is the CENTER OF MASS  = (-2.993813, -1.071449 -2.965852)

-------------
DIPOLE MOMENT
-------------
                                X             Y             Z
Electronic contribution:    -19.98178       9.47694       9.03199
Nuclear contribution   :     21.39924     -10.14808      -9.67367
                        -----------------------------------------
Total Dipole Moment    :      1.41746      -0.67113      -0.64167
                        -----------------------------------------
Magnitude (a.u.)       :      1.69451
Magnitude (Debye)      :      4.30709



--------------------
Rotational spectrum 
--------------------
 
Rotational constants in cm-1:     0.001692     0.001552     0.001232 
Rotational constants in MHz :    50.736023    46.527348    36.921564 

 Dipole components along the rotational axes: 
x,y,z [a.u.] :     1.694505     0.001909     0.000816 
x,y,z [Debye]:     4.307090     0.004853     0.002075 

 

Timings for individual modules:

Sum of individual times         ...     4263.011 sec (=  71.050 min)
GTO integral calculation        ...      177.872 sec (=   2.965 min)   4.2 %
SCF iterations                  ...     2806.824 sec (=  46.780 min)  65.8 %
SCF Gradient evaluation         ...     1096.957 sec (=  18.283 min)  25.7 %
Geometry relaxation             ...      181.357 sec (=   3.023 min)   4.3 %
                             ****ORCA TERMINATED NORMALLY****
TOTAL RUN TIME: 0 days 1 hours 14 minutes 23 seconds 266 msec
