Job execution start: Thu Mar 10 23:58:26 GMT 2022
Shared library path: /work/e05/e05/atarzia/orca_4_2_1_linux_x86-64_openmpi314:/work/e05/e05/atarzia/openmpi-3.1.4/lib:/opt/cray/pe/papi/6.0.0.6/lib64:/opt/cray/libfabric/1.11.0.4.71/lib64
Slurm Job ID is: 1234949
Slurm Job name is: o_2_alde1_4_ami4_1_opt_MP2
nid001375

                                 *****************
                                 * O   R   C   A *
                                 *****************

           --- An Ab Initio, DFT and Semiempirical electronic structure package ---

                  #######################################################
                  #                        -***-                        #
                  #          Department of theory and spectroscopy      #
                  #               Directorship: Frank Neese             #
                  #        Max Planck Institute fuer Kohlenforschung    #
                  #                Kaiser Wilhelm Platz 1               #
                  #                 D-45470 Muelheim/Ruhr               #
                  #                      Germany                        #
                  #                                                     #
                  #                  All rights reserved                #
                  #                        -***-                        #
                  #######################################################


                         Program Version 4.2.1 -  RELEASE  -


 With contributions from (in alphabetic order):
   Daniel Aravena         : Magnetic Suceptibility
   Michael Atanasov       : Ab Initio Ligand Field Theory (pilot matlab implementation)
   Alexander A. Auer      : GIAO ZORA, VPT2
   Ute Becker             : Parallelization
   Giovanni Bistoni       : ED, misc. LED, open-shell LED, HFLD
   Martin Brehm           : Molecular dynamics
   Dmytro Bykov           : SCF Hessian
   Vijay G. Chilkuri      : MRCI spin determinant printing, contributions to CSF-ICE
   Dipayan Datta          : RHF DLPNO-CCSD density
   Achintya Kumar Dutta   : EOM-CC, STEOM-CC
   Dmitry Ganyushin       : Spin-Orbit,Spin-Spin,Magnetic field MRCI
   Miquel Garcia          : C-PCM Hessian, Gaussian charge scheme
   Yang Guo               : DLPNO-NEVPT2, CIM, IAO-localization
   Andreas Hansen         : Spin unrestricted coupled pair/coupled cluster methods
   Benjamin Helmich-Paris : CASSCF linear response (MC-RPA)
   Lee Huntington         : MR-EOM, pCC
   Robert Izsak           : Overlap fitted RIJCOSX, COSX-SCS-MP3, EOM
   Christian Kollmar      : KDIIS, OOCD, Brueckner-CCSD(T), CCSD density
   Simone Kossmann        : Meta GGA functionals, TD-DFT gradient, OOMP2, MP2 Hessian
   Martin Krupicka        : AUTO-CI
   Lucas Lang             : DCDCAS
   Dagmar Lenk            : GEPOL surface, SMD
   Dimitrios Liakos       : Extrapolation schemes; Compound Job, initial MDCI parallelization
   Dimitrios Manganas     : Further ROCIS development; embedding schemes
   Dimitrios Pantazis     : SARC Basis sets
   Taras Petrenko         : DFT Hessian,TD-DFT gradient, ASA, ECA, R-Raman, ABS, FL, XAS/XES, NRVS
   Peter Pinski           : DLPNO-MP2, DLPNO-MP2 Gradient
   Christoph Reimann      : Effective Core Potentials
   Marius Retegan         : Local ZFS, SOC
   Christoph Riplinger    : Optimizer, TS searches, QM/MM, DLPNO-CCSD(T), (RO)-DLPNO pert. Triples
   Tobias Risthaus        : Range-separated hybrids, TD-DFT gradient, RPA, STAB
   Michael Roemelt        : Original ROCIS implementation
   Masaaki Saitow         : Open-shell DLPNO-CCSD energy and density
   Barbara Sandhoefer     : DKH picture change effects
   Avijit Sen             : IP-ROCIS
   Kantharuban Sivalingam : CASSCF convergence, NEVPT2, FIC-MRCI
   Bernardo de Souza      : ESD, SOC TD-DFT
   Georgi Stoychev        : AutoAux, RI-MP2 NMR
   Willem Van den Heuvel  : Paramagnetic NMR
   Boris Wezisla          : Elementary symmetry handling
   Frank Wennmohs         : Technical directorship


 We gratefully acknowledge several colleagues who have allowed us to
 interface, adapt or use parts of their codes:
   Stefan Grimme, W. Hujo, H. Kruse,             : VdW corrections, initial TS optimization,
                  C. Bannwarth                     DFT functionals, gCP, sTDA/sTD-DF
   Ed Valeev, F. Pavosevic, A. Kumar             : LibInt (2-el integral package), F12 methods
   Garnet Chan, S. Sharma, J. Yang, R. Olivares  : DMRG
   Ulf Ekstrom                                   : XCFun DFT Library
   Mihaly Kallay                                 : mrcc  (arbitrary order and MRCC methods)
   Andreas Klamt, Michael Diedenhofen            : otool_cosmo (COSMO solvation model)
   Jiri Pittner, Ondrej Demel                    : Mk-CCSD
   Frank Weinhold                                : gennbo (NPA and NBO analysis)
   Christopher J. Cramer and Donald G. Truhlar   : smd solvation model
   Lars Goerigk                                  : TD-DFT with DH, B97 family of functionals
   V. Asgeirsson, H. Jonsson                     : NEB implementation
   FAccTs GmbH                                   : IRC, NEB, NEB-TS, Multilevel, MM, QM/MM, CI optimization
   S Lehtola, MJT Oliveira, MAL Marques          : LibXC Library


 Your calculation uses the libint2 library for the computation of 2-el integrals
 For citations please refer to: http://libint.valeyev.net

 Your ORCA version has been built with support for libXC version: 4.2.3
 For citations please refer to: https://tddft.org/programs/libxc/

 This ORCA versions uses:
   CBLAS   interface :  Fast vector & matrix operations
   LAPACKE interface :  Fast linear algebra routines
   SCALAPACK package :  Parallel linear algebra routines




***************************************
The coordinates will be read from file: _o_2_alde1_4_ami4_1_opt_B97-3c.xyz
***************************************


----- Orbital basis set information -----
Your calculation utilizes the basis: cc-pVTZ 
       H, B-Ne : Obtained from the ccRepo (grant-hill.group.shef.ac.uk/ccrepo) Feb. 2017
                 T. H. Dunning, Jr., J. Chem. Phys. 90, 1007 (1989)
            He : Obtained from the ccRepo (grant-hill.group.shef.ac.uk/ccrepo) Feb. 2017
                 D. E. Woon, T. H. Dunning, Jr., J. Chem. Phys. 100, 2975 (1994)
  Li-Be, Na-Mg : Obtained from the ccRepo (grant-hill.group.shef.ac.uk/ccrepo) Feb. 2017
                 B. P. Prascher, D. E. Woon, K. A. Peterson, T. H. Dunning, Jr., A. K. Wilson, Theor. Chem. Acc. 128, 69 (2011)
         Al-Ar : Obtained from the ccRepo (grant-hill.group.shef.ac.uk/ccrepo) Feb. 2017
                 D. E. Woon, T. H. Dunning, Jr., J. Chem. Phys. 98, 1358 (1993)
            Ca : Obtained from the Peterson Research Group Website (tyr0.chem.wsu.edu/~kipeters) Feb. 2017
                 J. Koput, K. A. Peterson, J. Phys. Chem. 106, 9595 (2002)
         Sc-Zn : Obtained from the ccRepo (grant-hill.group.shef.ac.uk/ccrepo) Feb. 2017
                 N. B. Balabanov, K. A. Peterson, J. Chem. Phys. 123, 064107 (2005)
                 N. B. Balabanov, K. A. Peterson, J. Chem. Phys. 125, 074110 (2006)
         Ga-Kr : Obtained from the ccRepo (grant-hill.group.shef.ac.uk/ccrepo) Feb. 2017
                 A. K. Wilson, D. E. Woon, K. A. Peterson, T. H. Dunning, Jr., J. Chem. Phys. 110, 7667 (1999)
             Y : Obtained from the ccRepo (grant-hill.group.shef.ac.uk/ccrepo) Feb. 2017
                 K. A. Peterson, D. Figgen, M. Dolg, H. Stoll, J. Chem. Phys. 126, 124101 (2007)
        Ag, Au : Obtained from the Peterson Research Group Website (tyr0.chem.wsu.edu/~kipeters) Feb. 2017
                 K. A. Peterson, C. Puzzarini, Theor. Chem. Acc. 114, 283 (2005)

----- AuxC basis set information -----
Your calculation utilizes the auxiliary basis: cc-pVTZ/C 
  Obtained from the EMSL Basis Set Exchange (bse.pnl.gov) Feb. 2017
  H-He, B-F, Al-Ar, Ga-Kr : F. Weigend, A. Kohn, C. Hattig, J. Chem. Phys. 116, 3175 (2002)
             Li-Be, Na-Mg : C. Haettig, Phys. Chem. Chem. Phys. 7, 59 (2005)
                       Ne : C. Haettig, Phys. Chem. Chem. Phys. 7, 59 (2005)
                            F. Weigend, A. Kohn, C. Hattig, J. Chem. Phys. 116, 3175 (2002)
                    Sc-Zn : J. G. Hill, J. A. Platts, J. Chem. Phys. 128, 044104 (2008)

================================================================================
                                        WARNINGS
                       Please study these warnings very carefully!
================================================================================


WARNING: No MP2 level density has been requested!
         To caclulate MP2 level properties use
         %mp2 Density relaxed end
         or
         %mp2 Density unrelaxed end

WARNING: Post HF methods need fully converged wavefunctions
  ===> : Setting SCFConvForced true
         You can overwrite this default with %scf ConvForced false 


INFO   : the flag for use of LIBINT has been found!

================================================================================
                                       INPUT FILE
================================================================================
NAME = o_2_alde1_4_ami4_1_opt_MP2.in
|  1> ! RI-MP2 cc-pVTZ cc-pVTZ/C TIGHTSCF printbasis Grid6 NOFINALGRID SlowConv
|  2> 
|  3> %base "_o_2_alde1_4_ami4_1_opt_MP2"
|  4> %maxcore 3000
|  5> %pal
|  6>    nprocs 32
|  7> end
|  8> 
|  9> * xyzfile 0 1 _o_2_alde1_4_ami4_1_opt_B97-3c.xyz
| 10> 
| 11>                          ****END OF INPUT****
================================================================================

                       ****************************
                       * Single Point Calculation *
                       ****************************

---------------------------------
CARTESIAN COORDINATES (ANGSTROEM)
---------------------------------
  C     -2.332198   -2.131194   -1.391042
  C     -1.702946   -1.689340   -0.144652
  C     -2.381570   -3.489856   -1.726608
  C     -2.962193   -3.905432   -2.911964
  H     -1.973035   -4.218919   -1.043686
  C     -3.471158   -2.950639   -3.789196
  C     -3.416326   -1.593526   -3.482813
  H     -3.917572   -3.282140   -4.717494
  C     -2.858588   -1.190568   -2.266255
  C     -3.874994   -0.620892   -4.473038
  H     -2.816916   -0.134478   -2.035583
  C     -2.993228   -5.375839   -3.282529
  H     -4.278294   -1.048773   -5.404252
  H     -1.885462   -0.644049    0.136959
  C      0.795342    0.892272   -1.428898
  C      1.049102   -0.301979   -0.624830
  C      0.224462    0.740751   -2.687678
  C     -0.225447    1.848458   -3.401099
  H      0.045672   -0.254094   -3.078166
  C     -0.018825    3.125921   -2.882379
  C      0.603929    3.295132   -1.649980
  H     -0.362966    3.981523   -3.444602
  C      0.994470    2.175431   -0.921893
  C      0.843247    4.670569   -1.099453
  H      1.445236    2.289160    0.052800
  C     -1.024937    1.604370   -4.595188
  H     -0.975106    0.574121   -4.975075
  C      1.128225   -1.510064    1.361850
  C     -0.313535   -1.918976    1.717885
  N      1.095277   -0.260720    0.645318
  N     -0.972360   -2.459901    0.556234
  C     -4.478397   -6.292319   -1.765145
  C     -5.227973   -5.931756   -3.083303
  N     -3.046465   -6.215027   -2.081589
  N     -4.184488   -5.681781   -4.087232
  C     -4.054236    1.523451   -5.393740
  C     -2.741044    1.941750   -6.084868
  N     -3.762871    0.631276   -4.300704
  N     -1.815631    2.457935   -5.105833
  C      0.636855    6.127384    0.679834
  C     -0.000850    6.756462   -0.597725
  N      0.852743    4.711630    0.368722
  N     -0.130427    5.664382   -1.566179
  H      1.118426   -1.247198   -1.179231
  H      0.053190    4.175130    0.689829
  H      1.828596    5.022750   -1.427130
  H     -1.052600    5.249235   -1.478426
  H     -4.000657   -6.538930   -4.593479
  H     -2.707301   -7.135858   -2.327854
  H     -2.095477   -5.613583   -3.855863
  H      0.653238    7.529132   -1.001404
  H     -0.970604    7.212662   -0.411527
  H      0.009984    6.227175    1.563354
  H      1.591078    6.606212    0.898872
  H     -5.821651   -5.029725   -2.944574
  H     -5.897295   -6.717898   -3.425127
  H     -4.719127   -5.572720   -0.984281
  H     -4.726919   -7.282121   -1.388971
  H     -0.825034   -1.045482    2.138601
  H     -0.270679   -2.694713    2.482060
  H      1.591681   -2.326364    0.795970
  H      1.683286   -1.370644    2.288693
  H     -2.967764    2.709620   -6.824533
  H     -2.345767    1.062366   -6.612261
  H     -4.705971    1.076899   -6.157171
  H     -4.544409    2.411647   -4.996471

----------------------------
CARTESIAN COORDINATES (A.U.)
----------------------------
  NO LB      ZA    FRAG     MASS         X           Y           Z
   0 C     6.0000    0    12.011   -4.407215   -4.027372   -2.628688
   1 C     6.0000    0    12.011   -3.218101   -3.192390   -0.273353
   2 C     6.0000    0    12.011   -4.500515   -6.594872   -3.262817
   3 C     6.0000    0    12.011   -5.597734   -7.380197   -5.502814
   4 H     1.0000    0     1.008   -3.728495   -7.972601   -1.972282
   5 C     6.0000    0    12.011   -6.559538   -5.575900   -7.160544
   6 C     6.0000    0    12.011   -6.455920   -3.011328   -6.581562
   7 H     1.0000    0     1.008   -7.403139   -6.202346   -8.914772
   8 C     6.0000    0    12.011   -5.401948   -2.249847   -4.282601
   9 C     6.0000    0    12.011   -7.322677   -1.173316   -8.452816
  10 H     1.0000    0     1.008   -5.323200   -0.254127   -3.846695
  11 C     6.0000    0    12.011   -5.656381  -10.158864   -6.203081
  12 H     1.0000    0     1.008   -8.084804   -1.981894  -10.212556
  13 H     1.0000    0     1.008   -3.563007   -1.217075    0.258816
  14 C     6.0000    0    12.011    1.502978    1.686150   -2.700226
  15 C     6.0000    0    12.011    1.982515   -0.570657   -1.180758
  16 C     6.0000    0    12.011    0.424171    1.399817   -5.078976
  17 C     6.0000    0    12.011   -0.426034    3.493079   -6.427146
  18 H     1.0000    0     1.008    0.086307   -0.480168   -5.816892
  19 C     6.0000    0    12.011   -0.035575    5.907134   -5.446906
  20 C     6.0000    0    12.011    1.141260    6.226897   -3.118010
  21 H     1.0000    0     1.008   -0.685907    7.523988   -6.509355
  22 C     6.0000    0    12.011    1.879276    4.110969   -1.742126
  23 C     6.0000    0    12.011    1.593505    8.826097   -2.077665
  24 H     1.0000    0     1.008    2.731101    4.325886    0.099777
  25 C     6.0000    0    12.011   -1.936850    3.031820   -8.683647
  26 H     1.0000    0     1.008   -1.842684    1.084932   -9.401529
  27 C     6.0000    0    12.011    2.132036   -2.853607    2.573524
  28 C     6.0000    0    12.011   -0.592495   -3.626339    3.246332
  29 N     7.0000    0    14.007    2.069773   -0.492689    1.219474
  30 N     7.0000    0    14.007   -1.837495   -4.648538    1.051130
  31 C     6.0000    0    12.011   -8.462944  -11.890759   -3.335641
  32 C     6.0000    0    12.011   -9.879436  -11.209395   -5.826599
  33 N     7.0000    0    14.007   -5.756985  -11.744699   -3.933633
  34 N     7.0000    0    14.007   -7.907537  -10.737009   -7.723749
  35 C     6.0000    0    12.011   -7.661395    2.878904  -10.192691
  36 C     6.0000    0    12.011   -5.179822    3.669375  -11.498734
  37 N     7.0000    0    14.007   -7.110795    1.192939   -8.127153
  38 N     7.0000    0    14.007   -3.431045    4.644823   -9.648627
  39 C     6.0000    0    12.011    1.203482   11.579077    1.284701
  40 C     6.0000    0    12.011   -0.001607   12.767862   -1.129537
  41 N     7.0000    0    14.007    1.611451    8.903690    0.696783
  42 N     7.0000    0    14.007   -0.246470   10.704130   -2.959649
  43 H     1.0000    0     1.008    2.113518   -2.356862   -2.228423
  44 H     1.0000    0     1.008    0.100514    7.889852    1.303588
  45 H     1.0000    0     1.008    3.455545    9.491622   -2.696886
  46 H     1.0000    0     1.008   -1.989126    9.919616   -2.793821
  47 H     1.0000    0     1.008   -7.560145  -12.356788   -8.680417
  48 H     1.0000    0     1.008   -5.116058  -13.484817   -4.399007
  49 H     1.0000    0     1.008   -3.959878  -10.608134   -7.286525
  50 H     1.0000    0     1.008    1.234441   14.227997   -1.892378
  51 H     1.0000    0     1.008   -1.834177   13.629956   -0.777674
  52 H     1.0000    0     1.008    0.018866   11.767656    2.954311
  53 H     1.0000    0     1.008    3.006701   12.483932    1.698622
  54 H     1.0000    0     1.008  -11.001326   -9.504804   -5.564439
  55 H     1.0000    0     1.008  -11.144273  -12.694987   -6.472552
  56 H     1.0000    0     1.008   -8.917858  -10.530915   -1.860021
  57 H     1.0000    0     1.008   -8.932582  -13.761215   -2.624775
  58 H     1.0000    0     1.008   -1.559089   -1.975675    4.041370
  59 H     1.0000    0     1.008   -0.511509   -5.092270    4.690414
  60 H     1.0000    0     1.008    3.007841   -4.396190    1.504165
  61 H     1.0000    0     1.008    3.180949   -2.590143    4.325004
  62 H     1.0000    0     1.008   -5.608261    5.120439  -12.896499
  63 H     1.0000    0     1.008   -4.432858    2.007581  -12.495362
  64 H     1.0000    0     1.008   -8.892996    2.035045  -11.635368
  65 H     1.0000    0     1.008   -8.587688    4.557352   -9.441962

--------------------------------
INTERNAL COORDINATES (ANGSTROEM)
--------------------------------
 C      0   0   0     0.000000000000     0.00000000     0.00000000
 C      1   0   0     1.464472687963     0.00000000     0.00000000
 C      1   2   0     1.400359041035   120.78545564     0.00000000
 C      3   1   2     1.383797207079   120.75927689   180.77185124
 H      3   1   2     1.079266629073   119.36874861     1.61815732
 C      4   3   1     1.392914698625   119.13888722     1.56885641
 C      6   4   3     1.392348094893   121.00717749   359.28444205
 H      6   4   3     1.082088339756   118.75231659   179.57518513
 C      1   2   3     1.388474457139   119.66797429   181.52444689
 C      7   6   4     1.461827374990   119.15033802   175.66324357
 H      9   1   2     1.081790897777   120.82019421   359.51317389
 C      4   3   1     1.516700267457   120.59867274   178.98173632
 H     10   7   6     1.101314344021   115.41437562     2.26048528
 H      2   1   3     1.097839606765   115.73149755   191.93191024
 C     14   2   1     3.463942894465   100.23400920   269.70996814
 C     15  14   2     1.461900918847    61.53574593   312.18058946
 C     15  14   2     1.390464047640    92.47351534    73.73382811
 C     17  15  14     1.392264588922   120.65480761   111.31522065
 H     17  15  14     1.083588722519   119.60560819   296.92277645
 C     18  17  15     1.394157191754   119.37171258     4.25859770
 C     20  18  17     1.391136996437   120.49157045   358.57447696
 H     20  18  17     1.080085373626   119.00982365   179.49833439
 C     21  20  18     1.391532479154   119.42515695   358.59164799
 C     21  20  18     1.500726536485   120.52065380   179.17485686
 H     23  21  20     1.079884661356   120.30926702   182.30926670
 C     18  17  15     1.457604882717   117.63212309   190.81465270
 H     26  18  17     1.099185796337   114.53293293   344.28723988
 C     16  15  14     2.326505752901   154.12917544   294.84221632
 C     28  16  15     1.540337979357   107.66168027    77.29164447
 N     16  15  14     1.271656651917   121.94878079   282.13527087
 N      2   1   3     1.272304701083   122.19782137    13.09152195
 C     12   4   3     2.312599363193   103.71153209    69.39959380
 C     32  12   4     1.558656422843    70.26153622    94.53172437
 N     12   4   3     1.466058135829   110.82667599    30.17025705
 N     33  32  12     1.469428104270   105.99991844    13.80180175
 C     10   7   6     2.340517959891   154.16903696   196.43314411
 C     36  10   7     1.541786391981   111.08032059    74.76768856
 N     10   7   6     1.268934797272   122.46902131   185.29453977
 N     26  18  17     1.270640565876   123.92115666   158.21545705
 C     24  21  20     2.308845987147   147.85885829   129.16185068
 C     40  24  21     1.560309551612    70.11934165   234.30354007
 N     40  24  21     1.465523027623    38.15811120    33.53690156
 N     41  40  24     1.465377639573   106.06925605    13.81746525
 H     16  15  14     1.098000305533   115.88032805    97.50739955
 H     42  40  24     1.015001267059   109.11216397   245.92340319
 H     24  21  20     1.096501892667   109.15033414   269.29530377
 H     43  41  40     1.015111318558   109.14635825    92.83096032
 H     35  33  32     1.012316992364   109.06124782    93.13612311
 H     34  12   4     1.011735377161   108.02398743   201.84529517
 H     12   4   3     1.091416768808   108.82605205   269.57766662
 H     41  40  24     1.089865272369   110.10983799   255.22763485
 H     41  40  24     1.087755175806   113.16005257   134.86964107
 H     40  24  21     1.087903457657   137.32809514   337.21689180
 H     40  24  21     1.089860056436   110.72182808   129.48624772
 H     33  32  12     1.088742086907   110.25094626   255.41582777
 H     33  32  12     1.087591102980   113.23786351   134.73314545
 H     32  12   4     1.088817014214   110.52618274   349.48233299
 H     32  12   4     1.087648417967   137.24976602   197.66075167
 H     29  28  16     1.096186468919   108.29609998   282.58705458
 H     29  28  16     1.089756424028   108.31536282   165.16569485
 H     28  16  15     1.096064556379    87.72119388   185.99657174
 H     28  16  15     1.089297193590   132.64460358   299.42309957
 H     37  36  10     1.090014448405   108.55118356   156.92959257
 H     37  36  10     1.098954888284   107.72075928    39.94914220
 H     36  10   7     1.098633107608    86.92698330   182.56384242
 H     36  10   7     1.089488368811   129.63734938   294.20931342

---------------------------
INTERNAL COORDINATES (A.U.)
---------------------------
 C      0   0   0     0.000000000000     0.00000000     0.00000000
 C      1   0   0     2.767452310857     0.00000000     0.00000000
 C      1   2   0     2.646295076716   120.78545564     0.00000000
 C      3   1   2     2.614997746264   120.75927689   180.77185124
 H      3   1   2     2.039518354429   119.36874861     1.61815732
 C      4   3   1     2.632227308314   119.13888722     1.56885641
 C      6   4   3     2.631156582435   121.00717749   359.28444205
 H      6   4   3     2.044850614849   118.75231659   179.57518513
 C      1   2   3     2.623836467937   119.66797429   181.52444689
 C      7   6   4     2.762453393800   119.15033802   175.66324357
 H      9   1   2     2.044288530967   120.82019421   359.51317389
 C      4   3   1     2.866148132738   120.59867274   178.98173632
 H     10   7   6     2.081182497559   115.41437562     2.26048528
 H      2   1   3     2.074616195758   115.73149755   191.93191024
 C     14   2   1     6.545903414080   100.23400920   269.70996814
 C     15  14   2     2.762592371550    61.53574593   312.18058946
 C     15  14   2     2.627596249103    92.47351534    73.73382811
 C     17  15  14     2.630998779019   120.65480761   111.31522065
 H     17  15  14     2.047685927366   119.60560819   296.92277645
 C     18  17  15     2.634575280052   119.37171258     4.25859770
 C     20  18  17     2.628867938032   120.49157045   358.57447696
 H     20  18  17     2.041065557408   119.00982365   179.49833439
 C     21  20  18     2.629615292058   119.42515695   358.59164799
 C     21  20  18     2.835962155865   120.52065380   179.17485686
 H     23  21  20     2.040686266184   120.30926702   182.30926670
 C     18  17  15     2.754474039802   117.63212309   190.81465270
 H     26  18  17     2.077160125374   114.53293293   344.28723988
 C     16  15  14     4.396458721976   154.12917544   294.84221632
 C     28  16  15     2.910816934663   107.66168027    77.29164447
 N     16  15  14     2.403082808502   121.94878079   282.13527087
 N      2   1   3     2.404307443947   122.19782137    13.09152195
 C     12   4   3     4.370179453916   103.71153209    69.39959380
 C     32  12   4     2.945433776050    70.26153622    94.53172437
 N     12   4   3     2.770448373123   110.82667599    30.17025705
 N     33  32  12     2.776816690557   105.99991844    13.80180175
 C     10   7   6     4.422937955718   154.16903696   196.43314411
 C     36  10   7     2.913554037851   111.08032059    74.76768856
 N     10   7   6     2.397939248647   122.46902131   185.29453977
 N     26  18  17     2.401162684156   123.92115666   158.21545705
 C     24  21  20     4.363086601110   147.85885829   129.16185068
 C     40  24  21     2.948557736687    70.11934165   234.30354007
 N     40  24  21     2.769437165163    38.15811120    33.53690156
 N     41  40  24     2.769162421564   106.06925605    13.81746525
 H     16  15  14     2.074919872420   115.88032805    97.50739955
 H     42  40  24     1.918074420324   109.11216397   245.92340319
 H     24  21  20     2.072088282466   109.15033414   269.29530377
 H     43  41  40     1.918282387518   109.14635825    92.83096032
 H     35  33  32     1.913001876283   109.06124782    93.13612311
 H     34  12   4     1.911902782833   108.02398743   201.84529517
 H     12   4   3     2.062478791015   108.82605205   269.57766662
 H     41  40  24     2.059546887649   110.10983799   255.22763485
 H     41  40  24     2.055559383028   113.16005257   134.86964107
 H     40  24  21     2.055839595118   137.32809514   337.21689180
 H     40  24  21     2.059537030965   110.72182808   129.48624772
 H     33  32  12     2.057424374728   110.25094626   255.41582777
 H     33  32  12     2.055249330321   113.23786351   134.73314545
 H     32  12   4     2.057565966819   110.52618274   349.48233299
 H     32  12   4     2.055357639949   137.24976602   197.66075167
 H     29  28  16     2.071492217968   108.29609998   282.58705458
 H     29  28  16     2.059341194094   108.31536282   165.16569485
 H     28  16  15     2.071261836655    87.72119388   185.99657174
 H     28  16  15     2.058473374334   132.64460358   299.42309957
 H     37  36  10     2.059828789502   108.55118356   156.92959257
 H     37  36  10     2.076723772391   107.72075928    39.94914220
 H     36  10   7     2.076115695038    86.92698330   182.56384242
 H     36  10   7     2.058834643146   129.63734938   294.20931342

---------------------
BASIS SET INFORMATION
---------------------
There are 3 groups of distinct atoms

 Group   1 Type C   : 18s5p2d1f contracted to 4s3p2d1f pattern {8811/311/11/1}
 Group   2 Type H   : 5s2p1d contracted to 3s2p1d pattern {311/11/1}
 Group   3 Type N   : 18s5p2d1f contracted to 4s3p2d1f pattern {8811/311/11/1}

Atom   0C    basis set group =>   1
Atom   1C    basis set group =>   1
Atom   2C    basis set group =>   1
Atom   3C    basis set group =>   1
Atom   4H    basis set group =>   2
Atom   5C    basis set group =>   1
Atom   6C    basis set group =>   1
Atom   7H    basis set group =>   2
Atom   8C    basis set group =>   1
Atom   9C    basis set group =>   1
Atom  10H    basis set group =>   2
Atom  11C    basis set group =>   1
Atom  12H    basis set group =>   2
Atom  13H    basis set group =>   2
Atom  14C    basis set group =>   1
Atom  15C    basis set group =>   1
Atom  16C    basis set group =>   1
Atom  17C    basis set group =>   1
Atom  18H    basis set group =>   2
Atom  19C    basis set group =>   1
Atom  20C    basis set group =>   1
Atom  21H    basis set group =>   2
Atom  22C    basis set group =>   1
Atom  23C    basis set group =>   1
Atom  24H    basis set group =>   2
Atom  25C    basis set group =>   1
Atom  26H    basis set group =>   2
Atom  27C    basis set group =>   1
Atom  28C    basis set group =>   1
Atom  29N    basis set group =>   3
Atom  30N    basis set group =>   3
Atom  31C    basis set group =>   1
Atom  32C    basis set group =>   1
Atom  33N    basis set group =>   3
Atom  34N    basis set group =>   3
Atom  35C    basis set group =>   1
Atom  36C    basis set group =>   1
Atom  37N    basis set group =>   3
Atom  38N    basis set group =>   3
Atom  39C    basis set group =>   1
Atom  40C    basis set group =>   1
Atom  41N    basis set group =>   3
Atom  42N    basis set group =>   3
Atom  43H    basis set group =>   2
Atom  44H    basis set group =>   2
Atom  45H    basis set group =>   2
Atom  46H    basis set group =>   2
Atom  47H    basis set group =>   2
Atom  48H    basis set group =>   2
Atom  49H    basis set group =>   2
Atom  50H    basis set group =>   2
Atom  51H    basis set group =>   2
Atom  52H    basis set group =>   2
Atom  53H    basis set group =>   2
Atom  54H    basis set group =>   2
Atom  55H    basis set group =>   2
Atom  56H    basis set group =>   2
Atom  57H    basis set group =>   2
Atom  58H    basis set group =>   2
Atom  59H    basis set group =>   2
Atom  60H    basis set group =>   2
Atom  61H    basis set group =>   2
Atom  62H    basis set group =>   2
Atom  63H    basis set group =>   2
Atom  64H    basis set group =>   2
Atom  65H    basis set group =>   2

-------------------------
BASIS SET IN INPUT FORMAT
-------------------------

 # Basis set for element : H 
 NewGTO H 
 S 3 
   1      33.8700000000      0.0254948632
   2       5.0950000000      0.1903627659
   3       1.1590000000      0.8521620222
 S 1 
   1       0.3258000000      1.0000000000
 S 1 
   1       0.1027000000      1.0000000000
 P 1 
   1       1.4070000000      1.0000000000
 P 1 
   1       0.3880000000      1.0000000000
 D 1 
   1       1.0570000000      1.0000000000
  end;

 # Basis set for element : C 
 NewGTO C 
 S 8 
   1    8236.0000000000      0.0005424302
   2    1235.0000000000      0.0041964279
   3     280.8000000000      0.0215409141
   4      79.2700000000      0.0836149496
   5      25.5900000000      0.2398716189
   6       8.9970000000      0.4437518201
   7       3.3190000000      0.3535796965
   8       0.3643000000     -0.0091763661
 S 8 
   1    8236.0000000000     -0.0001963922
   2    1235.0000000000     -0.0015259503
   3     280.8000000000     -0.0078904490
   4      79.2700000000     -0.0315148705
   5      25.5900000000     -0.0969100083
   6       8.9970000000     -0.2205415263
   7       3.3190000000     -0.2960691129
   8       0.3643000000      1.0405034329
 S 1 
   1       0.9059000000      1.0000000000
 S 1 
   1       0.1285000000      1.0000000000
 P 3 
   1      18.7100000000      0.0394263872
   2       4.1330000000      0.2440889849
   3       1.2000000000      0.8154920089
 P 1 
   1       0.3827000000      1.0000000000
 P 1 
   1       0.1209000000      1.0000000000
 D 1 
   1       1.0970000000      1.0000000000
 D 1 
   1       0.3180000000      1.0000000000
 F 1 
   1       0.7610000000      1.0000000000
  end;

 # Basis set for element : N 
 NewGTO N 
 S 8 
   1   11420.0000000000      0.0005349809
   2    1712.0000000000      0.0041376631
   3     389.3000000000      0.0212509149
   4     110.0000000000      0.0825762988
   5      35.5700000000      0.2384132727
   6      12.5400000000      0.4434316661
   7       4.6440000000      0.3554319088
   8       0.5118000000     -0.0087029018
 S 8 
   1   11420.0000000000     -0.0001987770
   2    1712.0000000000     -0.0015470035
   3     389.3000000000     -0.0079925633
   4     110.0000000000     -0.0320255651
   5      35.5700000000     -0.0991102048
   6      12.5400000000     -0.2282927747
   7       4.6440000000     -0.2981827627
   8       0.5118000000      1.0370005182
 S 1 
   1       1.2930000000      1.0000000000
 S 1 
   1       0.1787000000      1.0000000000
 P 3 
   1      26.6300000000      0.0398072123
   2       5.9480000000      0.2490026605
   3       1.7420000000      0.8104797267
 P 1 
   1       0.5550000000      1.0000000000
 P 1 
   1       0.1725000000      1.0000000000
 D 1 
   1       1.6540000000      1.0000000000
 D 1 
   1       0.4690000000      1.0000000000
 F 1 
   1       1.0930000000      1.0000000000
  end;

---------------------------------
AUXILIARY/C BASIS SET INFORMATION
---------------------------------
There are 3 groups of distinct atoms

 Group   1 Type C   : 8s6p5d3f1g contracted to 8s6p5d3f1g pattern {11111111/111111/11111/111/1}
 Group   2 Type H   : 4s3p2d1f contracted to 4s3p2d1f pattern {1111/111/11/1}
 Group   3 Type N   : 8s6p5d3f1g contracted to 8s6p5d3f1g pattern {11111111/111111/11111/111/1}

Atom   0C    basis set group =>   1
Atom   1C    basis set group =>   1
Atom   2C    basis set group =>   1
Atom   3C    basis set group =>   1
Atom   4H    basis set group =>   2
Atom   5C    basis set group =>   1
Atom   6C    basis set group =>   1
Atom   7H    basis set group =>   2
Atom   8C    basis set group =>   1
Atom   9C    basis set group =>   1
Atom  10H    basis set group =>   2
Atom  11C    basis set group =>   1
Atom  12H    basis set group =>   2
Atom  13H    basis set group =>   2
Atom  14C    basis set group =>   1
Atom  15C    basis set group =>   1
Atom  16C    basis set group =>   1
Atom  17C    basis set group =>   1
Atom  18H    basis set group =>   2
Atom  19C    basis set group =>   1
Atom  20C    basis set group =>   1
Atom  21H    basis set group =>   2
Atom  22C    basis set group =>   1
Atom  23C    basis set group =>   1
Atom  24H    basis set group =>   2
Atom  25C    basis set group =>   1
Atom  26H    basis set group =>   2
Atom  27C    basis set group =>   1
Atom  28C    basis set group =>   1
Atom  29N    basis set group =>   3
Atom  30N    basis set group =>   3
Atom  31C    basis set group =>   1
Atom  32C    basis set group =>   1
Atom  33N    basis set group =>   3
Atom  34N    basis set group =>   3
Atom  35C    basis set group =>   1
Atom  36C    basis set group =>   1
Atom  37N    basis set group =>   3
Atom  38N    basis set group =>   3
Atom  39C    basis set group =>   1
Atom  40C    basis set group =>   1
Atom  41N    basis set group =>   3
Atom  42N    basis set group =>   3
Atom  43H    basis set group =>   2
Atom  44H    basis set group =>   2
Atom  45H    basis set group =>   2
Atom  46H    basis set group =>   2
Atom  47H    basis set group =>   2
Atom  48H    basis set group =>   2
Atom  49H    basis set group =>   2
Atom  50H    basis set group =>   2
Atom  51H    basis set group =>   2
Atom  52H    basis set group =>   2
Atom  53H    basis set group =>   2
Atom  54H    basis set group =>   2
Atom  55H    basis set group =>   2
Atom  56H    basis set group =>   2
Atom  57H    basis set group =>   2
Atom  58H    basis set group =>   2
Atom  59H    basis set group =>   2
Atom  60H    basis set group =>   2
Atom  61H    basis set group =>   2
Atom  62H    basis set group =>   2
Atom  63H    basis set group =>   2
Atom  64H    basis set group =>   2
Atom  65H    basis set group =>   2

-------------------------------------
AUXILIARY/C BASIS SET IN INPUT FORMAT
-------------------------------------

 # Auxiliary/C basis set for element : H 
 NewAuxCGTO H 
 S 1 
   1       8.5128275910      1.0000000000
 S 1 
   1       1.8730891166      1.0000000000
 S 1 
   1       0.5261842694      1.0000000000
 S 1 
   1       0.2897398994      1.0000000000
 P 1 
   1       2.3725491635      1.0000000000
 P 1 
   1       1.1804084468      1.0000000000
 P 1 
   1       0.6038220424      1.0000000000
 D 1 
   1       1.8096373189      1.0000000000
 D 1 
   1       1.1439726055      1.0000000000
 F 1 
   1       1.8063060576      1.0000000000
  end;

 # Auxiliary/C basis set for element : C 
 NewAuxCGTO C 
 S 1 
   1     280.5566118800      1.0000000000
 S 1 
   1      60.2302471910      1.0000000000
 S 1 
   1      22.1166508240      1.0000000000
 S 1 
   1       6.8620932896      1.0000000000
 S 1 
   1       1.5622549539      1.0000000000
 S 1 
   1       0.9124504549      1.0000000000
 S 1 
   1       0.5027491704      1.0000000000
 S 1 
   1       0.2158234875      1.0000000000
 P 1 
   1      24.2318651760      1.0000000000
 P 1 
   1       6.4764514185      1.0000000000
 P 1 
   1       2.1290884677      1.0000000000
 P 1 
   1       1.0375639746      1.0000000000
 P 1 
   1       0.5494127505      1.0000000000
 P 1 
   1       0.2815265223      1.0000000000
 D 1 
   1       9.7189810815      1.0000000000
 D 1 
   1       3.0351475003      1.0000000000
 D 1 
   1       1.4677737562      1.0000000000
 D 1 
   1       0.5737082791      1.0000000000
 D 1 
   1       0.2905558967      1.0000000000
 F 1 
   1       2.2756201303      1.0000000000
 F 1 
   1       1.1968898852      1.0000000000
 F 1 
   1       0.5415748722      1.0000000000
 G 1 
   1       1.2166101638      1.0000000000
  end;

 # Auxiliary/C basis set for element : N 
 NewAuxCGTO N 
 S 1 
   1     287.5092694700      1.0000000000
 S 1 
   1      64.2760308980      1.0000000000
 S 1 
   1      21.6819240160      1.0000000000
 S 1 
   1       7.9068743193      1.0000000000
 S 1 
   1       2.4319673913      1.0000000000
 S 1 
   1       1.2226681474      1.0000000000
 S 1 
   1       0.7667482736      1.0000000000
 S 1 
   1       0.3115884699      1.0000000000
 P 1 
   1      34.9650273710      1.0000000000
 P 1 
   1      10.3238966480      1.0000000000
 P 1 
   1       2.8981582643      1.0000000000
 P 1 
   1       1.4077404555      1.0000000000
 P 1 
   1       0.8508338654      1.0000000000
 P 1 
   1       0.3735327414      1.0000000000
 D 1 
   1      13.9086370890      1.0000000000
 D 1 
   1       4.5847232531      1.0000000000
 D 1 
   1       2.2101848651      1.0000000000
 D 1 
   1       0.8376830121      1.0000000000
 D 1 
   1       0.4194837561      1.0000000000
 F 1 
   1       3.4730665788      1.0000000000
 F 1 
   1       1.5589463548      1.0000000000
 F 1 
   1       0.8467763824      1.0000000000
 G 1 
   1       1.7764066281      1.0000000000
  end;



           ************************************************************
           *        Program running with 32 parallel MPI-processes    *
           *              working on a common directory               *
           ************************************************************
------------------------------------------------------------------------------
                           ORCA GTO INTEGRAL CALCULATION
------------------------------------------------------------------------------

                         BASIS SET STATISTICS AND STARTUP INFO

 # of primitive gaussian shells          ... 1140
 # of primitive gaussian functions       ... 2212
 # of contracted shells                  ...  532
 # of contracted basis functions         ... 1468
 Highest angular momentum                ...    3
 Maximum contraction depth               ...    8
 Integral package used                   ... LIBINT
 Integral threshhold            Thresh   ...  2.500e-11
 Primitive cut-off              TCut     ...  2.500e-12


------------------------------ INTEGRAL EVALUATION ----------------------------


 * One electron integrals 
 Pre-screening matrix                    ... done
 Shell pair data                         ... done (   0.028 sec)



           ************************************************************
           *        Program running with 32 parallel MPI-processes    *
           *              working on a common directory               *
           ************************************************************
-------------------------------------------------------------------------------
                                 ORCA SCF
-------------------------------------------------------------------------------

------------
SCF SETTINGS
------------
Hamiltonian:
 Ab initio Hamiltonian  Method          .... Hartree-Fock(GTOs)


General Settings:
 Integral files         IntName         .... _o_2_alde1_4_ami4_1_opt_MP2
 Hartree-Fock type      HFTyp           .... RHF
 Total Charge           Charge          ....    0
 Multiplicity           Mult            ....    1
 Number of Electrons    NEL             ....  244
 Basis Dimension        Dim             .... 1468
 Nuclear Repulsion      ENuc            ....   3437.3534123826 Eh

Convergence Acceleration:
 DIIS                   CNVDIIS         .... on
   Start iteration      DIISMaxIt       ....     0
   Startup error        DIISStart       ....  0.200000
   # of expansion vecs  DIISMaxEq       ....     5
   Bias factor          DIISBfac        ....   1.050
   Max. coefficient     DIISMaxC        ....  10.000
 Newton-Raphson         CNVNR           .... off
 SOSCF                  CNVSOSCF        .... on
   Start iteration      SOSCFMaxIt      ....   150
   Startup grad/error   SOSCFStart      ....  0.001000
 Level Shifting         CNVShift        .... on
   Level shift para.    LevelShift      ....    0.2500
   Turn off err/grad.   ShiftErr        ....    0.0000
 Zerner damping         CNVZerner       .... off
 Static damping         CNVDamp         .... on
   Fraction old density DampFac         ....    0.8500
   Max. Damping (<1)    DampMax         ....    0.9800
   Min. Damping (>=0)   DampMin         ....    0.0000
   Turn off err/grad.   DampErr         ....    0.0300
 Fernandez-Rico         CNVRico         .... off

SCF Procedure:
 Maximum # iterations   MaxIter         ....   125
 SCF integral mode      SCFMode         .... Direct
   Integral package                     .... LIBINT
 Reset frequency        DirectResetFreq ....    20
 Integral Threshold     Thresh          ....  2.500e-11 Eh
 Primitive CutOff       TCut            ....  2.500e-12 Eh

Convergence Tolerance:
 Convergence Check Mode ConvCheckMode   .... Total+1el-Energy
 Convergence forced     ConvForced      .... 1
 Energy Change          TolE            ....  1.000e-08 Eh
 1-El. energy change                    ....  1.000e-05 Eh
 Orbital Gradient       TolG            ....  1.000e-05
 Orbital Rotation angle TolX            ....  1.000e-05
 DIIS Error             TolErr          ....  5.000e-07


Diagonalization of the overlap matrix:
Smallest eigenvalue                        ... 2.325e-05
Time for diagonalization                   ...    2.432 sec
Threshold for overlap eigenvalues          ... 1.000e-08
Number of eigenvalues below threshold      ... 0
Time for construction of square roots      ...    0.232 sec
Total time needed                          ...    2.667 sec

-------------------
DFT GRID GENERATION
-------------------

General Integration Accuracy     IntAcc      ...  5.340
Radial Grid Type                 RadialGrid  ... Gauss-Chebyshev
Angular Grid (max. acc.)         AngularGrid ... Lebedev-590
Angular grid pruning method      GridPruning ... 3 (G Style)
Weight generation scheme         WeightScheme... Becke
Basis function cutoff            BFCut       ...    1.0000e-11
Integration weight cutoff        WCut        ...    1.0000e-14
Grids for H and He will be reduced by one unit

# of grid points (after initial pruning)     ... 912160 (   0.0 sec)
# of grid points (after weights+screening)   ... 770344 (   0.9 sec)
nearest neighbour list constructed           ...    0.0 sec
Grid point re-assignment to atoms done       ...    0.1 sec
Grid point division into batches done        ...    7.7 sec
Reduced shell lists constructed in    8.3 sec

Total number of grid points                  ...   770344
Total number of batches                      ...    12070
Average number of points per batch           ...       63
Average number of grid points per atom       ...    11672
Average number of shells per batch           ...   205.92 (38.71%)
Average number of basis functions per batch  ...   503.57 (34.30%)
Average number of large shells per batch     ...   121.54 (59.03%)
Average number of large basis fcns per batch ...   305.16 (60.60%)
Maximum spatial batch extension              ...  19.06,  8.78, 11.34 au
Average spatial batch extension              ...   0.03,  0.03,  0.03 au

Time for grid setup =    9.532 sec

------------------------------
INITIAL GUESS: MODEL POTENTIAL
------------------------------
Loading Hartree-Fock densities                     ... done
Calculating cut-offs                               ... done
Setting up the integral package                    ... done
Initializing the effective Hamiltonian             ... done
Starting the Coulomb interaction                   ... done (   0.3 sec)
Reading the grid                                   ... done
Mapping shells                                     ... done
Starting the XC term evaluation                    ... done (   0.4 sec)
Transforming the Hamiltonian                       ... done (   0.2 sec)
Diagonalizing the Hamiltonian                      ... done (   0.3 sec)
Back transforming the eigenvectors                 ... done (   0.1 sec)
Now organizing SCF variables                       ... done
                      ------------------
                      INITIAL GUESS DONE (  11.0 sec)
                      ------------------
--------------
SCF ITERATIONS
--------------
ITER       Energy         Delta-E        Max-DP      RMS-DP      [F,P]     Damp
               ***  Starting incremental Fock matrix formation  ***
  0  -1437.7948086430   0.000000000000 0.05296678  0.00023423  0.2566474 0.8500
  1  -1438.0355860683  -0.240777425315 0.07079378  0.00026813  0.2085861 0.8500
                               ***Turning on DIIS***
  2  -1438.2291790522  -0.193592983889 0.05994967  0.00022844  0.1643098 0.8500
  3  -1443.0276354631  -4.798456410909 0.03394608  0.00015390  0.1288410 0.8500
  4  -1445.1657729576  -2.138137494472 0.01704024  0.00010647  0.1063400 0.8500
  5  -1445.1687928781  -0.003019920505 0.00921209  0.00008276  0.0903748 0.8500
  6  -1444.5809446933   0.587848184763 0.00612187  0.00006875  0.0774706 0.8500
  7  -1443.6082542293   0.972690464071 0.00523311  0.00005913  0.0664650 0.8500
  8  -1442.8252884337   0.782965795514 0.00446018  0.00005085  0.0566727 0.8500
  9  -1442.2332257358   0.592062697923 0.00379475  0.00004344  0.0481764 0.8500
 10  -1441.7622267129   0.470999022968 0.00322700  0.00003702  0.0409648 0.8500
 11  -1441.3702549622   0.391971750670 0.00274447  0.00003156  0.0348653 0.8500
 12  -1441.0359804175   0.334274544675 0.01556487  0.00017964  0.0296838 0.0000
                      *** Initiating the SOSCF procedure ***
                           *** Shutting down DIIS ***
                      *** Re-Reading the Fockian *** 
                      *** Removing any level shift *** 
ITER      Energy       Delta-E        Grad      Rot      Max-DP    RMS-DP
 13  -1439.17601464   1.8599657819  0.000379  0.000379  0.003341  0.000013
               *** Restarting incremental Fock matrix formation ***
 14  -1439.17311455   0.0029000825  0.000191  0.000482  0.001425  0.000008
 15  -1439.17312670  -0.0000121426  0.000088  0.000355  0.001893  0.000009
 16  -1439.17312965  -0.0000029578  0.000082  0.000129  0.000328  0.000001
 17  -1439.17313007  -0.0000004211  0.000014  0.000032  0.000159  0.000001
 18  -1439.17313013  -0.0000000541  0.000008  0.000031  0.000052  0.000000
 19  -1439.17313010   0.0000000273  0.000003  0.000015  0.000025  0.000000
                  ***Gradient check signals convergence***
              ***Rediagonalizing the Fockian in SOSCF/NRSCF***

               *****************************************************
               *                     SUCCESS                       *
               *           SCF CONVERGED AFTER  20 CYCLES          *
               *****************************************************


----------------
TOTAL SCF ENERGY
----------------

Total Energy       :        -1439.17313011 Eh          -39161.89182 eV

Components:
Nuclear Repulsion  :         3437.35341238 Eh           93535.14159 eV
Electronic Energy  :        -4876.52654249 Eh         -132697.03341 eV
One Electron Energy:        -8796.95631648 Eh         -239377.35108 eV
Two Electron Energy:         3920.42977399 Eh          106680.31767 eV

Virial components:
Potential Energy   :        -2876.83472045 Eh          -78282.65256 eV
Kinetic Energy     :         1437.66159035 Eh           39120.76073 eV
Virial Ratio       :            2.00105139


---------------
SCF CONVERGENCE
---------------

  Last Energy change         ...   -6.0136e-09  Tolerance :   1.0000e-08
  Last MAX-Density change    ...    8.7464e-06  Tolerance :   1.0000e-07
  Last RMS-Density change    ...    3.4918e-08  Tolerance :   5.0000e-09
  Last Orbital Gradient      ...    1.6758e-06  Tolerance :   1.0000e-05
  Last Orbital Rotation      ...    4.6246e-06  Tolerance :   1.0000e-05

             **** THE GBW FILE WAS UPDATED (_o_2_alde1_4_ami4_1_opt_MP2.gbw) ****
             **** DENSITY FILE WAS UPDATED (_o_2_alde1_4_ami4_1_opt_MP2.scfp) ****
             **** ENERGY FILE WAS UPDATED (_o_2_alde1_4_ami4_1_opt_MP2.en.tmp) ****
             **** THE GBW FILE WAS UPDATED (_o_2_alde1_4_ami4_1_opt_MP2.gbw) ****
             **** DENSITY FILE WAS UPDATED (_o_2_alde1_4_ami4_1_opt_MP2.scfp) ****
----------------
ORBITAL ENERGIES
----------------

  NO   OCC          E(Eh)            E(eV) 
   0   2.0000     -15.552027      -423.1922 
   1   2.0000     -15.549946      -423.1355 
   2   2.0000     -15.549642      -423.1273 
   3   2.0000     -15.547884      -423.0794 
   4   2.0000     -15.547023      -423.0560 
   5   2.0000     -15.542607      -422.9358 
   6   2.0000     -15.538937      -422.8360 
   7   2.0000     -15.538880      -422.8344 
   8   2.0000     -11.292125      -307.2743 
   9   2.0000     -11.279171      -306.9218 
  10   2.0000     -11.278248      -306.8967 
  11   2.0000     -11.274430      -306.7928 
  12   2.0000     -11.273523      -306.7682 
  13   2.0000     -11.270152      -306.6764 
  14   2.0000     -11.252734      -306.2025 
  15   2.0000     -11.251539      -306.1700 
  16   2.0000     -11.249688      -306.1196 
  17   2.0000     -11.248168      -306.0782 
  18   2.0000     -11.245664      -306.0101 
  19   2.0000     -11.245018      -305.9925 
  20   2.0000     -11.243564      -305.9529 
  21   2.0000     -11.243021      -305.9381 
  22   2.0000     -11.240144      -305.8599 
  23   2.0000     -11.238598      -305.8178 
  24   2.0000     -11.238222      -305.8076 
  25   2.0000     -11.237795      -305.7960 
  26   2.0000     -11.237010      -305.7746 
  27   2.0000     -11.236864      -305.7706 
  28   2.0000     -11.236516      -305.7612 
  29   2.0000     -11.235697      -305.7389 
  30   2.0000     -11.235683      -305.7385 
  31   2.0000     -11.230324      -305.5926 
  32   2.0000     -11.230272      -305.5912 
  33   2.0000     -11.230100      -305.5866 
  34   2.0000      -1.280037       -34.8316 
  35   2.0000      -1.269116       -34.5344 
  36   2.0000      -1.247560       -33.9478 
  37   2.0000      -1.245152       -33.8823 
  38   2.0000      -1.220447       -33.2100 
  39   2.0000      -1.215792       -33.0834 
  40   2.0000      -1.161569       -31.6079 
  41   2.0000      -1.154585       -31.4178 
  42   2.0000      -1.146831       -31.2069 
  43   2.0000      -1.135963       -30.9111 
  44   2.0000      -1.061918       -28.8963 
  45   2.0000      -1.057662       -28.7804 
  46   2.0000      -1.050191       -28.5772 
  47   2.0000      -1.038778       -28.2666 
  48   2.0000      -1.004103       -27.3230 
  49   2.0000      -0.987329       -26.8666 
  50   2.0000      -0.980347       -26.6766 
  51   2.0000      -0.973559       -26.4919 
  52   2.0000      -0.902319       -24.5533 
  53   2.0000      -0.901019       -24.5180 
  54   2.0000      -0.877404       -23.8754 
  55   2.0000      -0.868708       -23.6387 
  56   2.0000      -0.864574       -23.5263 
  57   2.0000      -0.832676       -22.6583 
  58   2.0000      -0.827307       -22.5122 
  59   2.0000      -0.820653       -22.3311 
  60   2.0000      -0.812619       -22.1125 
  61   2.0000      -0.794895       -21.6302 
  62   2.0000      -0.783695       -21.3254 
  63   2.0000      -0.759435       -20.6653 
  64   2.0000      -0.739740       -20.1294 
  65   2.0000      -0.734074       -19.9752 
  66   2.0000      -0.720016       -19.5926 
  67   2.0000      -0.704985       -19.1836 
  68   2.0000      -0.696954       -18.9651 
  69   2.0000      -0.679602       -18.4929 
  70   2.0000      -0.671293       -18.2668 
  71   2.0000      -0.669532       -18.2189 
  72   2.0000      -0.654580       -17.8120 
  73   2.0000      -0.652168       -17.7464 
  74   2.0000      -0.644804       -17.5460 
  75   2.0000      -0.639600       -17.4044 
  76   2.0000      -0.635891       -17.3035 
  77   2.0000      -0.633856       -17.2481 
  78   2.0000      -0.629718       -17.1355 
  79   2.0000      -0.622139       -16.9293 
  80   2.0000      -0.610075       -16.6010 
  81   2.0000      -0.604413       -16.4469 
  82   2.0000      -0.602803       -16.4031 
  83   2.0000      -0.600897       -16.3512 
  84   2.0000      -0.594993       -16.1906 
  85   2.0000      -0.593441       -16.1483 
  86   2.0000      -0.589701       -16.0466 
  87   2.0000      -0.576424       -15.6853 
  88   2.0000      -0.548164       -14.9163 
  89   2.0000      -0.544874       -14.8268 
  90   2.0000      -0.543678       -14.7942 
  91   2.0000      -0.541528       -14.7357 
  92   2.0000      -0.536139       -14.5891 
  93   2.0000      -0.531187       -14.4543 
  94   2.0000      -0.528784       -14.3889 
  95   2.0000      -0.527416       -14.3517 
  96   2.0000      -0.519916       -14.1476 
  97   2.0000      -0.516501       -14.0547 
  98   2.0000      -0.509228       -13.8568 
  99   2.0000      -0.500896       -13.6301 
 100   2.0000      -0.494308       -13.4508 
 101   2.0000      -0.493387       -13.4257 
 102   2.0000      -0.486926       -13.2499 
 103   2.0000      -0.483288       -13.1509 
 104   2.0000      -0.480682       -13.0800 
 105   2.0000      -0.479417       -13.0456 
 106   2.0000      -0.457110       -12.4386 
 107   2.0000      -0.439314       -11.9543 
 108   2.0000      -0.423360       -11.5202 
 109   2.0000      -0.412495       -11.2246 
 110   2.0000      -0.408729       -11.1221 
 111   2.0000      -0.401521       -10.9259 
 112   2.0000      -0.399711       -10.8767 
 113   2.0000      -0.397381       -10.8133 
 114   2.0000      -0.395327       -10.7574 
 115   2.0000      -0.388326       -10.5669 
 116   2.0000      -0.385121       -10.4797 
 117   2.0000      -0.374995       -10.2041 
 118   2.0000      -0.328524        -8.9396 
 119   2.0000      -0.324824        -8.8389 
 120   2.0000      -0.317424        -8.6375 
 121   2.0000      -0.308646        -8.3987 
 122   0.0000       0.078118         2.1257 
 123   0.0000       0.079326         2.1586 
 124   0.0000       0.094706         2.5771 
 125   0.0000       0.112640         3.0651 
 126   0.0000       0.118428         3.2226 
 127   0.0000       0.139555         3.7975 
 128   0.0000       0.143293         3.8992 
 129   0.0000       0.153410         4.1745 
 130   0.0000       0.158205         4.3050 
 131   0.0000       0.159521         4.3408 
 132   0.0000       0.163837         4.4582 
 133   0.0000       0.169123         4.6021 
 134   0.0000       0.170998         4.6531 
 135   0.0000       0.175115         4.7651 
 136   0.0000       0.176720         4.8088 
 137   0.0000       0.181270         4.9326 
 138   0.0000       0.186777         5.0825 
 139   0.0000       0.187816         5.1107 
 140   0.0000       0.190488         5.1834 
 141   0.0000       0.200559         5.4575 
 142   0.0000       0.203209         5.5296 
 143   0.0000       0.206252         5.6124 
 144   0.0000       0.208007         5.6602 
 145   0.0000       0.209356         5.6969 
 146   0.0000       0.212979         5.7954 
 147   0.0000       0.216818         5.8999 
 148   0.0000       0.218473         5.9449 
 149   0.0000       0.220492         5.9999 
 150   0.0000       0.225149         6.1266 
 151   0.0000       0.228442         6.2162 
 152   0.0000       0.236635         6.4392 
 153   0.0000       0.242385         6.5956 
 154   0.0000       0.246324         6.7028 
 155   0.0000       0.248424         6.7600 
 156   0.0000       0.252463         6.8699 
 157   0.0000       0.264186         7.1889 
 158   0.0000       0.268222         7.2987 
 159   0.0000       0.280688         7.6379 
 160   0.0000       0.283609         7.7174 
 161   0.0000       0.284497         7.7416 
 162   0.0000       0.286415         7.7938 
 163   0.0000       0.288948         7.8627 
 164   0.0000       0.309164         8.4128 
 165   0.0000       0.314024         8.5450 
 166   0.0000       0.317113         8.6291 
 167   0.0000       0.323086         8.7916 
 168   0.0000       0.328482         8.9384 
 169   0.0000       0.329459         8.9650 
 170   0.0000       0.334286         9.0964 
 171   0.0000       0.339002         9.2247 
 172   0.0000       0.344652         9.3785 
 173   0.0000       0.354483         9.6460 
 174   0.0000       0.359163         9.7733 
 175   0.0000       0.361755         9.8439 
 176   0.0000       0.363448         9.8899 
 177   0.0000       0.364988         9.9318 
 178   0.0000       0.368226        10.0199 
 179   0.0000       0.370073        10.0702 
 180   0.0000       0.382966        10.4210 
 181   0.0000       0.383755        10.4425 
 182   0.0000       0.386961        10.5297 
 183   0.0000       0.393458        10.7065 
 184   0.0000       0.395078        10.7506 
 185   0.0000       0.403145        10.9701 
 186   0.0000       0.405473        11.0335 
 187   0.0000       0.408628        11.1193 
 188   0.0000       0.411985        11.2107 
 189   0.0000       0.416028        11.3207 
 190   0.0000       0.424312        11.5461 
 191   0.0000       0.427342        11.6286 
 192   0.0000       0.428006        11.6466 
 193   0.0000       0.433703        11.8017 
 194   0.0000       0.435668        11.8551 
 195   0.0000       0.440128        11.9765 
 196   0.0000       0.443727        12.0744 
 197   0.0000       0.444288        12.0897 
 198   0.0000       0.453815        12.3489 
 199   0.0000       0.460167        12.5218 
 200   0.0000       0.460976        12.5438 
 201   0.0000       0.464776        12.6472 
 202   0.0000       0.467368        12.7177 
 203   0.0000       0.474978        12.9248 
 204   0.0000       0.478363        13.0169 
 205   0.0000       0.480902        13.0860 
 206   0.0000       0.488030        13.2800 
 207   0.0000       0.488504        13.2929 
 208   0.0000       0.492956        13.4140 
 209   0.0000       0.495096        13.4722 
 210   0.0000       0.500622        13.6226 
 211   0.0000       0.502624        13.6771 
 212   0.0000       0.508536        13.8380 
 213   0.0000       0.513187        13.9645 
 214   0.0000       0.514937        14.0121 
 215   0.0000       0.517474        14.0812 
 216   0.0000       0.522501        14.2180 
 217   0.0000       0.524601        14.2751 
 218   0.0000       0.528856        14.3909 
 219   0.0000       0.531533        14.4637 
 220   0.0000       0.536622        14.6022 
 221   0.0000       0.546341        14.8667 
 222   0.0000       0.549004        14.9392 
 223   0.0000       0.550168        14.9708 
 224   0.0000       0.554213        15.0809 
 225   0.0000       0.556104        15.1324 
 226   0.0000       0.556715        15.1490 
 227   0.0000       0.563347        15.3294 
 228   0.0000       0.563830        15.3426 
 229   0.0000       0.567989        15.4558 
 230   0.0000       0.572932        15.5903 
 231   0.0000       0.576584        15.6896 
 232   0.0000       0.577990        15.7279 
 233   0.0000       0.580646        15.8002 
 234   0.0000       0.584722        15.9111 
 235   0.0000       0.587933        15.9985 
 236   0.0000       0.589852        16.0507 
 237   0.0000       0.591927        16.1072 
 238   0.0000       0.596094        16.2206 
 239   0.0000       0.597840        16.2680 
 240   0.0000       0.598808        16.2944 
 241   0.0000       0.602007        16.3814 
 242   0.0000       0.604391        16.4463 
 243   0.0000       0.605240        16.4694 
 244   0.0000       0.605914        16.4878 
 245   0.0000       0.608663        16.5626 
 246   0.0000       0.611170        16.6308 
 247   0.0000       0.614738        16.7279 
 248   0.0000       0.616101        16.7650 
 249   0.0000       0.616513        16.7762 
 250   0.0000       0.621078        16.9004 
 251   0.0000       0.623456        16.9651 
 252   0.0000       0.624745        17.0002 
 253   0.0000       0.628173        17.0935 
 254   0.0000       0.630711        17.1625 
 255   0.0000       0.631668        17.1886 
 256   0.0000       0.634048        17.2533 
 257   0.0000       0.639356        17.3978 
 258   0.0000       0.641627        17.4596 
 259   0.0000       0.643406        17.5080 
 260   0.0000       0.647373        17.6159 
 261   0.0000       0.650640        17.7048 
 262   0.0000       0.651324        17.7234 
 263   0.0000       0.655506        17.8372 
 264   0.0000       0.659906        17.9570 
 265   0.0000       0.661457        17.9992 
 266   0.0000       0.664972        18.0948 
 267   0.0000       0.667419        18.1614 
 268   0.0000       0.668761        18.1979 
 269   0.0000       0.673175        18.3180 
 270   0.0000       0.676988        18.4218 
 271   0.0000       0.679888        18.5007 
 272   0.0000       0.681485        18.5441 
 273   0.0000       0.686554        18.6821 
 274   0.0000       0.690919        18.8009 
 275   0.0000       0.694027        18.8854 
 276   0.0000       0.698061        18.9952 
 277   0.0000       0.699962        19.0469 
 278   0.0000       0.701318        19.0838 
 279   0.0000       0.707459        19.2509 
 280   0.0000       0.708123        19.2690 
 281   0.0000       0.712138        19.3783 
 282   0.0000       0.712939        19.4000 
 283   0.0000       0.716694        19.5022 
 284   0.0000       0.722814        19.6688 
 285   0.0000       0.723925        19.6990 
 286   0.0000       0.725404        19.7393 
 287   0.0000       0.727503        19.7964 
 288   0.0000       0.733018        19.9464 
 289   0.0000       0.735484        20.0135 
 290   0.0000       0.738450        20.0943 
 291   0.0000       0.739433        20.1210 
 292   0.0000       0.742618        20.2077 
 293   0.0000       0.746043        20.3009 
 294   0.0000       0.747761        20.3476 
 295   0.0000       0.752121        20.4662 
 296   0.0000       0.755611        20.5612 
 297   0.0000       0.759733        20.6734 
 298   0.0000       0.766127        20.8474 
 299   0.0000       0.770702        20.9719 
 300   0.0000       0.774788        21.0831 
 301   0.0000       0.782351        21.2888 
 302   0.0000       0.785239        21.3674 
 303   0.0000       0.786089        21.3906 
 304   0.0000       0.788712        21.4619 
 305   0.0000       0.792189        21.5566 
 306   0.0000       0.795089        21.6355 
 307   0.0000       0.799354        21.7515 
 308   0.0000       0.800859        21.7925 
 309   0.0000       0.808601        22.0031 
 310   0.0000       0.811402        22.0794 
 311   0.0000       0.816822        22.2269 
 312   0.0000       0.818041        22.2600 
 313   0.0000       0.822269        22.3751 
 314   0.0000       0.828992        22.5580 
 315   0.0000       0.832491        22.6532 
 316   0.0000       0.839128        22.8338 
 317   0.0000       0.841110        22.8878 
 318   0.0000       0.855230        23.2720 
 319   0.0000       0.856371        23.3030 
 320   0.0000       0.861824        23.4514 
 321   0.0000       0.867213        23.5981 
 322   0.0000       0.869890        23.6709 
 323   0.0000       0.872847        23.7514 
 324   0.0000       0.876408        23.8483 
 325   0.0000       0.883393        24.0383 
 326   0.0000       0.886682        24.1278 
 327   0.0000       0.890515        24.2322 
 328   0.0000       0.895358        24.3639 
 329   0.0000       0.901857        24.5408 
 330   0.0000       0.905018        24.6268 
 331   0.0000       0.908134        24.7116 
 332   0.0000       0.915006        24.8986 
 333   0.0000       0.922239        25.0954 
 334   0.0000       0.923827        25.1386 
 335   0.0000       0.930781        25.3278 
 336   0.0000       0.935822        25.4650 
 337   0.0000       0.939904        25.5761 
 338   0.0000       0.943741        25.6805 
 339   0.0000       0.946793        25.7635 
 340   0.0000       0.952263        25.9124 
 341   0.0000       0.953593        25.9486 
 342   0.0000       0.957949        26.0671 
 343   0.0000       0.964072        26.2337 
 344   0.0000       0.976101        26.5611 
 345   0.0000       0.978299        26.6209 
 346   0.0000       0.980685        26.6858 
 347   0.0000       0.982462        26.7342 
 348   0.0000       0.989446        26.9242 
 349   0.0000       0.990973        26.9658 
 350   0.0000       0.994749        27.0685 
 351   0.0000       0.999760        27.2049 
 352   0.0000       1.004462        27.3328 
 353   0.0000       1.009652        27.4740 
 354   0.0000       1.011141        27.5146 
 355   0.0000       1.015541        27.6343 
 356   0.0000       1.022734        27.8300 
 357   0.0000       1.024401        27.8754 
 358   0.0000       1.032397        28.0930 
 359   0.0000       1.035166        28.1683 
 360   0.0000       1.037080        28.2204 
 361   0.0000       1.040025        28.3005 
 362   0.0000       1.045649        28.4536 
 363   0.0000       1.050131        28.5755 
 364   0.0000       1.051844        28.6221 
 365   0.0000       1.054393        28.6915 
 366   0.0000       1.060712        28.8634 
 367   0.0000       1.065135        28.9838 
 368   0.0000       1.070611        29.1328 
 369   0.0000       1.072346        29.1800 
 370   0.0000       1.080339        29.3975 
 371   0.0000       1.083276        29.4775 
 372   0.0000       1.089685        29.6518 
 373   0.0000       1.091197        29.6930 
 374   0.0000       1.098104        29.8809 
 375   0.0000       1.100206        29.9381 
 376   0.0000       1.104485        30.0546 
 377   0.0000       1.106990        30.1227 
 378   0.0000       1.110446        30.2168 
 379   0.0000       1.115646        30.3583 
 380   0.0000       1.120233        30.4831 
 381   0.0000       1.125165        30.6173 
 382   0.0000       1.128404        30.7054 
 383   0.0000       1.130288        30.7567 
 384   0.0000       1.131914        30.8009 
 385   0.0000       1.136495        30.9256 
 386   0.0000       1.140097        31.0236 
 387   0.0000       1.143932        31.1280 
 388   0.0000       1.148459        31.2512 
 389   0.0000       1.153986        31.4015 
 390   0.0000       1.159113        31.5411 
 391   0.0000       1.162614        31.6363 
 392   0.0000       1.166931        31.7538 
 393   0.0000       1.168109        31.7858 
 394   0.0000       1.170276        31.8448 
 395   0.0000       1.175251        31.9802 
 396   0.0000       1.182174        32.1686 
 397   0.0000       1.183998        32.2182 
 398   0.0000       1.187980        32.3266 
 399   0.0000       1.189082        32.3566 
 400   0.0000       1.194204        32.4959 
 401   0.0000       1.196285        32.5526 
 402   0.0000       1.199946        32.6522 
 403   0.0000       1.203704        32.7544 
 404   0.0000       1.204200        32.7679 
 405   0.0000       1.210074        32.9278 
 406   0.0000       1.215289        33.0697 
 407   0.0000       1.218002        33.1435 
 408   0.0000       1.219570        33.1862 
 409   0.0000       1.223038        33.2805 
 410   0.0000       1.227219        33.3943 
 411   0.0000       1.229076        33.4449 
 412   0.0000       1.232759        33.5451 
 413   0.0000       1.236198        33.6387 
 414   0.0000       1.242072        33.7985 
 415   0.0000       1.247886        33.9567 
 416   0.0000       1.252468        34.0814 
 417   0.0000       1.253456        34.1083 
 418   0.0000       1.257469        34.2175 
 419   0.0000       1.258765        34.2527 
 420   0.0000       1.260161        34.2907 
 421   0.0000       1.265941        34.4480 
 422   0.0000       1.271242        34.5922 
 423   0.0000       1.275209        34.7002 
 424   0.0000       1.277782        34.7702 
 425   0.0000       1.284040        34.9405 
 426   0.0000       1.284826        34.9619 
 427   0.0000       1.288326        35.0571 
 428   0.0000       1.289411        35.0867 
 429   0.0000       1.292116        35.1603 
 430   0.0000       1.297757        35.3138 
 431   0.0000       1.298959        35.3465 
 432   0.0000       1.301917        35.4270 
 433   0.0000       1.306331        35.5471 
 434   0.0000       1.307760        35.5859 
 435   0.0000       1.314016        35.7562 
 436   0.0000       1.318894        35.8889 
 437   0.0000       1.320072        35.9210 
 438   0.0000       1.332226        36.2517 
 439   0.0000       1.335553        36.3422 
 440   0.0000       1.341054        36.4919 
 441   0.0000       1.343000        36.5449 
 442   0.0000       1.344528        36.5865 
 443   0.0000       1.350867        36.7590 
 444   0.0000       1.352021        36.7904 
 445   0.0000       1.354850        36.8673 
 446   0.0000       1.361383        37.0451 
 447   0.0000       1.362129        37.0654 
 448   0.0000       1.364325        37.1252 
 449   0.0000       1.368911        37.2500 
 450   0.0000       1.373707        37.3805 
 451   0.0000       1.379726        37.5442 
 452   0.0000       1.381589        37.5949 
 453   0.0000       1.387765        37.7630 
 454   0.0000       1.390389        37.8344 
 455   0.0000       1.395993        37.9869 
 456   0.0000       1.399421        38.0802 
 457   0.0000       1.403745        38.1979 
 458   0.0000       1.406154        38.2634 
 459   0.0000       1.409428        38.3525 
 460   0.0000       1.411145        38.3992 
 461   0.0000       1.415125        38.5075 
 462   0.0000       1.420174        38.6449 
 463   0.0000       1.425441        38.7882 
 464   0.0000       1.429372        38.8952 
 465   0.0000       1.430396        38.9230 
 466   0.0000       1.433102        38.9967 
 467   0.0000       1.441499        39.2252 
 468   0.0000       1.443591        39.2821 
 469   0.0000       1.452083        39.5132 
 470   0.0000       1.455934        39.6180 
 471   0.0000       1.458885        39.6983 
 472   0.0000       1.463441        39.8222 
 473   0.0000       1.473717        40.1019 
 474   0.0000       1.477253        40.1981 
 475   0.0000       1.480177        40.2777 
 476   0.0000       1.482240        40.3338 
 477   0.0000       1.484632        40.3989 
 478   0.0000       1.488630        40.5077 
 479   0.0000       1.491688        40.5909 
 480   0.0000       1.494668        40.6720 
 481   0.0000       1.504944        40.9516 
 482   0.0000       1.506893        41.0046 
 483   0.0000       1.509321        41.0707 
 484   0.0000       1.510723        41.1089 
 485   0.0000       1.513628        41.1879 
 486   0.0000       1.517715        41.2991 
 487   0.0000       1.523507        41.4567 
 488   0.0000       1.527423        41.5633 
 489   0.0000       1.530875        41.6572 
 490   0.0000       1.533275        41.7225 
 491   0.0000       1.536315        41.8053 
 492   0.0000       1.541033        41.9336 
 493   0.0000       1.545156        42.0458 
 494   0.0000       1.549254        42.1574 
 495   0.0000       1.552673        42.2504 
 496   0.0000       1.561159        42.4813 
 497   0.0000       1.562129        42.5077 
 498   0.0000       1.567375        42.6504 
 499   0.0000       1.571949        42.7749 
 500   0.0000       1.579301        42.9750 
 501   0.0000       1.580903        43.0186 
 502   0.0000       1.582998        43.0756 
 503   0.0000       1.589334        43.2480 
 504   0.0000       1.590891        43.2903 
 505   0.0000       1.593245        43.3544 
 506   0.0000       1.597900        43.4811 
 507   0.0000       1.602055        43.5941 
 508   0.0000       1.605054        43.6757 
 509   0.0000       1.609149        43.7872 
 510   0.0000       1.609667        43.8013 
 511   0.0000       1.613356        43.9016 
 512   0.0000       1.618988        44.0549 
 513   0.0000       1.625572        44.2341 
 514   0.0000       1.628649        44.3178 
 515   0.0000       1.633057        44.4377 
 516   0.0000       1.635268        44.4979 
 517   0.0000       1.640369        44.6367 
 518   0.0000       1.643593        44.7244 
 519   0.0000       1.645318        44.7714 
 520   0.0000       1.649449        44.8838 
 521   0.0000       1.653054        44.9819 
 522   0.0000       1.659448        45.1559 
 523   0.0000       1.664364        45.2896 
 524   0.0000       1.667125        45.3648 
 525   0.0000       1.672945        45.5231 
 526   0.0000       1.679591        45.7040 
 527   0.0000       1.682149        45.7736 
 528   0.0000       1.683893        45.8210 
 529   0.0000       1.690092        45.9898 
 530   0.0000       1.692868        46.0653 
 531   0.0000       1.700086        46.2617 
 532   0.0000       1.706570        46.4381 
 533   0.0000       1.710111        46.5345 
 534   0.0000       1.711452        46.5710 
 535   0.0000       1.724071        46.9144 
 536   0.0000       1.727558        47.0092 
 537   0.0000       1.731901        47.1274 
 538   0.0000       1.734175        47.1893 
 539   0.0000       1.736495        47.2524 
 540   0.0000       1.749213        47.5985 
 541   0.0000       1.751612        47.6638 
 542   0.0000       1.755105        47.7588 
 543   0.0000       1.764168        48.0055 
 544   0.0000       1.766206        48.0609 
 545   0.0000       1.768268        48.1170 
 546   0.0000       1.776170        48.3320 
 547   0.0000       1.785471        48.5851 
 548   0.0000       1.792974        48.7893 
 549   0.0000       1.796201        48.8771 
 550   0.0000       1.803723        49.0818 
 551   0.0000       1.803960        49.0883 
 552   0.0000       1.807334        49.1801 
 553   0.0000       1.811733        49.2998 
 554   0.0000       1.819512        49.5114 
 555   0.0000       1.823830        49.6289 
 556   0.0000       1.825677        49.6792 
 557   0.0000       1.828458        49.7549 
 558   0.0000       1.838046        50.0158 
 559   0.0000       1.844538        50.1924 
 560   0.0000       1.850535        50.3556 
 561   0.0000       1.855886        50.5012 
 562   0.0000       1.864784        50.7434 
 563   0.0000       1.874311        51.0026 
 564   0.0000       1.878027        51.1037 
 565   0.0000       1.880684        51.1760 
 566   0.0000       1.885592        51.3096 
 567   0.0000       1.894673        51.5567 
 568   0.0000       1.903632        51.8005 
 569   0.0000       1.907660        51.9101 
 570   0.0000       1.910104        51.9766 
 571   0.0000       1.919332        52.2277 
 572   0.0000       1.929197        52.4961 
 573   0.0000       1.930743        52.5382 
 574   0.0000       1.936721        52.7008 
 575   0.0000       1.942352        52.8541 
 576   0.0000       1.945434        52.9379 
 577   0.0000       1.946175        52.9581 
 578   0.0000       1.952136        53.1203 
 579   0.0000       1.960548        53.3492 
 580   0.0000       1.969172        53.5839 
 581   0.0000       1.978728        53.8439 
 582   0.0000       1.981198        53.9111 
 583   0.0000       1.984872        54.0111 
 584   0.0000       1.988504        54.1099 
 585   0.0000       1.992686        54.2237 
 586   0.0000       1.993352        54.2419 
 587   0.0000       2.001013        54.4503 
 588   0.0000       2.008788        54.6619 
 589   0.0000       2.015967        54.8573 
 590   0.0000       2.025404        55.1141 
 591   0.0000       2.032488        55.3068 
 592   0.0000       2.035439        55.3871 
 593   0.0000       2.045154        55.6515 
 594   0.0000       2.053857        55.8883 
 595   0.0000       2.056933        55.9720 
 596   0.0000       2.062448        56.1221 
 597   0.0000       2.084756        56.7291 
 598   0.0000       2.093585        56.9694 
 599   0.0000       2.097375        57.0725 
 600   0.0000       2.102560        57.2136 
 601   0.0000       2.113607        57.5142 
 602   0.0000       2.116335        57.5884 
 603   0.0000       2.122203        57.7481 
 604   0.0000       2.133576        58.0576 
 605   0.0000       2.139174        58.2099 
 606   0.0000       2.150903        58.5290 
 607   0.0000       2.168969        59.0206 
 608   0.0000       2.175489        59.1981 
 609   0.0000       2.175923        59.2099 
 610   0.0000       2.183641        59.4199 
 611   0.0000       2.198403        59.8216 
 612   0.0000       2.215875        60.2970 
 613   0.0000       2.230109        60.6844 
 614   0.0000       2.235358        60.8272 
 615   0.0000       2.241426        60.9923 
 616   0.0000       2.252783        61.3013 
 617   0.0000       2.259691        61.4893 
 618   0.0000       2.261062        61.5266 
 619   0.0000       2.267687        61.7069 
 620   0.0000       2.277606        61.9768 
 621   0.0000       2.291603        62.3577 
 622   0.0000       2.304037        62.6960 
 623   0.0000       2.329244        63.3820 
 624   0.0000       2.346832        63.8606 
 625   0.0000       2.357225        64.1433 
 626   0.0000       2.361194        64.2514 
 627   0.0000       2.386679        64.9448 
 628   0.0000       2.388899        65.0052 
 629   0.0000       2.404036        65.4172 
 630   0.0000       2.410925        65.6046 
 631   0.0000       2.432969        66.2045 
 632   0.0000       2.456653        66.8489 
 633   0.0000       2.458754        66.9061 
 634   0.0000       2.470924        67.2373 
 635   0.0000       2.500913        68.0533 
 636   0.0000       2.508254        68.2531 
 637   0.0000       2.518906        68.5429 
 638   0.0000       2.541739        69.1642 
 639   0.0000       2.546980        69.3068 
 640   0.0000       2.574282        70.0498 
 641   0.0000       2.584374        70.3244 
 642   0.0000       2.589744        70.4705 
 643   0.0000       2.595897        70.6379 
 644   0.0000       2.612286        71.0839 
 645   0.0000       2.614723        71.1502 
 646   0.0000       2.618917        71.2643 
 647   0.0000       2.627323        71.4931 
 648   0.0000       2.629951        71.5646 
 649   0.0000       2.641135        71.8689 
 650   0.0000       2.643849        71.9428 
 651   0.0000       2.647385        72.0390 
 652   0.0000       2.663324        72.4727 
 653   0.0000       2.668539        72.6146 
 654   0.0000       2.668911        72.6248 
 655   0.0000       2.678428        72.8837 
 656   0.0000       2.684965        73.0616 
 657   0.0000       2.697316        73.3977 
 658   0.0000       2.703891        73.5766 
 659   0.0000       2.706340        73.6433 
 660   0.0000       2.711618        73.7869 
 661   0.0000       2.713755        73.8450 
 662   0.0000       2.723380        74.1069 
 663   0.0000       2.730160        74.2914 
 664   0.0000       2.737719        74.4971 
 665   0.0000       2.742559        74.6288 
 666   0.0000       2.749411        74.8153 
 667   0.0000       2.753160        74.9173 
 668   0.0000       2.760630        75.1206 
 669   0.0000       2.764078        75.2144 
 670   0.0000       2.764672        75.2305 
 671   0.0000       2.767859        75.3173 
 672   0.0000       2.785000        75.7837 
 673   0.0000       2.786495        75.8244 
 674   0.0000       2.791842        75.9699 
 675   0.0000       2.797167        76.1148 
 676   0.0000       2.803795        76.2951 
 677   0.0000       2.808263        76.4167 
 678   0.0000       2.815567        76.6155 
 679   0.0000       2.816880        76.6512 
 680   0.0000       2.818569        76.6972 
 681   0.0000       2.830170        77.0128 
 682   0.0000       2.833962        77.1160 
 683   0.0000       2.836505        77.1852 
 684   0.0000       2.838071        77.2278 
 685   0.0000       2.846243        77.4502 
 686   0.0000       2.849463        77.5378 
 687   0.0000       2.850985        77.5793 
[...]
      pz      :     0.065643  p :     0.152064
      px      :     0.052568
      py      :     0.033853
      dz2     :     0.009182  d :     0.028295
      dxz     :     0.007505
      dyz     :     0.005641
      dx2y2   :     0.003208
      dxy     :     0.002758
 53 H s       :     0.857860  s :     0.857860
      pz      :     0.041421  p :     0.150050
      px      :     0.069051
      py      :     0.039578
      dz2     :     0.002841  d :     0.028195
      dxz     :     0.008244
      dyz     :     0.002000
      dx2y2   :     0.007892
      dxy     :     0.007217
 54 H s       :     0.855368  s :     0.855368
      pz      :     0.036343  p :     0.151573
      px      :     0.048483
      py      :     0.066747
      dz2     :     0.002752  d :     0.028355
      dxz     :     0.003253
      dyz     :     0.005909
      dx2y2   :     0.008192
      dxy     :     0.008249
 55 H s       :     0.857847  s :     0.857847
      pz      :     0.040275  p :     0.152233
      px      :     0.052385
      py      :     0.059573
      dz2     :     0.003482  d :     0.028325
      dxz     :     0.004654
      dyz     :     0.004552
      dx2y2   :     0.008529
      dxy     :     0.007108
 56 H s       :     0.854563  s :     0.854563
      pz      :     0.060243  p :     0.151464
      px      :     0.033963
      py      :     0.057259
      dz2     :     0.008303  d :     0.028332
      dxz     :     0.004765
      dyz     :     0.007064
      dx2y2   :     0.004729
      dxy     :     0.003471
 57 H s       :     0.857761  s :     0.857761
      pz      :     0.045969  p :     0.152169
      px      :     0.035334
      py      :     0.070865
      dz2     :     0.003898  d :     0.028323
      dxz     :     0.001637
      dyz     :     0.008841
      dx2y2   :     0.007198
      dxy     :     0.006749
 58 H s       :     0.860866  s :     0.860866
      pz      :     0.038329  p :     0.147888
      px      :     0.044217
      py      :     0.065342
      dz2     :     0.003576  d :     0.028218
      dxz     :     0.003266
      dyz     :     0.007132
      dx2y2   :     0.007944
      dxy     :     0.006301
 59 H s       :     0.852553  s :     0.852553
      pz      :     0.052821  p :     0.148709
      px      :     0.039557
      py      :     0.056331
      dz2     :     0.006986  d :     0.028346
      dxz     :     0.004771
      dyz     :     0.007705
      dx2y2   :     0.003960
      dxy     :     0.004923
 60 H s       :     0.860924  s :     0.860924
      pz      :     0.045050  p :     0.147879
      px      :     0.045370
      py      :     0.057459
      dz2     :     0.005204  d :     0.028159
      dxz     :     0.003807
      dyz     :     0.006419
      dx2y2   :     0.006685
      dxy     :     0.006044
 61 H s       :     0.852721  s :     0.852721
      pz      :     0.065399  p :     0.148500
      px      :     0.050954
      py      :     0.032146
      dz2     :     0.008776  d :     0.028327
      dxz     :     0.007850
      dyz     :     0.006714
      dx2y2   :     0.003028
      dxy     :     0.001959
 62 H s       :     0.854021  s :     0.854021
      pz      :     0.053263  p :     0.147714
      px      :     0.038672
      py      :     0.055778
      dz2     :     0.006525  d :     0.028112
      dxz     :     0.004902
      dyz     :     0.007594
      dx2y2   :     0.004198
      dxy     :     0.004894
 63 H s       :     0.865957  s :     0.865957
      pz      :     0.043907  p :     0.147690
      px      :     0.038931
      py      :     0.064852
      dz2     :     0.004255  d :     0.028163
      dxz     :     0.003682
      dyz     :     0.007670
      dx2y2   :     0.006820
      dxy     :     0.005737
 64 H s       :     0.862971  s :     0.862971
      pz      :     0.055168  p :     0.147645
      px      :     0.053542
      py      :     0.038934
      dz2     :     0.006870  d :     0.027886
      dxz     :     0.006657
      dyz     :     0.005548
      dx2y2   :     0.004938
      dxy     :     0.003873
 65 H s       :     0.852209  s :     0.852209
      pz      :     0.038285  p :     0.148696
      px      :     0.047364
      py      :     0.063047
      dz2     :     0.003398  d :     0.028346
      dxz     :     0.003219
      dyz     :     0.006795
      dx2y2   :     0.007703
      dxy     :     0.007231


                      *****************************
                      * MAYER POPULATION ANALYSIS *
                      *****************************

  NA   - Mulliken gross atomic population
  ZA   - Total nuclear charge
  QA   - Mulliken gross atomic charge
  VA   - Mayer's total valence
  BVA  - Mayer's bonded valence
  FA   - Mayer's free valence

  ATOM       NA         ZA         QA         VA         BVA        FA
  0 C      5.8274     6.0000     0.1726     3.5430     3.5430    -0.0000
  1 C      6.1253     6.0000    -0.1253     4.0087     4.0087    -0.0000
  2 C      6.2128     6.0000    -0.2128     3.8556     3.8556    -0.0000
  3 C      5.9822     6.0000     0.0178     3.7197     3.7197    -0.0000
  4 H      0.8140     1.0000     0.1860     1.0298     1.0298    -0.0000
  5 C      6.2412     6.0000    -0.2412     3.8936     3.8936    -0.0000
  6 C      5.8125     6.0000     0.1875     3.5596     3.5596    -0.0000
  7 H      0.8381     1.0000     0.1619     1.0152     1.0152     0.0000
  8 C      6.2509     6.0000    -0.2509     3.8974     3.8974    -0.0000
  9 C      6.1060     6.0000    -0.1060     4.0126     4.0126    -0.0000
 10 H      0.8199     1.0000     0.1801     1.0008     1.0008    -0.0000
 11 C      5.9093     6.0000     0.0907     4.0821     4.0821    -0.0000
 12 H      0.9082     1.0000     0.0918     0.9981     0.9981    -0.0000
 13 H      0.8757     1.0000     0.1243     0.9905     0.9905     0.0000
 14 C      5.8151     6.0000     0.1849     3.5563     3.5563    -0.0000
 15 C      6.1356     6.0000    -0.1356     4.0117     4.0117    -0.0000
 16 C      6.2738     6.0000    -0.2738     3.9047     3.9047    -0.0000
 17 C      5.8105     6.0000     0.1895     3.5887     3.5887    -0.0000
 18 H      0.8443     1.0000     0.1557     0.9858     0.9858     0.0000
 19 C      6.2196     6.0000    -0.2196     3.8700     3.8700    -0.0000
 20 C      5.9980     6.0000     0.0020     3.7834     3.7834    -0.0000
 21 H      0.8191     1.0000     0.1809     1.0199     1.0199    -0.0000
 22 C      6.2202     6.0000    -0.2202     3.8593     3.8593    -0.0000
 23 C      5.8343     6.0000     0.1657     4.0939     4.0939    -0.0000
 24 H      0.8181     1.0000     0.1819     1.0211     1.0211    -0.0000
 25 C      6.0654     6.0000    -0.0654     4.0143     4.0143    -0.0000
 26 H      0.9133     1.0000     0.0867     0.9928     0.9928    -0.0000
 27 C      6.0503     6.0000    -0.0503     3.8801     3.8801    -0.0000
 28 C      6.0516     6.0000    -0.0516     3.8855     3.8855     0.0000
 29 N      7.2475     7.0000    -0.2475     2.9669     2.9669    -0.0000
 30 N      7.2496     7.0000    -0.2496     2.9759     2.9759    -0.0000
 31 C      6.1243     6.0000    -0.1243     3.8836     3.8836    -0.0000
 32 C      6.1228     6.0000    -0.1228     3.8787     3.8787    -0.0000
 33 N      7.2519     7.0000    -0.2519     2.9896     2.9896    -0.0000
 34 N      7.2615     7.0000    -0.2615     2.9817     2.9817    -0.0000
 35 C      6.0444     6.0000    -0.0444     3.8959     3.8959     0.0000
 36 C      6.0631     6.0000    -0.0631     3.9095     3.9095     0.0000
 37 N      7.2487     7.0000    -0.2487     2.9850     2.9850    -0.0000
 38 N      7.2492     7.0000    -0.2492     2.9867     2.9867    -0.0000
 39 C      6.1206     6.0000    -0.1206     3.8943     3.8943    -0.0000
 40 C      6.1216     6.0000    -0.1216     3.8959     3.8959    -0.0000
 41 N      7.2799     7.0000    -0.2799     2.9949     2.9949    -0.0000
 42 N      7.2799     7.0000    -0.2799     2.9974     2.9974    -0.0000
 43 H      0.8780     1.0000     0.1220     0.9899     0.9899    -0.0000
 44 H      0.8978     1.0000     0.1022     1.0324     1.0324    -0.0000
 45 H      0.9047     1.0000     0.0953     0.9840     0.9840    -0.0000
 46 H      0.8969     1.0000     0.1031     1.0322     1.0322    -0.0000
 47 H      0.9021     1.0000     0.0979     1.0373     1.0373    -0.0000
 48 H      0.9027     1.0000     0.0973     1.0385     1.0385    -0.0000
 49 H      0.8831     1.0000     0.1169     0.9859     0.9859    -0.0000
 50 H      0.9020     1.0000     0.0980     0.9774     0.9774     0.0000
 51 H      0.8981     1.0000     0.1019     0.9826     0.9826    -0.0000
 52 H      0.8992     1.0000     0.1008     0.9824     0.9824    -0.0000
 53 H      0.9021     1.0000     0.0979     0.9774     0.9774    -0.0000
 54 H      0.9010     1.0000     0.0990     0.9747     0.9747    -0.0000
 55 H      0.8888     1.0000     0.1112     0.9823     0.9823     0.0000
 56 H      0.8986     1.0000     0.1014     0.9741     0.9741    -0.0000
 57 H      0.8893     1.0000     0.1107     0.9822     0.9822    -0.0000
 58 H      0.9282     1.0000     0.0718     0.9911     0.9911    -0.0000
 59 H      0.8930     1.0000     0.1070     0.9812     0.9812     0.0000
 60 H      0.9266     1.0000     0.0734     0.9908     0.9908    -0.0000
 61 H      0.8928     1.0000     0.1072     0.9817     0.9817    -0.0000
 62 H      0.8904     1.0000     0.1096     0.9825     0.9825     0.0000
 63 H      0.9390     1.0000     0.0610     0.9835     0.9835    -0.0000
 64 H      0.9306     1.0000     0.0694     0.9873     0.9873     0.0000
 65 H      0.8970     1.0000     0.1030     0.9872     0.9872     0.0000

  Mayer bond orders larger than 0.100000
B(  0-C ,  1-C ) :   0.9923 B(  0-C ,  2-C ) :   1.2815 B(  0-C ,  8-C ) :   1.3649 
B(  1-C , 13-H ) :   0.9868 B(  1-C , 30-N ) :   1.9672 B(  2-C ,  3-C ) :   1.3913 
B(  2-C ,  4-H ) :   0.9412 B(  3-C ,  5-C ) :   1.3365 B(  3-C , 11-C ) :   1.0098 
B(  5-C ,  6-C ) :   1.3662 B(  5-C ,  7-H ) :   0.9561 B(  6-C ,  8-C ) :   1.3025 
B(  6-C ,  9-C ) :   0.9957 B(  8-C , 10-H ) :   0.9554 B(  9-C , 12-H ) :   0.9910 
B(  9-C , 37-N ) :   1.9753 B( 11-C , 33-N ) :   1.0254 B( 11-C , 34-N ) :   1.0180 
B( 11-C , 49-H ) :   0.9872 B( 14-C , 15-C ) :   0.9893 B( 14-C , 16-C ) :   1.3368 
B( 14-C , 22-C ) :   1.3197 B( 15-C , 29-N ) :   1.9615 B( 15-C , 43-H ) :   0.9864 
B( 16-C , 17-C ) :   1.3394 B( 16-C , 18-H ) :   0.9743 B( 17-C , 19-C ) :   1.3226 
B( 17-C , 25-C ) :   0.9960 B( 19-C , 20-C ) :   1.3675 B( 19-C , 21-H ) :   0.9515 
B( 20-C , 22-C ) :   1.3643 B( 20-C , 23-C ) :   1.0616 B( 22-C , 24-H ) :   0.9497 
B( 23-C , 41-N ) :   1.0436 B( 23-C , 42-N ) :   1.0454 B( 23-C , 45-H ) :   0.9462 
B( 25-C , 26-H ) :   0.9850 B( 25-C , 38-N ) :   1.9674 B( 27-C , 28-C ) :   0.9237 
B( 27-C , 29-N ) :   0.9677 B( 27-C , 60-H ) :   0.9730 B( 27-C , 61-H ) :   0.9868 
B( 28-C , 30-N ) :   0.9693 B( 28-C , 58-H ) :   0.9720 B( 28-C , 59-H ) :   0.9862 
B( 31-C , 32-C ) :   0.9092 B( 31-C , 33-N ) :   0.9885 B( 31-C , 56-H ) :   0.9849 
B( 31-C , 57-H ) :   0.9913 B( 32-C , 34-N ) :   0.9867 B( 32-C , 54-H ) :   0.9854 
B( 32-C , 55-H ) :   0.9913 B( 33-N , 48-H ) :   0.9955 B( 34-N , 47-H ) :   0.9958 
B( 35-C , 36-C ) :   0.9332 B( 35-C , 37-N ) :   0.9721 B( 35-C , 64-H ) :   0.9837 
B( 35-C , 65-H ) :   0.9792 B( 36-C , 38-N ) :   0.9777 B( 36-C , 62-H ) :   0.9861 
B( 36-C , 63-H ) :   0.9753 B( 39-C , 40-C ) :   0.9118 B( 39-C , 41-N ) :   0.9998 
B( 39-C , 52-H ) :   0.9920 B( 39-C , 53-H ) :   0.9926 B( 40-C , 42-N ) :   1.0001 
B( 40-C , 50-H ) :   0.9928 B( 40-C , 51-H ) :   0.9919 B( 41-N , 44-H ) :   0.9824 
B( 42-N , 46-H ) :   0.9824 

-------
TIMINGS
-------

Total SCF time: 0 days 0 hours 15 min 37 sec 

Total time                  ....     937.395 sec
Sum of individual times     ....     925.180 sec  ( 98.7%)

Fock matrix formation       ....     869.056 sec  ( 92.7%)
Diagonalization             ....       6.576 sec  (  0.7%)
Density matrix formation    ....       0.516 sec  (  0.1%)
Population analysis         ....       4.126 sec  (  0.4%)
Initial guess               ....       1.510 sec  (  0.2%)
Orbital Transformation      ....       0.000 sec  (  0.0%)
Orbital Orthonormalization  ....       0.000 sec  (  0.0%)
DIIS solution               ....      30.545 sec  (  3.3%)
SOSCF solution              ....       3.319 sec  (  0.4%)


           ************************************************************
           *        Program running with 32 parallel MPI-processes    *
           *              working on a common directory               *
           ************************************************************

------------------------------------------------------------------------------
                                ORCA  MP2 
------------------------------------------------------------------------------

Freezing NCore=68 chemical core electrons

-------------
RI-MP2 ENERGY
-------------
Dimension of the basis                    ... 1468
Memory devoted to MP2                     ... 3000 MB   
Data format for buffers                   ... DOUBLE
Compression type for matrix containers    ... UNCOMPRESSED
Overall scaling of the MP2 energy         ...   1.000e+00
Calculating two index integrals           ... done (    0.240 sec)
Cholesky decomposition of V**-1           ... done (    2.148 sec)

-----------------
RI-TRANSFORMATION (AUX index driven)
-----------------

Dimension of the orbital-basis         ... 1468
Dimension of the aux-basis             ... 3714
Transformation of internal/external MOs...   34- 121 to  122-1467
Number Format for Storage              ... Double (8 Byte)
Integral mode                          ... Direct

First Phase: integral generation and transformation of MO indices
  Aux angular momentum 0               ... done (    1.870 sec)
  Aux angular momentum 1               ... done (    3.916 sec)
  Aux angular momentum 2               ... done (    5.178 sec)
  Aux angular momentum 3               ... done (    4.512 sec)
  Aux angular momentum 4               ... done (    2.323 sec)
Closing buffer VIA ( 3.28 GB; CompressionRatio= 1.00)
  Phase 1 completed in    18.038 sec
Second Phase: sorting and transformation of aux index

IA-Transformation
Memory available                       ... 2724 MB 
Max. # MO pairs treated in a batch     ... 3    
# of internal orbitals                 ... 88
# batches for internal orbitals        ... 1
Closing buffer IAV ( 0.11 GB; CompressionRatio= 1.00)
(ia|v) transformation done in    17.840 sec

  Phase 2 completed in    23.519 sec
RI-Integral transformation completed in    41.611 sec
Opening buffers                              ... done

Starting loop over batches of integrals:

Operator 0  - window                       ... ( 34-121)x(122-1467)
Operator 0  - Memory available             ...  3000 MB
Operator 0  - Memory needed per MO         ...  38.1 MB
Operator 0  - Number of orbitals per batch ... 3
Operator 0  - Number of batches            ... 1

OPERATOR  0   PASS   0:  MOs    34 ...   36 +   37 ...   39 +   40 ...   42 +   43 ...   45
                            +   46 ...   48 +   49 ...   51 +   52 ...   54 +   55 ...   57
                            +   58 ...   60 +   61 ...   63 +   64 ...   66 +   67 ...   69
                            +   70 ...   72 +   73 ...   75 +   76 ...   78 +   79 ...   81
                            +   82 ...   84 +   85 ...   87 +   88 ...   90 +   91 ...   93
                            +   94 ...   96 +   97 ...   99 +  100 ...  102 +  103 ...  105
                            +  106 ...  108 +  109 ...  111 +  112 ...  114 +  115 ...  117
                            +  118 ...  120 +  121 ...  121
  Reading integrals       ... ok
  Internal MO  36
Time spent in pair loops =    12.386 sec
Deleting buffer (Ka|jb)[aa] ...done

-----------------------------------------------
 RI-MP2 CORRELATION ENERGY:     -5.831745910 Eh
-----------------------------------------------


-------
TIMINGS
-------

Total time                :  575.313 sec
Integral trafo            :   41.615 sec (  7.2%)
I/O of integrals          :    0.064 sec (  0.0%)
K(i,j) Operators          :   12.187 sec (  2.1%)
T(i,j) pair energies      :    0.075 sec (  0.0%)
V-calculation             :    0.240 sec (  0.0%)
V**(-1/2)                 :    2.148 sec (  0.4%)
Gamma(ia|P)               :    0.000 sec (  0.0%)
Gamma-Trafo               :    0.000 sec (  0.0%)
D(virtual)                :    0.000 sec (  0.0%)
D(internal)               :    0.000 sec (  0.0%)
W(virtual)                :    0.000 sec (  0.0%)
W(internal)               :    0.000 sec (  0.0%)
L(virtual)                :    0.000 sec (  0.0%)
L(internal)               :    0.000 sec (  0.0%)
G(D)                      :    0.000 sec (  0.0%)
G(Z)                      :    0.000 sec (  0.0%)
Z-Vector Solution         :    0.000 sec (  0.0%)
3-Index Derivative        :    0.000 sec (  0.0%)
2-Index Derivative        :    0.000 sec (  0.0%)
Separable Gradient        :    0.000 sec (  0.0%)


---------------------------------------
MP2 TOTAL ENERGY:    -1445.004876017 Eh
---------------------------------------

-------------------------   --------------------
FINAL SINGLE POINT ENERGY     -1445.004876017414
-------------------------   --------------------


                            ***************************************
                            *     ORCA property calculations      *
                            ***************************************


  WARNING: The energy has been calculated at the MP2 level but the densities
           used in the property calculations are still SCF densities
           MP2 response densities have not been calculated 
           use %mp2 Density relaxed end
           or  %mp2 Density unrelaxed end

                                    ---------------------
                                    Active property flags
                                    ---------------------
   (+) Dipole Moment


------------------------------------------------------------------------------
                       ORCA ELECTRIC PROPERTIES CALCULATION
------------------------------------------------------------------------------

Dipole Moment Calculation                       ... on
Quadrupole Moment Calculation                   ... off
Polarizability Calculation                      ... off
GBWName                                         ... _o_2_alde1_4_ami4_1_opt_MP2.gbw
Electron density file                           ... _o_2_alde1_4_ami4_1_opt_MP2.scfp
The origin for moment calculation is the CENTER OF MASS  = (-2.797367, -0.300754 -3.946608)

-------------
DIPOLE MOMENT
-------------
                                X             Y             Z
Electronic contribution:      5.02449      -0.80081      -3.87076
Nuclear contribution   :     -6.07117      -0.87858       3.35606
                        -----------------------------------------
Total Dipole Moment    :     -1.04668      -1.67939      -0.51470
                        -----------------------------------------
Magnitude (a.u.)       :      2.04470
Magnitude (Debye)      :      5.19721



--------------------
Rotational spectrum 
--------------------
 
Rotational constants in cm-1:     0.006198     0.002245     0.001764 
Rotational constants in MHz :   185.804283    67.296755    52.886580 

 Dipole components along the rotational axes: 
x,y,z [a.u.] :     2.014798    -0.322039     0.132932 
x,y,z [Debye]:     5.121209    -0.818558     0.337885 

 

Timings for individual modules:

Sum of individual times         ...     1970.712 sec (=  32.845 min)
GTO integral calculation        ...      258.424 sec (=   4.307 min)  13.1 %
SCF iterations                  ...     1019.883 sec (=  16.998 min)  51.8 %
MP2 module                      ...      692.405 sec (=  11.540 min)  35.1 %
                             ****ORCA TERMINATED NORMALLY****
TOTAL RUN TIME: 0 days 0 hours 33 minutes 31 seconds 31 msec
