Job execution start: Thu Mar 10 21:58:43 GMT 2022
Shared library path: /work/e05/e05/atarzia/orca_4_2_1_linux_x86-64_openmpi314:/work/e05/e05/atarzia/openmpi-3.1.4/lib:/opt/cray/pe/papi/6.0.0.6/lib64:/opt/cray/libfabric/1.11.0.4.71/lib64
Slurm Job ID is: 1234927
Slurm Job name is: o_3_alde1_4_ami4_1_opt_MP2
nid004369

                                 *****************
                                 * O   R   C   A *
                                 *****************

           --- An Ab Initio, DFT and Semiempirical electronic structure package ---

                  #######################################################
                  #                        -***-                        #
                  #          Department of theory and spectroscopy      #
                  #               Directorship: Frank Neese             #
                  #        Max Planck Institute fuer Kohlenforschung    #
                  #                Kaiser Wilhelm Platz 1               #
                  #                 D-45470 Muelheim/Ruhr               #
                  #                      Germany                        #
                  #                                                     #
                  #                  All rights reserved                #
                  #                        -***-                        #
                  #######################################################


                         Program Version 4.2.1 -  RELEASE  -


 With contributions from (in alphabetic order):
   Daniel Aravena         : Magnetic Suceptibility
   Michael Atanasov       : Ab Initio Ligand Field Theory (pilot matlab implementation)
   Alexander A. Auer      : GIAO ZORA, VPT2
   Ute Becker             : Parallelization
   Giovanni Bistoni       : ED, misc. LED, open-shell LED, HFLD
   Martin Brehm           : Molecular dynamics
   Dmytro Bykov           : SCF Hessian
   Vijay G. Chilkuri      : MRCI spin determinant printing, contributions to CSF-ICE
   Dipayan Datta          : RHF DLPNO-CCSD density
   Achintya Kumar Dutta   : EOM-CC, STEOM-CC
   Dmitry Ganyushin       : Spin-Orbit,Spin-Spin,Magnetic field MRCI
   Miquel Garcia          : C-PCM Hessian, Gaussian charge scheme
   Yang Guo               : DLPNO-NEVPT2, CIM, IAO-localization
   Andreas Hansen         : Spin unrestricted coupled pair/coupled cluster methods
   Benjamin Helmich-Paris : CASSCF linear response (MC-RPA)
   Lee Huntington         : MR-EOM, pCC
   Robert Izsak           : Overlap fitted RIJCOSX, COSX-SCS-MP3, EOM
   Christian Kollmar      : KDIIS, OOCD, Brueckner-CCSD(T), CCSD density
   Simone Kossmann        : Meta GGA functionals, TD-DFT gradient, OOMP2, MP2 Hessian
   Martin Krupicka        : AUTO-CI
   Lucas Lang             : DCDCAS
   Dagmar Lenk            : GEPOL surface, SMD
   Dimitrios Liakos       : Extrapolation schemes; Compound Job, initial MDCI parallelization
   Dimitrios Manganas     : Further ROCIS development; embedding schemes
   Dimitrios Pantazis     : SARC Basis sets
   Taras Petrenko         : DFT Hessian,TD-DFT gradient, ASA, ECA, R-Raman, ABS, FL, XAS/XES, NRVS
   Peter Pinski           : DLPNO-MP2, DLPNO-MP2 Gradient
   Christoph Reimann      : Effective Core Potentials
   Marius Retegan         : Local ZFS, SOC
   Christoph Riplinger    : Optimizer, TS searches, QM/MM, DLPNO-CCSD(T), (RO)-DLPNO pert. Triples
   Tobias Risthaus        : Range-separated hybrids, TD-DFT gradient, RPA, STAB
   Michael Roemelt        : Original ROCIS implementation
   Masaaki Saitow         : Open-shell DLPNO-CCSD energy and density
   Barbara Sandhoefer     : DKH picture change effects
   Avijit Sen             : IP-ROCIS
   Kantharuban Sivalingam : CASSCF convergence, NEVPT2, FIC-MRCI
   Bernardo de Souza      : ESD, SOC TD-DFT
   Georgi Stoychev        : AutoAux, RI-MP2 NMR
   Willem Van den Heuvel  : Paramagnetic NMR
   Boris Wezisla          : Elementary symmetry handling
   Frank Wennmohs         : Technical directorship


 We gratefully acknowledge several colleagues who have allowed us to
 interface, adapt or use parts of their codes:
   Stefan Grimme, W. Hujo, H. Kruse,             : VdW corrections, initial TS optimization,
                  C. Bannwarth                     DFT functionals, gCP, sTDA/sTD-DF
   Ed Valeev, F. Pavosevic, A. Kumar             : LibInt (2-el integral package), F12 methods
   Garnet Chan, S. Sharma, J. Yang, R. Olivares  : DMRG
   Ulf Ekstrom                                   : XCFun DFT Library
   Mihaly Kallay                                 : mrcc  (arbitrary order and MRCC methods)
   Andreas Klamt, Michael Diedenhofen            : otool_cosmo (COSMO solvation model)
   Jiri Pittner, Ondrej Demel                    : Mk-CCSD
   Frank Weinhold                                : gennbo (NPA and NBO analysis)
   Christopher J. Cramer and Donald G. Truhlar   : smd solvation model
   Lars Goerigk                                  : TD-DFT with DH, B97 family of functionals
   V. Asgeirsson, H. Jonsson                     : NEB implementation
   FAccTs GmbH                                   : IRC, NEB, NEB-TS, Multilevel, MM, QM/MM, CI optimization
   S Lehtola, MJT Oliveira, MAL Marques          : LibXC Library


 Your calculation uses the libint2 library for the computation of 2-el integrals
 For citations please refer to: http://libint.valeyev.net

 Your ORCA version has been built with support for libXC version: 4.2.3
 For citations please refer to: https://tddft.org/programs/libxc/

 This ORCA versions uses:
   CBLAS   interface :  Fast vector & matrix operations
   LAPACKE interface :  Fast linear algebra routines
   SCALAPACK package :  Parallel linear algebra routines




***************************************
The coordinates will be read from file: _o_3_alde1_4_ami4_1_opt_B97-3c.xyz
***************************************


----- Orbital basis set information -----
Your calculation utilizes the basis: cc-pVTZ 
       H, B-Ne : Obtained from the ccRepo (grant-hill.group.shef.ac.uk/ccrepo) Feb. 2017
                 T. H. Dunning, Jr., J. Chem. Phys. 90, 1007 (1989)
            He : Obtained from the ccRepo (grant-hill.group.shef.ac.uk/ccrepo) Feb. 2017
                 D. E. Woon, T. H. Dunning, Jr., J. Chem. Phys. 100, 2975 (1994)
  Li-Be, Na-Mg : Obtained from the ccRepo (grant-hill.group.shef.ac.uk/ccrepo) Feb. 2017
                 B. P. Prascher, D. E. Woon, K. A. Peterson, T. H. Dunning, Jr., A. K. Wilson, Theor. Chem. Acc. 128, 69 (2011)
         Al-Ar : Obtained from the ccRepo (grant-hill.group.shef.ac.uk/ccrepo) Feb. 2017
                 D. E. Woon, T. H. Dunning, Jr., J. Chem. Phys. 98, 1358 (1993)
            Ca : Obtained from the Peterson Research Group Website (tyr0.chem.wsu.edu/~kipeters) Feb. 2017
                 J. Koput, K. A. Peterson, J. Phys. Chem. 106, 9595 (2002)
         Sc-Zn : Obtained from the ccRepo (grant-hill.group.shef.ac.uk/ccrepo) Feb. 2017
                 N. B. Balabanov, K. A. Peterson, J. Chem. Phys. 123, 064107 (2005)
                 N. B. Balabanov, K. A. Peterson, J. Chem. Phys. 125, 074110 (2006)
         Ga-Kr : Obtained from the ccRepo (grant-hill.group.shef.ac.uk/ccrepo) Feb. 2017
                 A. K. Wilson, D. E. Woon, K. A. Peterson, T. H. Dunning, Jr., J. Chem. Phys. 110, 7667 (1999)
             Y : Obtained from the ccRepo (grant-hill.group.shef.ac.uk/ccrepo) Feb. 2017
                 K. A. Peterson, D. Figgen, M. Dolg, H. Stoll, J. Chem. Phys. 126, 124101 (2007)
        Ag, Au : Obtained from the Peterson Research Group Website (tyr0.chem.wsu.edu/~kipeters) Feb. 2017
                 K. A. Peterson, C. Puzzarini, Theor. Chem. Acc. 114, 283 (2005)

----- AuxC basis set information -----
Your calculation utilizes the auxiliary basis: cc-pVTZ/C 
  Obtained from the EMSL Basis Set Exchange (bse.pnl.gov) Feb. 2017
  H-He, B-F, Al-Ar, Ga-Kr : F. Weigend, A. Kohn, C. Hattig, J. Chem. Phys. 116, 3175 (2002)
             Li-Be, Na-Mg : C. Haettig, Phys. Chem. Chem. Phys. 7, 59 (2005)
                       Ne : C. Haettig, Phys. Chem. Chem. Phys. 7, 59 (2005)
                            F. Weigend, A. Kohn, C. Hattig, J. Chem. Phys. 116, 3175 (2002)
                    Sc-Zn : J. G. Hill, J. A. Platts, J. Chem. Phys. 128, 044104 (2008)

================================================================================
                                        WARNINGS
                       Please study these warnings very carefully!
================================================================================


WARNING: No MP2 level density has been requested!
         To caclulate MP2 level properties use
         %mp2 Density relaxed end
         or
         %mp2 Density unrelaxed end

WARNING: Post HF methods need fully converged wavefunctions
  ===> : Setting SCFConvForced true
         You can overwrite this default with %scf ConvForced false 


INFO   : the flag for use of LIBINT has been found!

================================================================================
                                       INPUT FILE
================================================================================
NAME = o_3_alde1_4_ami4_1_opt_MP2.in
|  1> ! RI-MP2 cc-pVTZ cc-pVTZ/C TIGHTSCF printbasis Grid6 NOFINALGRID SlowConv
|  2> 
|  3> %base "_o_3_alde1_4_ami4_1_opt_MP2"
|  4> %maxcore 3000
|  5> %pal
|  6>    nprocs 32
|  7> end
|  8> 
|  9> * xyzfile 0 1 _o_3_alde1_4_ami4_1_opt_B97-3c.xyz
| 10> 
| 11>                          ****END OF INPUT****
================================================================================

                       ****************************
                       * Single Point Calculation *
                       ****************************

---------------------------------
CARTESIAN COORDINATES (ANGSTROEM)
---------------------------------
  C     -3.273916   -2.180556   -0.135145
  C     -3.385310   -1.888218    1.293729
  C     -2.576111   -3.299539   -0.564883
  C     -2.412282   -3.553430   -1.930518
  H     -2.153302   -3.997316    0.145908
  C     -2.892607   -2.635943   -2.856689
  C     -3.573524   -1.489987   -2.439089
  H     -2.737932   -2.791035   -3.916387
  C     -3.792084   -1.293432   -1.082990
  C     -4.007628   -0.450884   -3.370683
  H     -4.324807   -0.420333   -0.733131
  C     -1.712022   -4.741444   -2.409038
  H     -4.721122    0.271746   -2.954353
  H     -2.681533   -2.428205    1.943137
  H     -1.691076   -4.860377   -3.500684
  C      0.922643   -1.109828   -4.739860
  C     -0.014256   -0.793081   -5.828114
  C      1.813029   -0.145552   -4.263320
  C      2.659083   -0.429063   -3.201037
  H      1.819281    0.830789   -4.730886
  C      2.606497   -1.696645   -2.611406
  C      1.759686   -2.679157   -3.105174
  H      3.250115   -1.898245   -1.765037
  C      0.909915   -2.374314   -4.172046
  C      1.722556   -3.998110   -2.474442
  H      0.232347   -3.135267   -4.534965
  C      3.539728    0.621209   -2.696601
  H      2.120386   -4.049362   -1.451471
  H     -0.698425   -1.617764   -6.105598
  H      3.480593    1.574095   -3.238559
  C     -1.854756    1.934348    0.412438
  C     -2.937303    1.672528    1.356653
  C     -2.174519    2.109148   -0.926474
  C     -1.174898    2.222652   -1.896383
  H     -3.205818    2.096364   -1.251715
  C      0.152616    2.234285   -1.494531
  C      0.492470    2.088293   -0.145460
  H      0.947564    2.313525   -2.222903
  C     -0.510806    1.903767    0.794986
  C      1.893936    2.027697    0.265768
  H     -0.269382    1.725410    1.834594
  C     -1.505429    2.179109   -3.321196
  H      2.086387    1.512465    1.217974
  H     -0.656128    2.028122   -4.000510
  C     -3.938381    0.845993    3.262840
  C     -4.105971   -0.675798    3.149951
  N     -2.754103    1.250374    2.541478
  N     -4.197026   -1.030307    1.756786
  O     -0.071077    0.278983   -6.399394
  C     -0.381789   -6.627379   -2.278071
  C      1.100070   -6.234069   -2.303889
  N     -1.144508   -5.580470   -1.641063
  N      1.237133   -5.014220   -3.057108
  C     -3.992756    0.854056   -5.270726
  C     -2.936786    1.962333   -5.147012
  N     -3.565591   -0.331327   -4.556614
  N     -2.699706    2.227385   -3.748376
  C      4.968790    1.669700   -1.221897
  C      4.195410    2.247245   -0.030449
  N      4.298587    0.478716   -1.687920
  N      2.836657    2.498678   -0.440127
  H     -3.947881    1.813850    0.950907
  H     -3.353591    2.858319   -5.613324
  H     -2.029627    1.682577   -5.689534
  H     -4.944798    1.241156   -4.889005
  H     -4.115931    0.614709   -6.326337
  H     -0.706500   -6.818322   -3.307855
  H     -0.485391   -7.549904   -1.707155
  H      1.650155   -7.029234   -2.810690
  H      1.480798   -6.147705   -1.278353
  H      4.668423    3.192728    0.244566
  H      4.263263    1.567667    0.828545
  H      5.034538    2.441810   -1.997799
  H      5.978282    1.418131   -0.897440
  H     -5.039553   -0.943678    3.649294
  H     -3.281323   -1.182871    3.666626
  H     -3.833361    1.107525    4.315725
  H     -4.848096    1.321171    2.875775

----------------------------
CARTESIAN COORDINATES (A.U.)
----------------------------
  NO LB      ZA    FRAG     MASS         X           Y           Z
   0 C     6.0000    0    12.011   -6.186805   -4.120655   -0.255388
   1 C     6.0000    0    12.011   -6.397310   -3.568215    2.444793
   2 C     6.0000    0    12.011   -4.868145   -6.235225   -1.067474
   3 C     6.0000    0    12.011   -4.558553   -6.715010   -3.648150
   4 H     1.0000    0     1.008   -4.069150   -7.553833    0.275727
   5 C     6.0000    0    12.011   -5.466234   -4.981210   -5.398360
   6 C     6.0000    0    12.011   -6.752982   -2.815667   -4.609210
   7 H     1.0000    0     1.008   -5.173942   -5.274292   -7.400899
   8 C     6.0000    0    12.011   -7.165999   -2.444232   -2.046554
   9 C     6.0000    0    12.011   -7.573319   -0.852047   -6.369668
  10 H     1.0000    0     1.008   -8.172700   -0.794314   -1.385416
  11 C     6.0000    0    12.011   -3.235252   -8.960031   -4.552423
  12 H     1.0000    0     1.008   -8.921628    0.513525   -5.582918
  13 H     1.0000    0     1.008   -5.067363   -4.588642    3.671996
  14 H     1.0000    0     1.008   -3.195670   -9.184782   -6.615334
  15 C     6.0000    0    12.011    1.743542   -2.097271   -8.957037
  16 C     6.0000    0    12.011   -0.026939   -1.498706  -11.013538
  17 C     6.0000    0    12.011    3.426128   -0.275053   -8.056507
  18 C     6.0000    0    12.011    5.024939   -0.810811   -6.049082
  19 H     1.0000    0     1.008    3.437943    1.569964   -8.940078
  20 C     6.0000    0    12.011    4.925566   -3.206194   -4.934842
  21 C     6.0000    0    12.011    3.325324   -5.062872   -5.867928
  22 H     1.0000    0     1.008    6.141828   -3.587163   -3.335436
  23 C     6.0000    0    12.011    1.719490   -4.486803   -7.884024
  24 C     6.0000    0    12.011    3.255159   -7.555334   -4.676018
  25 H     1.0000    0     1.008    0.439072   -5.924796   -8.569843
  26 C     6.0000    0    12.011    6.689116    1.173914   -5.095837
  27 H     1.0000    0     1.008    4.006949   -7.652185   -2.742883
  28 H     1.0000    0     1.008   -1.319833   -3.057132  -11.537908
  29 H     1.0000    0     1.008    6.577367    2.974608   -6.119990
  30 C     6.0000    0    12.011   -3.504981    3.655388    0.779394
  31 C     6.0000    0    12.011   -5.550698    3.160621    2.563703
  32 C     6.0000    0    12.011   -4.109245    3.985713   -1.750782
  33 C     6.0000    0    12.011   -2.220236    4.200204   -3.583645
  34 H     1.0000    0     1.008   -6.058117    3.961553   -2.365398
  35 C     6.0000    0    12.011    0.288402    4.222186   -2.824254
  36 C     6.0000    0    12.011    0.930634    3.946302   -0.274879
  37 H     1.0000    0     1.008    1.790636    4.371929   -4.200678
  38 C     6.0000    0    12.011   -0.965283    3.597599    1.502306
  39 C     6.0000    0    12.011    3.579020    3.831793    0.502228
  40 H     1.0000    0     1.008   -0.509058    3.260552    3.466881
  41 C     6.0000    0    12.011   -2.844849    4.117919   -6.276151
  42 H     1.0000    0     1.008    3.942700    2.858144    2.301638
  43 H     1.0000    0     1.008   -1.239903    3.832596   -7.559868
  44 C     6.0000    0    12.011   -7.442461    1.598696    6.165875
  45 C     6.0000    0    12.011   -7.759161   -1.277072    5.952545
  46 N     7.0000    0    14.007   -5.204500    2.362864    4.802697
  47 N     7.0000    0    14.007   -7.931229   -1.946998    3.319844
  48 O     8.0000    0    15.999   -0.134316    0.527202  -12.093103
  49 C     6.0000    0    12.011   -0.721477  -12.523931   -4.304930
  50 C     6.0000    0    12.011    2.078830  -11.780683   -4.353719
  51 N     7.0000    0    14.007   -2.162807  -10.545559   -3.101159
  52 N     7.0000    0    14.007    2.337843   -9.475502   -5.777096
  53 C     6.0000    0    12.011   -7.545215    1.613932   -9.960228
  54 C     6.0000    0    12.011   -5.549722    3.708272   -9.726442
  55 N     7.0000    0    14.007   -6.737991   -0.626117   -8.610753
  56 N     7.0000    0    14.007   -5.101705    4.209148   -7.083404
  57 C     6.0000    0    12.011    9.389653    3.155275   -2.309050
  58 C     6.0000    0    12.011    7.928176    4.246677   -0.057541
  59 N     7.0000    0    14.007    8.123152    0.904642   -3.189707
  60 N     7.0000    0    14.007    5.360505    4.721818   -0.831719
  61 H     1.0000    0     1.008   -7.460415    3.427681    1.796954
  62 H     1.0000    0     1.008   -6.337368    5.401441  -10.607644
  63 H     1.0000    0     1.008   -3.835439    3.179609  -10.751661
  64 H     1.0000    0     1.008   -9.344314    2.345445   -9.238880
  65 H     1.0000    0     1.008   -7.777983    1.161631  -11.955044
  66 H     1.0000    0     1.008   -1.335091  -12.884762   -6.250939
  67 H     1.0000    0     1.008   -0.917257  -14.267252   -3.226056
  68 H     1.0000    0     1.008    3.118342  -13.283326   -5.311435
  69 H     1.0000    0     1.008    2.798302  -11.617478   -2.415737
  70 H     1.0000    0     1.008    8.822040    6.033381    0.462163
  71 H     1.0000    0     1.008    8.056400    2.962462    1.565723
  72 H     1.0000    0     1.008    9.513897    4.614353   -3.775293
  73 H     1.0000    0     1.008   11.297315    2.679879   -1.695916
  74 H     1.0000    0     1.008   -9.523375   -1.783293    6.896166
  75 H     1.0000    0     1.008   -6.200802   -2.235302    6.928918
  76 H     1.0000    0     1.008   -7.244002    2.092919    8.155538
  77 H     1.0000    0     1.008   -9.161574    2.496652    5.434427

--------------------------------
INTERNAL COORDINATES (ANGSTROEM)
--------------------------------
 C      0   0   0     0.000000000000     0.00000000     0.00000000
 C      1   0   0     1.462720723287     0.00000000     0.00000000
 C      1   2   0     1.386985074962   120.14709348     0.00000000
 C      3   1   2     1.398663638134   120.52394711   182.94851199
 H      3   1   2     1.082074433630   120.88453881     3.37204319
 C      4   3   1     1.389348084358   119.37427242     3.46936556
 C      6   4   3     1.396873182264   120.72950926   357.86181925
 H      6   4   3     1.082098380862   120.58115909   177.28039725
 C      7   6   4     1.387590082749   119.02269232   358.54027444
 C      7   6   4     1.461522906329   122.51299722   175.32840361
 H      9   7   6     1.080970620745   120.55357417   180.61066681
 C      4   3   1     1.459699837617   121.60162104   181.59254744
 H     10   7   6     1.097542183387   114.79724201   166.70510295
 H      2   1   3     1.099371966882   115.47524733    15.75460205
 H     12   4   3     1.098305367737   115.03141421   176.97368282
 C      8   6   4     4.111493049712   105.35481798   272.69096787
 C     16   8   6     1.470511005619    70.67355205   220.64703726
 C     16   8   6     1.396319012002   141.42210066   335.93532097
 C     18  16   8     1.387311093665   120.60254254    80.13714468
 H     18  16   8     1.082542683663   118.62750496   260.97228500
 C     19  18  16     1.398997214666   119.01004236   359.91626653
 C     21  19  18     1.387885617682   120.95806064     2.36100099
 H     21  19  18     1.082232575616   118.42711569   181.75269788
 C     16   8   6     1.386181894834    62.40475012    79.95544138
 C     22  21  19     1.462477472858   120.03322279   179.90167874
 H     24  16   8     1.081600017383   120.66948604    44.68779752
 C     19  18  16     1.460499856674   119.02772587   182.36223953
 H     25  22  21     1.098801593039   115.74625480    19.17736912
 H     17  16   8     1.106882083649   114.76202221   321.02314700
 H     27  19  18     1.097819344277   114.91003845   358.12525772
 C     11   9   7     3.599721713253   107.04819547   259.74599072
 C     31  11   9     1.460137025892    65.15068676   230.39566256
 C     31  11   9     1.387619634837    67.49348686    90.98894826
 C     33  31  11     1.397443492021   121.00350873   228.92712007
 H     33  31  11     1.081444602075   120.56094824    44.93221885
 C     34  33  31     1.387052276773   118.96115970   356.38159193
 C     36  34  33     1.398859406299   120.73395585     2.20244402
 H     36  34  33     1.081086175859   120.60928685   179.54069126
 C     37  36  34     1.387462061143   119.46517461     1.27084771
 C     37  36  34     1.461809438962   120.56727154   176.63716240
 H     39  37  36     1.082072982858   120.78418149   176.06149473
 C     34  33  31     1.463296950850   120.78458250   169.56983094
 H     40  37  36     1.099636255254   115.51892395   204.43404623
 H     42  34  33     1.097987609244   115.58119414   194.39707896
 C     32  31  11     2.306266535829   157.00869819   109.37886671
 C     45  32  31     1.535147647750   109.99118689   286.39139036
 N     32  31  11     1.271057102263   123.74415769   123.07016031
 N      2   1   3     1.268587775828   122.71491545   192.90730530
 O     17  16   8     1.216105447869   124.56240822   140.62493456
 C     12   4   3     2.311583881676   157.14692994   347.30437724
 C     50  12   4     1.533383643548   110.23709080   279.21943441
 N     12   4   3     1.271149592226   123.59528128   356.00947722
 N     25  22  21     1.267916312292   122.29524193   197.74202058
 C     10   7   6     2.305048906019   157.81942343   332.68371312
 C     54  10   7     1.535791081937   110.27756725   280.31840094
 N     10   7   6     1.271268134911   123.93218465   343.62000158
 N     42  34  33     1.269294865422   122.62219316    10.13195399
 C     27  19  18     2.305711685312   157.16592268   164.89012069
 C     58  27  19     1.533369651546   110.83277132   284.80285680
 N     27  19  18     1.270278918987   123.62848870   176.31373479
 N     40  37  36     1.268397654075   122.72493704    22.37615200
 H     32  31  11     1.098121421722   114.85249031   306.36983759
 H     55  54  10     1.092686622190   107.16210293   217.47778029
 H     55  54  10     1.093403906584   110.23375324    99.78901631
 H     54  10   7     1.096331324777    84.68012088   172.73808242
 H     54  10   7     1.089391966083   132.34744116    62.52025619
 H     50  12   4     1.096517203326    85.32240309   171.35803519
 H     50  12   4     1.089830916404   131.72764241    60.72247850
 H     51  50  12     1.091663399732   107.93567543   212.67277061
 H     51  50  12     1.097331441529   109.86174418    94.60691896
 H     59  58  27     1.092388487034   107.65119841   216.58551071
 H     59  58  27     1.097406476660   110.10713220    98.85477214
 H     58  27  19     1.096586444427    84.53687180   177.22574970
 H     58  27  19     1.089785271571   131.26752724    67.31090980
 H     46  45  32     1.092098225318   107.62921245   215.03280601
 H     46  45  32     1.097323593551   109.96301824    97.27507787
 H     45  32  31     1.089951469360   132.11330755    68.30289190
 H     45  32  31     1.096903094713    85.01383041   178.78157510

---------------------------
INTERNAL COORDINATES (A.U.)
---------------------------
 C      0   0   0     0.000000000000     0.00000000     0.00000000
 C      1   0   0     2.764141577424     0.00000000     0.00000000
 C      1   2   0     2.621021943514   120.14709348     0.00000000
 C      3   1   2     2.643091229547   120.52394711   182.94851199
 H      3   1   2     2.044824336079   120.88453881     3.37204319
 C      4   3   1     2.625487384125   119.37427242     3.46936556
 C      6   4   3     2.639707758298   120.72950926   357.86181925
 H      6   4   3     2.044869589789   120.58115909   177.28039725
 C      7   6   4     2.622165242542   119.02269232   358.54027444
 C      7   6   4     2.761878031414   122.51299722   175.32840361
 H      9   7   6     2.042738432022   120.55357417   180.61066681
 C      4   3   1     2.758432930826   121.60162104   181.59254744
 H     10   7   6     2.074054147028   114.79724201   166.70510295
 H      2   1   3     2.077511936717   115.47524733    15.75460205
 H     12   4   3     2.075496356438   115.03141421   176.97368282
 C      8   6   4     7.769595865477   105.35481798   272.69096787
 C     16   8   6     2.778863077537    70.67355205   220.64703726
 C     16   8   6     2.638660528271   141.42210066   335.93532097
 C     18  16   8     2.621638029577   120.60254254    80.13714468
 H     18  16   8     2.045709200403   118.62750496   260.97228500
 C     19  18  16     2.643721597837   119.01004236   359.91626653
 C     21  19  18     2.622723722627   120.95806064     2.36100099
 H     21  19  18     2.045123181123   118.42711569   181.75269788
 C     16   8   6     2.619504153036    62.40475012    79.95544138
 C     22  21  19     2.763681900731   120.03322279   179.90167874
 H     24  16   8     2.043927819298   120.66948604    44.68779752
 C     19  18  16     2.759944747746   119.02772587   182.36223953
 H     25  22  21     2.076434086360   115.74625480    19.17736912
 H     17  16   8     2.091704000641   114.76202221   321.02314700
 H     27  19  18     2.074577905204   114.91003845   358.12525772
 C     11   9   7     6.802488196379   107.04819547   259.74599072
 C     31  11   9     2.759259096933    65.15068676   230.39566256
 C     31  11   9     2.622221087894    67.49348686    90.98894826
 C     33  31  11     2.640785487551   121.00350873   228.92712007
 H     33  31  11     2.043634126930   120.56094824    44.93221885
 C     34  33  31     2.621148936533   118.96115970   356.38159193
 C     36  34  33     2.643461177765   120.73395585     2.20244402
 H     36  34  33     2.042956799541   120.60928685   179.54069126
 C     37  36  34     2.621923316766   119.46517461     1.27084771
 C     37  36  34     2.762419499618   120.56727154   176.63716240
 H     39  37  36     2.044821594516   120.78418149   176.06149473
 C     34  33  31     2.765230489709   120.78458250   169.56983094
 H     40  37  36     2.078011369360   115.51892395   204.43404623
 H     42  34  33     2.074895879910   115.58119414   194.39707896
 C     32  31  11     4.358212144544   157.00869819   109.37886671
 C     45  32  31     2.901008629380   109.99118689   286.39139036
 N     32  31  11     2.401949823853   123.74415769   123.07016031
 N      2   1   3     2.397283473156   122.71491545   192.90730530
 O     17  16   8     2.298106246443   124.56240822   140.62493456
 C     12   4   3     4.368260471955   157.14692994   347.30437724
 C     50  12   4     2.897675144541   110.23709080   279.21943441
 N     12   4   3     2.402124604553   123.59528128   356.00947722
 N     25  22  21     2.396014590963   122.29524193   197.74202058
 C     10   7   6     4.355911157671   157.81942343   332.68371312
 C     54  10   7     2.902224543779   110.27756725   280.31840094
 N     10   7   6     2.402348617762   123.93218465   343.62000158
 N     42  34  33     2.398619678839   122.62219316    10.13195399
 C     27  19  18     4.357163629021   157.16592268   164.89012069
 C     58  27  19     2.897648703488   110.83277132   284.80285680
 N     27  19  18     2.400479270580   123.62848870   176.31373479
 N     40  37  36     2.396924195109   122.72493704    22.37615200
 H     32  31  11     2.075148748848   114.85249031   306.36983759
 H     55  54  10     2.064878466139   107.16210293   217.47778029
 H     55  54  10     2.066233937203   110.23375324    99.78901631
 H     54  10   7     2.071765955868    84.68012088   172.73808242
 H     54  10   7     2.058652468392   132.34744116    62.52025619
 H     50  12   4     2.072117215419    85.32240309   171.35803519
 H     50  12   4     2.059481964285   131.72764241    60.72247850
 H     51  50  12     2.062944855919   107.93567543   212.67277061
 H     51  50  12     2.073655902631   109.86174418    94.60691896
 H     59  58  27     2.064315072342   107.65119841   216.58551071
 H     59  58  27     2.073797698479   110.10713220    98.85477214
 H     58  27  19     2.072248062137    84.53687180   177.22574970
 H     58  27  19     2.059395708049   131.26752724    67.31090980
 H     46  45  32     2.063766557193   107.62921245   215.03280601
 H     46  45  32     2.073641072102   109.96301824    97.27507787
 H     45  32  31     2.059709776355   132.11330755    68.30289190
 H     45  32  31     2.072846444458    85.01383041   178.78157510

---------------------
BASIS SET INFORMATION
---------------------
There are 4 groups of distinct atoms

 Group   1 Type C   : 18s5p2d1f contracted to 4s3p2d1f pattern {8811/311/11/1}
 Group   2 Type H   : 5s2p1d contracted to 3s2p1d pattern {311/11/1}
 Group   3 Type N   : 18s5p2d1f contracted to 4s3p2d1f pattern {8811/311/11/1}
 Group   4 Type O   : 18s5p2d1f contracted to 4s3p2d1f pattern {8811/311/11/1}

Atom   0C    basis set group =>   1
Atom   1C    basis set group =>   1
Atom   2C    basis set group =>   1
Atom   3C    basis set group =>   1
Atom   4H    basis set group =>   2
Atom   5C    basis set group =>   1
Atom   6C    basis set group =>   1
Atom   7H    basis set group =>   2
Atom   8C    basis set group =>   1
Atom   9C    basis set group =>   1
Atom  10H    basis set group =>   2
Atom  11C    basis set group =>   1
Atom  12H    basis set group =>   2
Atom  13H    basis set group =>   2
Atom  14H    basis set group =>   2
Atom  15C    basis set group =>   1
Atom  16C    basis set group =>   1
Atom  17C    basis set group =>   1
Atom  18C    basis set group =>   1
Atom  19H    basis set group =>   2
Atom  20C    basis set group =>   1
Atom  21C    basis set group =>   1
Atom  22H    basis set group =>   2
Atom  23C    basis set group =>   1
Atom  24C    basis set group =>   1
Atom  25H    basis set group =>   2
Atom  26C    basis set group =>   1
Atom  27H    basis set group =>   2
Atom  28H    basis set group =>   2
Atom  29H    basis set group =>   2
Atom  30C    basis set group =>   1
Atom  31C    basis set group =>   1
Atom  32C    basis set group =>   1
Atom  33C    basis set group =>   1
Atom  34H    basis set group =>   2
Atom  35C    basis set group =>   1
Atom  36C    basis set group =>   1
Atom  37H    basis set group =>   2
Atom  38C    basis set group =>   1
Atom  39C    basis set group =>   1
Atom  40H    basis set group =>   2
Atom  41C    basis set group =>   1
Atom  42H    basis set group =>   2
Atom  43H    basis set group =>   2
Atom  44C    basis set group =>   1
Atom  45C    basis set group =>   1
Atom  46N    basis set group =>   3
Atom  47N    basis set group =>   3
Atom  48O    basis set group =>   4
Atom  49C    basis set group =>   1
Atom  50C    basis set group =>   1
Atom  51N    basis set group =>   3
Atom  52N    basis set group =>   3
Atom  53C    basis set group =>   1
Atom  54C    basis set group =>   1
Atom  55N    basis set group =>   3
Atom  56N    basis set group =>   3
Atom  57C    basis set group =>   1
Atom  58C    basis set group =>   1
Atom  59N    basis set group =>   3
Atom  60N    basis set group =>   3
Atom  61H    basis set group =>   2
Atom  62H    basis set group =>   2
Atom  63H    basis set group =>   2
Atom  64H    basis set group =>   2
Atom  65H    basis set group =>   2
Atom  66H    basis set group =>   2
Atom  67H    basis set group =>   2
Atom  68H    basis set group =>   2
Atom  69H    basis set group =>   2
Atom  70H    basis set group =>   2
Atom  71H    basis set group =>   2
Atom  72H    basis set group =>   2
Atom  73H    basis set group =>   2
Atom  74H    basis set group =>   2
Atom  75H    basis set group =>   2
Atom  76H    basis set group =>   2
Atom  77H    basis set group =>   2

-------------------------
BASIS SET IN INPUT FORMAT
-------------------------

 # Basis set for element : H 
 NewGTO H 
 S 3 
   1      33.8700000000      0.0254948632
   2       5.0950000000      0.1903627659
   3       1.1590000000      0.8521620222
 S 1 
   1       0.3258000000      1.0000000000
 S 1 
   1       0.1027000000      1.0000000000
 P 1 
   1       1.4070000000      1.0000000000
 P 1 
   1       0.3880000000      1.0000000000
 D 1 
   1       1.0570000000      1.0000000000
  end;

 # Basis set for element : C 
 NewGTO C 
 S 8 
   1    8236.0000000000      0.0005424302
   2    1235.0000000000      0.0041964279
   3     280.8000000000      0.0215409141
   4      79.2700000000      0.0836149496
   5      25.5900000000      0.2398716189
   6       8.9970000000      0.4437518201
   7       3.3190000000      0.3535796965
   8       0.3643000000     -0.0091763661
 S 8 
   1    8236.0000000000     -0.0001963922
   2    1235.0000000000     -0.0015259503
   3     280.8000000000     -0.0078904490
   4      79.2700000000     -0.0315148705
   5      25.5900000000     -0.0969100083
   6       8.9970000000     -0.2205415263
   7       3.3190000000     -0.2960691129
   8       0.3643000000      1.0405034329
 S 1 
   1       0.9059000000      1.0000000000
 S 1 
   1       0.1285000000      1.0000000000
 P 3 
   1      18.7100000000      0.0394263872
   2       4.1330000000      0.2440889849
   3       1.2000000000      0.8154920089
 P 1 
   1       0.3827000000      1.0000000000
 P 1 
   1       0.1209000000      1.0000000000
 D 1 
   1       1.0970000000      1.0000000000
 D 1 
   1       0.3180000000      1.0000000000
 F 1 
   1       0.7610000000      1.0000000000
  end;

 # Basis set for element : N 
 NewGTO N 
 S 8 
   1   11420.0000000000      0.0005349809
   2    1712.0000000000      0.0041376631
   3     389.3000000000      0.0212509149
   4     110.0000000000      0.0825762988
   5      35.5700000000      0.2384132727
   6      12.5400000000      0.4434316661
   7       4.6440000000      0.3554319088
   8       0.5118000000     -0.0087029018
 S 8 
   1   11420.0000000000     -0.0001987770
   2    1712.0000000000     -0.0015470035
   3     389.3000000000     -0.0079925633
   4     110.0000000000     -0.0320255651
   5      35.5700000000     -0.0991102048
   6      12.5400000000     -0.2282927747
   7       4.6440000000     -0.2981827627
   8       0.5118000000      1.0370005182
 S 1 
   1       1.2930000000      1.0000000000
 S 1 
   1       0.1787000000      1.0000000000
 P 3 
   1      26.6300000000      0.0398072123
   2       5.9480000000      0.2490026605
   3       1.7420000000      0.8104797267
 P 1 
   1       0.5550000000      1.0000000000
 P 1 
   1       0.1725000000      1.0000000000
 D 1 
   1       1.6540000000      1.0000000000
 D 1 
   1       0.4690000000      1.0000000000
 F 1 
   1       1.0930000000      1.0000000000
  end;

 # Basis set for element : O 
 NewGTO O 
 S 8 
   1   15330.0000000000      0.0005201983
   2    2299.0000000000      0.0040233448
   3     522.4000000000      0.0207290833
   4     147.3000000000      0.0810823271
   5      47.5500000000      0.2362263521
   6      16.7600000000      0.4435182094
   7       6.2070000000      0.3586705887
   8       0.6882000000     -0.0083497972
 S 8 
   1   15330.0000000000     -0.0001972360
   2    2299.0000000000     -0.0015350107
   3     522.4000000000     -0.0079511839
   4     147.3000000000     -0.0321134529
   5      47.5500000000     -0.1002696430
   6      16.7600000000     -0.2340471118
   7       6.2070000000     -0.3014109278
   8       0.6882000000      1.0349196495
 S 1 
   1       1.7520000000      1.0000000000
 S 1 
   1       0.2384000000      1.0000000000
 P 3 
   1      34.4600000000      0.0411634896
   2       7.7490000000      0.2577628359
   3       2.2800000000      0.8024192744
 P 1 
   1       0.7156000000      1.0000000000
 P 1 
   1       0.2140000000      1.0000000000
 D 1 
   1       2.3140000000      1.0000000000
 D 1 
   1       0.6450000000      1.0000000000
 F 1 
   1       1.4280000000      1.0000000000
  end;

---------------------------------
AUXILIARY/C BASIS SET INFORMATION
---------------------------------
There are 4 groups of distinct atoms

 Group   1 Type C   : 8s6p5d3f1g contracted to 8s6p5d3f1g pattern {11111111/111111/11111/111/1}
 Group   2 Type H   : 4s3p2d1f contracted to 4s3p2d1f pattern {1111/111/11/1}
 Group   3 Type N   : 8s6p5d3f1g contracted to 8s6p5d3f1g pattern {11111111/111111/11111/111/1}
 Group   4 Type O   : 8s6p5d3f1g contracted to 8s6p5d3f1g pattern {11111111/111111/11111/111/1}

Atom   0C    basis set group =>   1
Atom   1C    basis set group =>   1
Atom   2C    basis set group =>   1
Atom   3C    basis set group =>   1
Atom   4H    basis set group =>   2
Atom   5C    basis set group =>   1
Atom   6C    basis set group =>   1
Atom   7H    basis set group =>   2
Atom   8C    basis set group =>   1
Atom   9C    basis set group =>   1
Atom  10H    basis set group =>   2
Atom  11C    basis set group =>   1
Atom  12H    basis set group =>   2
Atom  13H    basis set group =>   2
Atom  14H    basis set group =>   2
Atom  15C    basis set group =>   1
Atom  16C    basis set group =>   1
Atom  17C    basis set group =>   1
Atom  18C    basis set group =>   1
Atom  19H    basis set group =>   2
Atom  20C    basis set group =>   1
Atom  21C    basis set group =>   1
Atom  22H    basis set group =>   2
Atom  23C    basis set group =>   1
Atom  24C    basis set group =>   1
Atom  25H    basis set group =>   2
Atom  26C    basis set group =>   1
Atom  27H    basis set group =>   2
Atom  28H    basis set group =>   2
Atom  29H    basis set group =>   2
Atom  30C    basis set group =>   1
Atom  31C    basis set group =>   1
Atom  32C    basis set group =>   1
Atom  33C    basis set group =>   1
Atom  34H    basis set group =>   2
Atom  35C    basis set group =>   1
Atom  36C    basis set group =>   1
Atom  37H    basis set group =>   2
Atom  38C    basis set group =>   1
Atom  39C    basis set group =>   1
Atom  40H    basis set group =>   2
Atom  41C    basis set group =>   1
Atom  42H    basis set group =>   2
Atom  43H    basis set group =>   2
Atom  44C    basis set group =>   1
Atom  45C    basis set group =>   1
Atom  46N    basis set group =>   3
Atom  47N    basis set group =>   3
Atom  48O    basis set group =>   4
Atom  49C    basis set group =>   1
Atom  50C    basis set group =>   1
Atom  51N    basis set group =>   3
Atom  52N    basis set group =>   3
Atom  53C    basis set group =>   1
Atom  54C    basis set group =>   1
Atom  55N    basis set group =>   3
Atom  56N    basis set group =>   3
Atom  57C    basis set group =>   1
Atom  58C    basis set group =>   1
Atom  59N    basis set group =>   3
Atom  60N    basis set group =>   3
Atom  61H    basis set group =>   2
Atom  62H    basis set group =>   2
Atom  63H    basis set group =>   2
Atom  64H    basis set group =>   2
Atom  65H    basis set group =>   2
Atom  66H    basis set group =>   2
Atom  67H    basis set group =>   2
Atom  68H    basis set group =>   2
Atom  69H    basis set group =>   2
Atom  70H    basis set group =>   2
Atom  71H    basis set group =>   2
Atom  72H    basis set group =>   2
Atom  73H    basis set group =>   2
Atom  74H    basis set group =>   2
Atom  75H    basis set group =>   2
Atom  76H    basis set group =>   2
Atom  77H    basis set group =>   2

-------------------------------------
AUXILIARY/C BASIS SET IN INPUT FORMAT
-------------------------------------

 # Auxiliary/C basis set for element : H 
 NewAuxCGTO H 
 S 1 
   1       8.5128275910      1.0000000000
 S 1 
   1       1.8730891166      1.0000000000
 S 1 
   1       0.5261842694      1.0000000000
 S 1 
   1       0.2897398994      1.0000000000
 P 1 
   1       2.3725491635      1.0000000000
 P 1 
   1       1.1804084468      1.0000000000
 P 1 
   1       0.6038220424      1.0000000000
 D 1 
   1       1.8096373189      1.0000000000
 D 1 
   1       1.1439726055      1.0000000000
 F 1 
   1       1.8063060576      1.0000000000
  end;

 # Auxiliary/C basis set for element : C 
 NewAuxCGTO C 
 S 1 
   1     280.5566118800      1.0000000000
 S 1 
   1      60.2302471910      1.0000000000
 S 1 
   1      22.1166508240      1.0000000000
 S 1 
   1       6.8620932896      1.0000000000
 S 1 
   1       1.5622549539      1.0000000000
 S 1 
   1       0.9124504549      1.0000000000
 S 1 
   1       0.5027491704      1.0000000000
 S 1 
   1       0.2158234875      1.0000000000
 P 1 
   1      24.2318651760      1.0000000000
 P 1 
   1       6.4764514185      1.0000000000
 P 1 
   1       2.1290884677      1.0000000000
 P 1 
   1       1.0375639746      1.0000000000
 P 1 
   1       0.5494127505      1.0000000000
 P 1 
   1       0.2815265223      1.0000000000
 D 1 
   1       9.7189810815      1.0000000000
 D 1 
   1       3.0351475003      1.0000000000
 D 1 
   1       1.4677737562      1.0000000000
 D 1 
   1       0.5737082791      1.0000000000
 D 1 
   1       0.2905558967      1.0000000000
 F 1 
   1       2.2756201303      1.0000000000
 F 1 
   1       1.1968898852      1.0000000000
 F 1 
   1       0.5415748722      1.0000000000
 G 1 
   1       1.2166101638      1.0000000000
  end;

 # Auxiliary/C basis set for element : N 
 NewAuxCGTO N 
 S 1 
   1     287.5092694700      1.0000000000
 S 1 
   1      64.2760308980      1.0000000000
 S 1 
   1      21.6819240160      1.0000000000
 S 1 
   1       7.9068743193      1.0000000000
 S 1 
   1       2.4319673913      1.0000000000
 S 1 
   1       1.2226681474      1.0000000000
 S 1 
   1       0.7667482736      1.0000000000
 S 1 
   1       0.3115884699      1.0000000000
 P 1 
   1      34.9650273710      1.0000000000
 P 1 
   1      10.3238966480      1.0000000000
 P 1 
   1       2.8981582643      1.0000000000
 P 1 
   1       1.4077404555      1.0000000000
 P 1 
   1       0.8508338654      1.0000000000
 P 1 
   1       0.3735327414      1.0000000000
 D 1 
   1      13.9086370890      1.0000000000
 D 1 
   1       4.5847232531      1.0000000000
 D 1 
   1       2.2101848651      1.0000000000
 D 1 
   1       0.8376830121      1.0000000000
 D 1 
   1       0.4194837561      1.0000000000
 F 1 
   1       3.4730665788      1.0000000000
 F 1 
   1       1.5589463548      1.0000000000
 F 1 
   1       0.8467763824      1.0000000000
 G 1 
   1       1.7764066281      1.0000000000
  end;

 # Auxiliary/C basis set for element : O 
 NewAuxCGTO O 
 S 1 
   1     366.5453150300      1.0000000000
 S 1 
   1      76.6933148580      1.0000000000
 S 1 
   1      24.5738350910      1.0000000000
 S 1 
   1       8.4165585072      1.0000000000
 S 1 
   1       3.0202080356      1.0000000000
 S 1 
   1       1.3331563617      1.0000000000
 S 1 
   1       0.8125065873      1.0000000000
 S 1 
   1       0.3650525366      1.0000000000
 P 1 
   1      52.8543864230      1.0000000000
 P 1 
   1      15.0217958240      1.0000000000
 P 1 
   1       3.9137719482      1.0000000000
 P 1 
   1       2.1678840611      1.0000000000
 P 1 
   1       0.9741924398      1.0000000000
 P 1 
   1       0.5184561541      1.0000000000
 D 1 
   1      15.9077331320      1.0000000000
 D 1 
   1       5.3799329215      1.0000000000
 D 1 
   1       2.9552623921      1.0000000000
 D 1 
   1       1.1624458997      1.0000000000
 D 1 
   1       0.5035339942      1.0000000000
 F 1 
   1       4.6873846701      1.0000000000
 F 1 
   1       2.1512789489      1.0000000000
 F 1 
   1       1.0894068169      1.0000000000
 G 1 
   1       2.3270964878      1.0000000000
  end;



           ************************************************************
           *        Program running with 32 parallel MPI-processes    *
           *              working on a common directory               *
           ************************************************************
------------------------------------------------------------------------------
                           ORCA GTO INTEGRAL CALCULATION
------------------------------------------------------------------------------

                         BASIS SET STATISTICS AND STARTUP INFO

 # of primitive gaussian shells          ... 1416
 # of primitive gaussian functions       ... 2744
 # of contracted shells                  ...  644
 # of contracted basis functions         ... 1796
 Highest angular momentum                ...    3
 Maximum contraction depth               ...    8
 Integral package used                   ... LIBINT
 Integral threshhold            Thresh   ...  2.500e-11
 Primitive cut-off              TCut     ...  2.500e-12


------------------------------ INTEGRAL EVALUATION ----------------------------


 * One electron integrals 
 Pre-screening matrix                    ... done
 Shell pair data                         ... done (   0.042 sec)



           ************************************************************
           *        Program running with 32 parallel MPI-processes    *
           *              working on a common directory               *
           ************************************************************
-------------------------------------------------------------------------------
                                 ORCA SCF
-------------------------------------------------------------------------------

------------
SCF SETTINGS
------------
Hamiltonian:
 Ab initio Hamiltonian  Method          .... Hartree-Fock(GTOs)


General Settings:
 Integral files         IntName         .... _o_3_alde1_4_ami4_1_opt_MP2
 Hartree-Fock type      HFTyp           .... RHF
 Total Charge           Charge          ....    0
 Multiplicity           Mult            ....    1
 Number of Electrons    NEL             ....  308
 Basis Dimension        Dim             .... 1796
 Nuclear Repulsion      ENuc            ....   5218.9758364166 Eh

Convergence Acceleration:
 DIIS                   CNVDIIS         .... on
   Start iteration      DIISMaxIt       ....     0
   Startup error        DIISStart       ....  0.200000
   # of expansion vecs  DIISMaxEq       ....     5
   Bias factor          DIISBfac        ....   1.050
   Max. coefficient     DIISMaxC        ....  10.000
 Newton-Raphson         CNVNR           .... off
 SOSCF                  CNVSOSCF        .... on
   Start iteration      SOSCFMaxIt      ....   150
   Startup grad/error   SOSCFStart      ....  0.001000
 Level Shifting         CNVShift        .... on
   Level shift para.    LevelShift      ....    0.2500
   Turn off err/grad.   ShiftErr        ....    0.0000
 Zerner damping         CNVZerner       .... off
 Static damping         CNVDamp         .... on
   Fraction old density DampFac         ....    0.8500
   Max. Damping (<1)    DampMax         ....    0.9800
   Min. Damping (>=0)   DampMin         ....    0.0000
   Turn off err/grad.   DampErr         ....    0.0300
 Fernandez-Rico         CNVRico         .... off

SCF Procedure:
 Maximum # iterations   MaxIter         ....   125
 SCF integral mode      SCFMode         .... Direct
   Integral package                     .... LIBINT
 Reset frequency        DirectResetFreq ....    20
 Integral Threshold     Thresh          ....  2.500e-11 Eh
 Primitive CutOff       TCut            ....  2.500e-12 Eh

Convergence Tolerance:
 Convergence Check Mode ConvCheckMode   .... Total+1el-Energy
 Convergence forced     ConvForced      .... 1
 Energy Change          TolE            ....  1.000e-08 Eh
 1-El. energy change                    ....  1.000e-05 Eh
 Orbital Gradient       TolG            ....  1.000e-05
 Orbital Rotation angle TolX            ....  1.000e-05
 DIIS Error             TolErr          ....  5.000e-07


Diagonalization of the overlap matrix:
Smallest eigenvalue                        ... 2.073e-05
Time for diagonalization                   ...    3.656 sec
Threshold for overlap eigenvalues          ... 1.000e-08
Number of eigenvalues below threshold      ... 0
Time for construction of square roots      ...    0.368 sec
Total time needed                          ...    4.031 sec

-------------------
DFT GRID GENERATION
-------------------

General Integration Accuracy     IntAcc      ...  5.340
Radial Grid Type                 RadialGrid  ... Gauss-Chebyshev
Angular Grid (max. acc.)         AngularGrid ... Lebedev-590
Angular grid pruning method      GridPruning ... 3 (G Style)
Weight generation scheme         WeightScheme... Becke
Basis function cutoff            BFCut       ...    1.0000e-11
Integration weight cutoff        WCut        ...    1.0000e-14
Grids for H and He will be reduced by one unit

# of grid points (after initial pruning)     ... 1099208 (   0.0 sec)
# of grid points (after weights+screening)   ... 916772 (   1.4 sec)
nearest neighbour list constructed           ...    0.0 sec
Grid point re-assignment to atoms done       ...    0.1 sec
Grid point division into batches done        ...    9.2 sec
Reduced shell lists constructed in   10.0 sec

Total number of grid points                  ...   916772
Total number of batches                      ...    14363
Average number of points per batch           ...       63
Average number of grid points per atom       ...    11753
Average number of shells per batch           ...   210.05 (32.62%)
Average number of basis functions per batch  ...   504.97 (28.12%)
Average number of large shells per batch     ...   113.20 (53.89%)
Average number of large basis fcns per batch ...   287.64 (56.96%)
Maximum spatial batch extension              ...  16.40, 10.65,  9.40 au
Average spatial batch extension              ...   0.04,  0.03,  0.03 au

Time for grid setup =   12.341 sec

------------------------------
INITIAL GUESS: MODEL POTENTIAL
------------------------------
Loading Hartree-Fock densities                     ... done
Calculating cut-offs                               ... done
Setting up the integral package                    ... done
Initializing the effective Hamiltonian             ... done
Starting the Coulomb interaction                   ... done (   0.6 sec)
Reading the grid                                   ... done
Mapping shells                                     ... done
Starting the XC term evaluation                    ... done (   0.6 sec)
Transforming the Hamiltonian                       ... done (   0.3 sec)
Diagonalizing the Hamiltonian                      ... done (   0.4 sec)
Back transforming the eigenvectors                 ... done (   0.1 sec)
Now organizing SCF variables                       ... done
                      ------------------
                      INITIAL GUESS DONE (  15.6 sec)
                      ------------------
--------------
SCF ITERATIONS
--------------
ITER       Energy         Delta-E        Max-DP      RMS-DP      [F,P]     Damp
               ***  Starting incremental Fock matrix formation  ***
  0  -1854.4800895282   0.000000000000 0.03909573  0.00020703  0.2815468 0.8500
  1  -1854.7659978133  -0.285908285148 0.04741053  0.00023437  0.2238267 0.8500
                               ***Turning on DIIS***
  2  -1854.9967074487  -0.230709635399 0.03920766  0.00019914  0.1723445 0.8500
  3  -1860.6440692901  -5.647361841413 0.02346943  0.00013536  0.1322559 0.8500
  4  -1863.2901308272  -2.646061537060 0.01287086  0.00009453  0.1108249 0.8500
  5  -1863.3484305652  -0.058299738003 0.00754422  0.00007389  0.0948834 0.8500
  6  -1862.6527560907   0.695674474469 0.00599306  0.00006152  0.0808884 0.8500
  7  -1861.4717528042   1.181003286524 0.00511167  0.00005287  0.0688555 0.8500
  8  -1860.5165089215   0.955243882712 0.00435172  0.00004543  0.0586890 0.8500
  9  -1859.7969291345   0.719579786951 0.00370227  0.00003879  0.0500318 0.8500
 10  -1859.2286657085   0.568263426018 0.00314946  0.00003306  0.0426282 0.8500
 11  -1858.7587743616   0.469891346881 0.00267951  0.00002820  0.0363065 0.8500
 12  -1858.3591534902   0.399620871435 0.00227999  0.00002410  0.0309216 0.8500
 13  -1858.0176938797   0.341459610507 0.01293392  0.00013737  0.0263406 0.0000
                      *** Initiating the SOSCF procedure ***
                           *** Shutting down DIIS ***
                      *** Re-Reading the Fockian *** 
                      *** Removing any level shift *** 
ITER      Energy       Delta-E        Grad      Rot      Max-DP    RMS-DP
 14  -1856.14387570   1.8738181802  0.000291  0.000291  0.002682  0.000010
               *** Restarting incremental Fock matrix formation ***
 15  -1856.13750897   0.0063667285  0.000236  0.000585  0.001593  0.000006
 16  -1856.13752220  -0.0000132263  0.000110  0.000625  0.002480  0.000009
 17  -1856.13752645  -0.0000042516  0.000058  0.000097  0.000301  0.000001
 18  -1856.13752700  -0.0000005516  0.000022  0.000083  0.000050  0.000001
 19  -1856.13752708  -0.0000000763  0.000011  0.000075  0.000054  0.000000
 20  -1856.13752703   0.0000000431  0.000004  0.000012  0.000022  0.000000
                  ***Gradient check signals convergence***
              ***Rediagonalizing the Fockian in SOSCF/NRSCF***

               *****************************************************
               *                     SUCCESS                       *
               *           SCF CONVERGED AFTER  21 CYCLES          *
               *****************************************************


----------------
TOTAL SCF ENERGY
----------------

Total Energy       :        -1856.13752704 Eh          -50508.06989 eV

Components:
Nuclear Repulsion  :         5218.97583642 Eh          142015.55244 eV
Electronic Energy  :        -7075.11336346 Eh         -192523.62233 eV
One Electron Energy:       -12916.33881626 Eh         -351471.44765 eV
Two Electron Energy:         5841.22545280 Eh          158947.82532 eV

Virial components:
Potential Energy   :        -3710.29390349 Eh         -100962.22993 eV
Kinetic Energy     :         1854.15637644 Eh           50454.16004 eV
Virial Ratio       :            2.00106849


---------------
SCF CONVERGENCE
---------------

  Last Energy change         ...   -1.0712e-08  Tolerance :   1.0000e-08
  Last MAX-Density change    ...    6.1865e-06  Tolerance :   1.0000e-07
  Last RMS-Density change    ...    5.5260e-08  Tolerance :   5.0000e-09
  Last Orbital Gradient      ...    1.9942e-06  Tolerance :   1.0000e-05
  Last Orbital Rotation      ...    5.4149e-06  Tolerance :   1.0000e-05

             **** THE GBW FILE WAS UPDATED (_o_3_alde1_4_ami4_1_opt_MP2.gbw) ****
             **** DENSITY FILE WAS UPDATED (_o_3_alde1_4_ami4_1_opt_MP2.scfp) ****
             **** ENERGY FILE WAS UPDATED (_o_3_alde1_4_ami4_1_opt_MP2.en.tmp) ****
             **** THE GBW FILE WAS UPDATED (_o_3_alde1_4_ami4_1_opt_MP2.gbw) ****
             **** DENSITY FILE WAS UPDATED (_o_3_alde1_4_ami4_1_opt_MP2.scfp) ****
----------------
ORBITAL ENERGIES
----------------

  NO   OCC          E(Eh)            E(eV) 
   0   2.0000     -20.556463      -559.3698 
   1   2.0000     -15.563246      -423.4975 
   2   2.0000     -15.559105      -423.3848 
   3   2.0000     -15.557753      -423.3480 
   4   2.0000     -15.557255      -423.3344 
   5   2.0000     -15.555953      -423.2990 
   6   2.0000     -15.552439      -423.2034 
   7   2.0000     -15.552334      -423.2005 
   8   2.0000     -15.550802      -423.1588 
   9   2.0000     -11.337549      -308.5104 
  10   2.0000     -11.289217      -307.1952 
  11   2.0000     -11.285335      -307.0896 
  12   2.0000     -11.283598      -307.0423 
  13   2.0000     -11.283578      -307.0418 
  14   2.0000     -11.283167      -307.0306 
  15   2.0000     -11.279238      -306.9237 
  16   2.0000     -11.278027      -306.8907 
  17   2.0000     -11.276698      -306.8546 
  18   2.0000     -11.265543      -306.5510 
  19   2.0000     -11.263257      -306.4888 
  20   2.0000     -11.262977      -306.4812 
  21   2.0000     -11.258289      -306.3536 
  22   2.0000     -11.257915      -306.3434 
  23   2.0000     -11.257167      -306.3231 
  24   2.0000     -11.256503      -306.3050 
  25   2.0000     -11.255019      -306.2646 
  26   2.0000     -11.254824      -306.2593 
  27   2.0000     -11.254616      -306.2537 
  28   2.0000     -11.254598      -306.2532 
  29   2.0000     -11.251406      -306.1663 
  30   2.0000     -11.251386      -306.1658 
  31   2.0000     -11.250244      -306.1347 
  32   2.0000     -11.249686      -306.1195 
  33   2.0000     -11.248762      -306.0944 
  34   2.0000     -11.248633      -306.0909 
  35   2.0000     -11.248260      -306.0807 
  36   2.0000     -11.248151      -306.0778 
  37   2.0000     -11.247447      -306.0586 
  38   2.0000     -11.247392      -306.0571 
  39   2.0000     -11.246741      -306.0394 
  40   2.0000     -11.246001      -306.0192 
  41   2.0000     -11.245616      -306.0088 
  42   2.0000     -11.245045      -305.9932 
  43   2.0000     -11.242712      -305.9297 
  44   2.0000      -1.391523       -37.8653 
  45   2.0000      -1.259794       -34.2807 
  46   2.0000      -1.257132       -34.2083 
  47   2.0000      -1.254068       -34.1249 
  48   2.0000      -1.248062       -33.9615 
  49   2.0000      -1.231945       -33.5229 
  50   2.0000      -1.230648       -33.4876 
  51   2.0000      -1.225602       -33.3503 
  52   2.0000      -1.220608       -33.2144 
  53   2.0000      -1.182597       -32.1801 
  54   2.0000      -1.170952       -31.8632 
  55   2.0000      -1.164425       -31.6856 
  56   2.0000      -1.077026       -29.3074 
  57   2.0000      -1.073853       -29.2210 
  58   2.0000      -1.070915       -29.1411 
  59   2.0000      -1.063423       -28.9372 
  60   2.0000      -1.055196       -28.7133 
  61   2.0000      -1.051198       -28.6045 
  62   2.0000      -1.014720       -27.6119 
  63   2.0000      -1.002038       -27.2668 
  64   2.0000      -0.999452       -27.1965 
  65   2.0000      -0.991502       -26.9802 
  66   2.0000      -0.916631       -24.9428 
  67   2.0000      -0.914377       -24.8815 
  68   2.0000      -0.910643       -24.7799 
  69   2.0000      -0.904673       -24.6174 
  70   2.0000      -0.901890       -24.5417 
  71   2.0000      -0.875289       -23.8178 
  72   2.0000      -0.874739       -23.8029 
  73   2.0000      -0.868171       -23.6241 
  74   2.0000      -0.840014       -22.8579 
  75   2.0000      -0.829934       -22.5836 
  76   2.0000      -0.824805       -22.4441 
  77   2.0000      -0.813245       -22.1295 
  78   2.0000      -0.798601       -21.7310 
  79   2.0000      -0.767504       -20.8848 
  80   2.0000      -0.759479       -20.6665 
  81   2.0000      -0.754020       -20.5179 
  82   2.0000      -0.752119       -20.4662 
  83   2.0000      -0.747114       -20.3300 
  84   2.0000      -0.741958       -20.1897 
  85   2.0000      -0.719715       -19.5844 
  86   2.0000      -0.708274       -19.2731 
  87   2.0000      -0.706176       -19.2160 
  88   2.0000      -0.698120       -18.9968 
  89   2.0000      -0.689853       -18.7718 
  90   2.0000      -0.682033       -18.5591 
  91   2.0000      -0.675321       -18.3764 
  92   2.0000      -0.671655       -18.2767 
  93   2.0000      -0.664827       -18.0909 
  94   2.0000      -0.661517       -18.0008 
  95   2.0000      -0.657131       -17.8815 
  96   2.0000      -0.653141       -17.7729 
  97   2.0000      -0.651947       -17.7404 
  98   2.0000      -0.645470       -17.5641 
  99   2.0000      -0.639345       -17.3975 
 100   2.0000      -0.632830       -17.2202 
 101   2.0000      -0.623915       -16.9776 
 102   2.0000      -0.619946       -16.8696 
 103   2.0000      -0.619377       -16.8541 
 104   2.0000      -0.617093       -16.7919 
 105   2.0000      -0.612777       -16.6745 
 106   2.0000      -0.610919       -16.6240 
 107   2.0000      -0.605480       -16.4759 
 108   2.0000      -0.601902       -16.3786 
 109   2.0000      -0.590529       -16.0691 
 110   2.0000      -0.589582       -16.0433 
 111   2.0000      -0.586745       -15.9661 
 112   2.0000      -0.582922       -15.8621 
 113   2.0000      -0.564878       -15.3711 
 114   2.0000      -0.554626       -15.0921 
 115   2.0000      -0.550171       -14.9709 
 116   2.0000      -0.548668       -14.9300 
 117   2.0000      -0.542795       -14.7702 
 118   2.0000      -0.541973       -14.7478 
 119   2.0000      -0.540396       -14.7049 
 120   2.0000      -0.538281       -14.6474 
 121   2.0000      -0.535989       -14.5850 
 122   2.0000      -0.529725       -14.4146 
 123   2.0000      -0.526466       -14.3259 
 124   2.0000      -0.523790       -14.2531 
 125   2.0000      -0.516100       -14.0438 
 126   2.0000      -0.510561       -13.8931 
 127   2.0000      -0.504687       -13.7332 
 128   2.0000      -0.502376       -13.6703 
 129   2.0000      -0.498334       -13.5604 
 130   2.0000      -0.494827       -13.4649 
 131   2.0000      -0.461640       -12.5619 
 132   2.0000      -0.457157       -12.4399 
 133   2.0000      -0.454713       -12.3734 
 134   2.0000      -0.454283       -12.3617 
 135   2.0000      -0.447376       -12.1737 
 136   2.0000      -0.434611       -11.8264 
 137   2.0000      -0.426779       -11.6132 
 138   2.0000      -0.418413       -11.3856 
 139   2.0000      -0.415889       -11.3169 
 140   2.0000      -0.414855       -11.2888 
 141   2.0000      -0.413370       -11.2484 
 142   2.0000      -0.409604       -11.1459 
 143   2.0000      -0.408263       -11.1094 
 144   2.0000      -0.407394       -11.0857 
 145   2.0000      -0.403945       -10.9919 
 146   2.0000      -0.398533       -10.8446 
 147   2.0000      -0.396219       -10.7817 
 148   2.0000      -0.349259        -9.5038 
 149   2.0000      -0.336041        -9.1441 
 150   2.0000      -0.328897        -8.9497 
 151   2.0000      -0.326624        -8.8879 
 152   2.0000      -0.322881        -8.7860 
 153   2.0000      -0.322067        -8.7639 
 154   0.0000       0.055756         1.5172 
 155   0.0000       0.063883         1.7383 
 156   0.0000       0.068015         1.8508 
 157   0.0000       0.074589         2.0297 
 158   0.0000       0.077330         2.1043 
 159   0.0000       0.081269         2.2114 
 160   0.0000       0.121671         3.3108 
 161   0.0000       0.127649         3.4735 
 162   0.0000       0.133629         3.6362 
 163   0.0000       0.138394         3.7659 
 164   0.0000       0.146392         3.9835 
 165   0.0000       0.147624         4.0171 
 166   0.0000       0.149427         4.0661 
 167   0.0000       0.154630         4.2077 
 168   0.0000       0.156965         4.2712 
 169   0.0000       0.160550         4.3688 
 170   0.0000       0.163154         4.4396 
 171   0.0000       0.163319         4.4441 
 172   0.0000       0.174060         4.7364 
 173   0.0000       0.182239         4.9590 
 174   0.0000       0.185778         5.0553 
 175   0.0000       0.190159         5.1745 
 176   0.0000       0.197628         5.3777 
 177   0.0000       0.200791         5.4638 
 178   0.0000       0.202265         5.5039 
 179   0.0000       0.203391         5.5346 
 180   0.0000       0.204962         5.5773 
 181   0.0000       0.207242         5.6393 
 182   0.0000       0.209013         5.6875 
 183   0.0000       0.209995         5.7143 
 184   0.0000       0.214432         5.8350 
 185   0.0000       0.218934         5.9575 
 186   0.0000       0.224527         6.1097 
 187   0.0000       0.226410         6.1609 
 188   0.0000       0.229593         6.2475 
 189   0.0000       0.232707         6.3323 
 190   0.0000       0.240771         6.5517 
 191   0.0000       0.243150         6.6165 
 192   0.0000       0.246323         6.7028 
 193   0.0000       0.253480         6.8975 
 194   0.0000       0.257124         6.9967 
 195   0.0000       0.258294         7.0285 
 196   0.0000       0.260245         7.0816 
 197   0.0000       0.262438         7.1413 
 198   0.0000       0.265367         7.2210 
 199   0.0000       0.274173         7.4606 
 200   0.0000       0.286938         7.8080 
 201   0.0000       0.289533         7.8786 
 202   0.0000       0.294200         8.0056 
 203   0.0000       0.302218         8.2238 
 204   0.0000       0.302352         8.2274 
 205   0.0000       0.305877         8.3233 
 206   0.0000       0.308533         8.3956 
 207   0.0000       0.312897         8.5144 
 208   0.0000       0.313566         8.5326 
 209   0.0000       0.315311         8.5800 
 210   0.0000       0.320911         8.7324 
 211   0.0000       0.324701         8.8356 
 212   0.0000       0.329398         8.9634 
 213   0.0000       0.330308         8.9881 
 214   0.0000       0.333723         9.0811 
 215   0.0000       0.334867         9.1122 
 216   0.0000       0.340617         9.2687 
 217   0.0000       0.347965         9.4686 
 218   0.0000       0.350277         9.5315 
 219   0.0000       0.355634         9.6773 
 220   0.0000       0.358189         9.7468 
 221   0.0000       0.367108         9.9895 
 222   0.0000       0.367678        10.0050 
 223   0.0000       0.369839        10.0638 
 224   0.0000       0.375695        10.2232 
 225   0.0000       0.377441        10.2707 
 226   0.0000       0.381608        10.3841 
 227   0.0000       0.386219        10.5095 
 228   0.0000       0.391642        10.6571 
 229   0.0000       0.393946        10.7198 
 230   0.0000       0.395853        10.7717 
 231   0.0000       0.397990        10.8299 
 232   0.0000       0.407960        11.1011 
 233   0.0000       0.408956        11.1282 
 234   0.0000       0.412455        11.2235 
 235   0.0000       0.415737        11.3128 
 236   0.0000       0.416658        11.3378 
 237   0.0000       0.419720        11.4212 
 238   0.0000       0.420783        11.4501 
 239   0.0000       0.426273        11.5995 
 240   0.0000       0.429169        11.6783 
 241   0.0000       0.432220        11.7613 
 242   0.0000       0.434802        11.8316 
 243   0.0000       0.435198        11.8423 
 244   0.0000       0.438788        11.9400 
 245   0.0000       0.443299        12.0628 
 246   0.0000       0.444537        12.0965 
 247   0.0000       0.445891        12.1333 
 248   0.0000       0.451973        12.2988 
 249   0.0000       0.453576        12.3424 
 250   0.0000       0.457168        12.4402 
 251   0.0000       0.457962        12.4618 
 252   0.0000       0.459074        12.4920 
 253   0.0000       0.464518        12.6402 
 254   0.0000       0.466407        12.6916 
 255   0.0000       0.470304        12.7976 
 256   0.0000       0.473099        12.8737 
 257   0.0000       0.478356        13.0167 
 258   0.0000       0.480913        13.0863 
 259   0.0000       0.485944        13.2232 
 260   0.0000       0.488733        13.2991 
 261   0.0000       0.493952        13.4411 
 262   0.0000       0.497002        13.5241 
 263   0.0000       0.499403        13.5895 
 264   0.0000       0.503883        13.7114 
 265   0.0000       0.506166        13.7735 
 266   0.0000       0.509297        13.8587 
 267   0.0000       0.511899        13.9295 
 268   0.0000       0.512426        13.9438 
 269   0.0000       0.516586        14.0570 
 270   0.0000       0.521628        14.1942 
 271   0.0000       0.522195        14.2097 
 272   0.0000       0.525345        14.2954 
 273   0.0000       0.527033        14.3413 
 274   0.0000       0.528904        14.3922 
 275   0.0000       0.532540        14.4912 
 276   0.0000       0.535856        14.5814 
 277   0.0000       0.538698        14.6587 
 278   0.0000       0.540610        14.7107 
 279   0.0000       0.546710        14.8767 
 280   0.0000       0.549358        14.9488 
 281   0.0000       0.550409        14.9774 
 282   0.0000       0.552171        15.0253 
 283   0.0000       0.554368        15.0851 
 284   0.0000       0.555625        15.1193 
 285   0.0000       0.557153        15.1609 
 286   0.0000       0.560288        15.2462 
 287   0.0000       0.562110        15.2958 
 288   0.0000       0.564234        15.3536 
 289   0.0000       0.570000        15.5105 
 290   0.0000       0.572576        15.5806 
 291   0.0000       0.575778        15.6677 
 292   0.0000       0.577798        15.7227 
 293   0.0000       0.578519        15.7423 
 294   0.0000       0.581682        15.8284 
 295   0.0000       0.584214        15.8973 
 296   0.0000       0.586427        15.9575 
 297   0.0000       0.589537        16.0421 
 298   0.0000       0.591173        16.0866 
 299   0.0000       0.593154        16.1406 
 300   0.0000       0.594510        16.1774 
 301   0.0000       0.596185        16.2230 
 302   0.0000       0.597151        16.2493 
 303   0.0000       0.597775        16.2663 
 304   0.0000       0.598603        16.2888 
 305   0.0000       0.601299        16.3622 
 306   0.0000       0.603047        16.4097 
 307   0.0000       0.606850        16.5132 
 308   0.0000       0.609592        16.5878 
 309   0.0000       0.610369        16.6090 
 310   0.0000       0.612973        16.6798 
 311   0.0000       0.615360        16.7448 
 312   0.0000       0.621511        16.9122 
 313   0.0000       0.624281        16.9875 
 314   0.0000       0.624976        17.0065 
 315   0.0000       0.628252        17.0956 
 316   0.0000       0.629253        17.1228 
 317   0.0000       0.634081        17.2542 
 318   0.0000       0.634644        17.2695 
 319   0.0000       0.636202        17.3119 
 320   0.0000       0.639171        17.3927 
 321   0.0000       0.641623        17.4595 
 322   0.0000       0.644046        17.5254 
 323   0.0000       0.644492        17.5375 
 324   0.0000       0.647390        17.6164 
 325   0.0000       0.649943        17.6859 
 326   0.0000       0.651601        17.7310 
 327   0.0000       0.652783        17.7631 
 328   0.0000       0.655096        17.8261 
 329   0.0000       0.656978        17.8773 
 330   0.0000       0.660725        17.9792 
 331   0.0000       0.662257        18.0209 
 332   0.0000       0.665405        18.1066 
 333   0.0000       0.669547        18.2193 
 334   0.0000       0.671474        18.2717 
 335   0.0000       0.675383        18.3781 
 336   0.0000       0.676638        18.4123 
 337   0.0000       0.679321        18.4853 
 338   0.0000       0.681577        18.5467 
 339   0.0000       0.685159        18.6441 
 340   0.0000       0.687049        18.6956 
 341   0.0000       0.689730        18.7685 
 342   0.0000       0.693328        18.8664 
 343   0.0000       0.693855        18.8807 
 344   0.0000       0.695830        18.9345 
 345   0.0000       0.700130        19.0515 
 346   0.0000       0.701716        19.0947 
 347   0.0000       0.704702        19.1759 
 348   0.0000       0.707209        19.2441 
 349   0.0000       0.713726        19.4215 
 350   0.0000       0.714906        19.4536 
 351   0.0000       0.717458        19.5230 
 352   0.0000       0.720655        19.6100 
 353   0.0000       0.721372        19.6295 
 354   0.0000       0.726000        19.7555 
 355   0.0000       0.726557        19.7706 
 356   0.0000       0.729021        19.8377 
 357   0.0000       0.733508        19.9598 
 358   0.0000       0.735053        20.0018 
 359   0.0000       0.737683        20.0734 
 360   0.0000       0.739899        20.1337 
 361   0.0000       0.741548        20.1785 
 362   0.0000       0.742566        20.2063 
 363   0.0000       0.746658        20.3176 
 364   0.0000       0.749733        20.4013 
 365   0.0000       0.754536        20.5320 
 366   0.0000       0.757985        20.6258 
 367   0.0000       0.761395        20.7186 
 368   0.0000       0.762069        20.7369 
 369   0.0000       0.764162        20.7939 
 370   0.0000       0.767206        20.8767 
 371   0.0000       0.769301        20.9338 
 372   0.0000       0.773068        21.0363 
 373   0.0000       0.775564        21.1042 
 374   0.0000       0.777736        21.1633 
 375   0.0000       0.780853        21.2481 
 376   0.0000       0.784550        21.3487 
 377   0.0000       0.787119        21.4186 
 378   0.0000       0.791268        21.5315 
 379   0.0000       0.793941        21.6042 
 380   0.0000       0.797811        21.7096 
 381   0.0000       0.798756        21.7353 
 382   0.0000       0.803656        21.8686 
 383   0.0000       0.807906        21.9842 
 384   0.0000       0.811309        22.0768 
 385   0.0000       0.814273        22.1575 
 386   0.0000       0.823937        22.4205 
 387   0.0000       0.824602        22.4386 
 388   0.0000       0.825856        22.4727 
 389   0.0000       0.829000        22.5582 
 390   0.0000       0.833289        22.6749 
 391   0.0000       0.834899        22.7187 
 392   0.0000       0.840070        22.8595 
 393   0.0000       0.842760        22.9327 
 394   0.0000       0.851113        23.1600 
 395   0.0000       0.856735        23.3129 
 396   0.0000       0.862029        23.4570 
 397   0.0000       0.865298        23.5459 
 398   0.0000       0.865963        23.5641 
 399   0.0000       0.872863        23.7518 
 400   0.0000       0.875907        23.8346 
 401   0.0000       0.876364        23.8471 
 402   0.0000       0.878139        23.8954 
 403   0.0000       0.881531        23.9877 
 404   0.0000       0.884396        24.0656 
 405   0.0000       0.888957        24.1897 
 406   0.0000       0.893597        24.3160 
 407   0.0000       0.894996        24.3541 
 408   0.0000       0.899498        24.4766 
 409   0.0000       0.901303        24.5257 
 410   0.0000       0.905676        24.6447 
 411   0.0000       0.907692        24.6996 
 412   0.0000       0.911476        24.8025 
 413   0.0000       0.912523        24.8310 
 414   0.0000       0.914573        24.8868 
 415   0.0000       0.921382        25.0721 
 416   0.0000       0.922667        25.1070 
 417   0.0000       0.925543        25.1853 
 418   0.0000       0.926551        25.2127 
 419   0.0000       0.932167        25.3656 
 420   0.0000       0.935545        25.4575 
 421   0.0000       0.939164        25.5559 
 422   0.0000       0.940635        25.5960 
 423   0.0000       0.943721        25.6800 
 424   0.0000       0.949516        25.8376 
 425   0.0000       0.950625        25.8678 
 426   0.0000       0.953968        25.9588 
 427   0.0000       0.957302        26.0495 
 428   0.0000       0.964827        26.2543 
 429   0.0000       0.967471        26.3262 
 430   0.0000       0.972120        26.4527 
 431   0.0000       0.973895        26.5010 
 432   0.0000       0.976216        26.5642 
 433   0.0000       0.980964        26.6934 
 434   0.0000       0.981552        26.7094 
 435   0.0000       0.984537        26.7906 
 436   0.0000       0.988994        26.9119 
 437   0.0000       0.992888        27.0179 
 438   0.0000       0.995032        27.0762 
 439   0.0000       0.996196        27.1079 
 440   0.0000       1.000854        27.2346 
 441   0.0000       1.003705        27.3122 
 442   0.0000       1.005953        27.3734 
 443   0.0000       1.008246        27.4358 
 444   0.0000       1.009352        27.4659 
 445   0.0000       1.010407        27.4946 
 446   0.0000       1.017731        27.6939 
 447   0.0000       1.019763        27.7492 
 448   0.0000       1.022371        27.8201 
 449   0.0000       1.026541        27.9336 
 450   0.0000       1.029428        28.0122 
 451   0.0000       1.031577        28.0706 
 452   0.0000       1.033090        28.1118 
 453   0.0000       1.038446        28.2575 
 454   0.0000       1.040644        28.3174 
 455   0.0000       1.042915        28.3792 
 456   0.0000       1.044458        28.4211 
 457   0.0000       1.048464        28.5302 
 458   0.0000       1.049543        28.5595 
 459   0.0000       1.052145        28.6303 
 460   0.0000       1.055075        28.7100 
 461   0.0000       1.061316        28.8799 
 462   0.0000       1.064829        28.9755 
 463   0.0000       1.070610        29.1328 
 464   0.0000       1.073221        29.2038 
 465   0.0000       1.075843        29.2752 
 466   0.0000       1.080321        29.3970 
 467   0.0000       1.081233        29.4218 
 468   0.0000       1.083753        29.4904 
 469   0.0000       1.087395        29.5895 
 470   0.0000       1.090218        29.6663 
 471   0.0000       1.097903        29.8755 
 472   0.0000       1.099931        29.9307 
 473   0.0000       1.105270        30.0759 
 474   0.0000       1.107502        30.1367 
 475   0.0000       1.109043        30.1786 
 476   0.0000       1.116044        30.3691 
 477   0.0000       1.117438        30.4070 
 478   0.0000       1.119753        30.4700 
 479   0.0000       1.122081        30.5334 
 480   0.0000       1.124113        30.5887 
 481   0.0000       1.130004        30.7490 
 482   0.0000       1.132725        30.8230 
 483   0.0000       1.133974        30.8570 
 484   0.0000       1.137079        30.9415 
 485   0.0000       1.138024        30.9672 
 486   0.0000       1.140536        31.0356 
 487   0.0000       1.143755        31.1232 
 488   0.0000       1.149973        31.2924 
 489   0.0000       1.152878        31.3714 
 490   0.0000       1.155923        31.4543 
 491   0.0000       1.159330        31.5470 
 492   0.0000       1.163704        31.6660 
 493   0.0000       1.167902        31.7802 
 494   0.0000       1.170630        31.8545 
 495   0.0000       1.171040        31.8656 
 496   0.0000       1.172181        31.8967 
 497   0.0000       1.174159        31.9505 
 498   0.0000       1.179493        32.0956 
 499   0.0000       1.181868        32.1603 
 500   0.0000       1.183130        32.1946 
 501   0.0000       1.187344        32.3093 
 502   0.0000       1.189619        32.3712 
 503   0.0000       1.197916        32.5969 
 504   0.0000       1.198755        32.6198 
 505   0.0000       1.199475        32.6394 
 506   0.0000       1.205074        32.7917 
 507   0.0000       1.207790        32.8656 
 508   0.0000       1.208746        32.8916 
 509   0.0000       1.213006        33.0076 
 510   0.0000       1.214821        33.0570 
 511   0.0000       1.218665        33.1616 
 512   0.0000       1.221868        33.2487 
 513   0.0000       1.228845        33.4386 
 514   0.0000       1.235255        33.6130 
 515   0.0000       1.238559        33.7029 
 516   0.0000       1.239801        33.7367 
 517   0.0000       1.241297        33.7774 
 518   0.0000       1.242242        33.8031 
 519   0.0000       1.244711        33.8703 
 520   0.0000       1.246986        33.9322 
 521   0.0000       1.249224        33.9931 
 522   0.0000       1.251239        34.0479 
 523   0.0000       1.256036        34.1785 
 524   0.0000       1.259933        34.2845 
 525   0.0000       1.263589        34.3840 
 526   0.0000       1.265932        34.4478 
 527   0.0000       1.267841        34.4997 
 528   0.0000       1.269083        34.5335 
 529   0.0000       1.272822        34.6352 
 530   0.0000       1.274132        34.6709 
 531   0.0000       1.276315        34.7303 
 532   0.0000       1.277622        34.7658 
 533   0.0000       1.278940        34.8017 
 534   0.0000       1.282146        34.8890 
 535   0.0000       1.284798        34.9611 
 536   0.0000       1.288679        35.0667 
 537   0.0000       1.290376        35.1129 
 538   0.0000       1.292586        35.1731 
 539   0.0000       1.294342        35.2208 
 540   0.0000       1.295755        35.2593 
 541   0.0000       1.299361        35.3574 
 542   0.0000       1.305316        35.5195 
 543   0.0000       1.306494        35.5515 
 544   0.0000       1.308014        35.5929 
[...]
      dx2y2   :     0.005725
      dxy     :     0.006959
 68 H s       :     0.849859  s :     0.849859
      pz      :     0.043518  p :     0.148985
      px      :     0.050689
      py      :     0.054778
      dz2     :     0.005175  d :     0.028202
      dxz     :     0.003316
      dyz     :     0.005995
      dx2y2   :     0.007581
      dxy     :     0.006135
 69 H s       :     0.863292  s :     0.863292
      pz      :     0.073434  p :     0.146778
      px      :     0.043154
      py      :     0.030190
      dz2     :     0.009510  d :     0.028040
      dxz     :     0.008446
      dyz     :     0.007600
      dx2y2   :     0.001545
      dxy     :     0.000939
 70 H s       :     0.849807  s :     0.849807
      pz      :     0.042001  p :     0.149386
      px      :     0.040557
      py      :     0.066828
      dz2     :     0.003055  d :     0.028183
      dxz     :     0.002028
      dyz     :     0.008243
      dx2y2   :     0.007672
      dxy     :     0.007185
 71 H s       :     0.863925  s :     0.863925
      pz      :     0.063934  p :     0.146997
      px      :     0.029301
      py      :     0.053762
      dz2     :     0.008743  d :     0.028015
      dxz     :     0.005289
      dyz     :     0.007307
      dx2y2   :     0.003525
      dxy     :     0.003151
 72 H s       :     0.860652  s :     0.860652
      pz      :     0.056483  p :     0.147330
      px      :     0.035903
      py      :     0.054945
      dz2     :     0.006889  d :     0.028274
      dxz     :     0.005059
      dyz     :     0.007587
      dx2y2   :     0.004133
      dxy     :     0.004605
 73 H s       :     0.853215  s :     0.853215
      pz      :     0.043488  p :     0.148017
      px      :     0.070772
      py      :     0.033757
      dz2     :     0.003359  d :     0.028178
      dxz     :     0.008456
      dyz     :     0.001800
      dx2y2   :     0.007309
      dxy     :     0.007254
 74 H s       :     0.850403  s :     0.850403
      pz      :     0.039730  p :     0.149371
      px      :     0.066382
      py      :     0.043259
      dz2     :     0.004895  d :     0.028204
      dxz     :     0.007335
      dyz     :     0.002130
      dx2y2   :     0.006702
      dxy     :     0.007142
 75 H s       :     0.864026  s :     0.864026
      pz      :     0.039607  p :     0.146994
      px      :     0.061126
      py      :     0.046261
      dz2     :     0.004861  d :     0.028029
      dxz     :     0.006334
      dyz     :     0.003508
      dx2y2   :     0.007620
      dxy     :     0.005706
 76 H s       :     0.853794  s :     0.853794
      pz      :     0.073138  p :     0.148002
      px      :     0.032294
      py      :     0.042569
      dz2     :     0.009777  d :     0.028168
      dxz     :     0.008146
      dyz     :     0.008833
      dx2y2   :     0.001071
      dxy     :     0.000341
 77 H s       :     0.861245  s :     0.861245
      pz      :     0.039710  p :     0.147415
      px      :     0.062985
      py      :     0.044719
      dz2     :     0.004729  d :     0.028234
      dxz     :     0.006486
      dyz     :     0.002030
      dx2y2   :     0.007913
      dxy     :     0.007076


                      *****************************
                      * MAYER POPULATION ANALYSIS *
                      *****************************

  NA   - Mulliken gross atomic population
  ZA   - Total nuclear charge
  QA   - Mulliken gross atomic charge
  VA   - Mayer's total valence
  BVA  - Mayer's bonded valence
  FA   - Mayer's free valence

  ATOM       NA         ZA         QA         VA         BVA        FA
  0 C      5.8007     6.0000     0.1993     3.5614     3.5614     0.0000
  1 C      6.0839     6.0000    -0.0839     4.0114     4.0114    -0.0000
  2 C      6.2201     6.0000    -0.2201     3.9305     3.9305    -0.0000
  3 C      5.8237     6.0000     0.1763     3.5803     3.5803     0.0000
  4 H      0.8414     1.0000     0.1586     1.0163     1.0163    -0.0000
  5 C      6.2240     6.0000    -0.2240     3.9356     3.9356     0.0000
  6 C      5.8105     6.0000     0.1895     3.5890     3.5890    -0.0000
  7 H      0.8419     1.0000     0.1581     1.0077     1.0077     0.0000
  8 C      6.2269     6.0000    -0.2269     3.9146     3.9146    -0.0000
  9 C      6.1017     6.0000    -0.1017     4.0118     4.0118    -0.0000
 10 H      0.8372     1.0000     0.1628     1.0098     1.0098    -0.0000
 11 C      6.1101     6.0000    -0.1101     4.0154     4.0154    -0.0000
 12 H      0.8978     1.0000     0.1022     0.9945     0.9945    -0.0000
 13 H      0.9097     1.0000     0.0903     0.9978     0.9978    -0.0000
 14 H      0.8951     1.0000     0.1049     0.9941     0.9941     0.0000
 15 C      5.9033     6.0000     0.0967     3.4627     3.4627    -0.0000
 16 C      5.8072     6.0000     0.1928     4.0105     4.0105     0.0000
 17 C      6.2336     6.0000    -0.2336     3.9136     3.9136    -0.0000
 18 C      5.8305     6.0000     0.1695     3.5841     3.5841    -0.0000
 19 H      0.8175     1.0000     0.1825     0.9904     0.9904    -0.0000
 20 C      6.1924     6.0000    -0.1924     3.9310     3.9310    -0.0000
 21 C      5.7994     6.0000     0.2006     3.5433     3.5433    -0.0000
 22 H      0.8372     1.0000     0.1628     1.0147     1.0147    -0.0000
 23 C      6.2116     6.0000    -0.2116     3.9274     3.9274    -0.0000
 24 C      6.0952     6.0000    -0.0952     4.0168     4.0168     0.0000
 25 H      0.8321     1.0000     0.1679     1.0048     1.0048    -0.0000
 26 C      6.0999     6.0000    -0.0999     4.0212     4.0212    -0.0000
 27 H      0.9060     1.0000     0.0940     0.9977     0.9977    -0.0000
 28 H      0.9017     1.0000     0.0983     0.9829     0.9829    -0.0000
 29 H      0.8956     1.0000     0.1044     0.9975     0.9975    -0.0000
 30 C      5.8254     6.0000     0.1746     3.5892     3.5892    -0.0000
 31 C      6.0960     6.0000    -0.0960     4.0169     4.0169    -0.0000
 32 C      6.2267     6.0000    -0.2267     3.9042     3.9042    -0.0000
 33 C      5.8038     6.0000     0.1962     3.5782     3.5782    -0.0000
 34 H      0.8368     1.0000     0.1632     1.0121     1.0121     0.0000
 35 C      6.2180     6.0000    -0.2180     3.9444     3.9444    -0.0000
 36 C      5.8023     6.0000     0.1977     3.5599     3.5599    -0.0000
 37 H      0.8420     1.0000     0.1580     1.0095     1.0095     0.0000
 38 C      6.2239     6.0000    -0.2239     3.9197     3.9197    -0.0000
 39 C      6.0917     6.0000    -0.0917     4.0062     4.0062    -0.0000
 40 H      0.8418     1.0000     0.1582     1.0146     1.0146    -0.0000
 41 C      6.0987     6.0000    -0.0987     3.9990     3.9990    -0.0000
 42 H      0.9103     1.0000     0.0897     0.9965     0.9965    -0.0000
 43 H      0.8964     1.0000     0.1036     0.9999     0.9999     0.0000
 44 C      6.0402     6.0000    -0.0402     3.8818     3.8818    -0.0000
 45 C      6.0356     6.0000    -0.0356     3.8775     3.8775    -0.0000
 46 N      7.2588     7.0000    -0.2588     2.9850     2.9850    -0.0000
 47 N      7.2608     7.0000    -0.2608     2.9780     2.9780    -0.0000
 48 O      8.3883     8.0000    -0.3883     2.0838     2.0838    -0.0000
 49 C      6.0413     6.0000    -0.0413     3.8805     3.8805    -0.0000
 50 C      6.0390     6.0000    -0.0390     3.8786     3.8786    -0.0000
 51 N      7.2554     7.0000    -0.2554     2.9861     2.9861    -0.0000
 52 N      7.2568     7.0000    -0.2568     2.9737     2.9737    -0.0000
 53 C      6.0438     6.0000    -0.0438     3.8839     3.8839    -0.0000
 54 C      6.0610     6.0000    -0.0610     3.8580     3.8580    -0.0000
 55 N      7.2668     7.0000    -0.2668     2.9737     2.9737    -0.0000
 56 N      7.2686     7.0000    -0.2686     2.9696     2.9696    -0.0000
 57 C      6.0405     6.0000    -0.0405     3.8822     3.8822    -0.0000
 58 C      6.0337     6.0000    -0.0337     3.8773     3.8773    -0.0000
 59 N      7.2538     7.0000    -0.2538     2.9893     2.9893    -0.0000
 60 N      7.2614     7.0000    -0.2614     2.9732     2.9732    -0.0000
 61 H      0.8974     1.0000     0.1026     0.9950     0.9950    -0.0000
 62 H      0.8947     1.0000     0.1053     0.9825     0.9825     0.0000
 63 H      0.9011     1.0000     0.0989     0.9903     0.9903     0.0000
 64 H      0.9303     1.0000     0.0697     0.9883     0.9883    -0.0000
 65 H      0.8912     1.0000     0.1088     0.9831     0.9831    -0.0000
 66 H      0.9317     1.0000     0.0683     0.9892     0.9892     0.0000
 67 H      0.8900     1.0000     0.1100     0.9816     0.9816    -0.0000
 68 H      0.8953     1.0000     0.1047     0.9814     0.9814    -0.0000
 69 H      0.9372     1.0000     0.0628     0.9914     0.9914    -0.0000
 70 H      0.8983     1.0000     0.1017     0.9810     0.9810     0.0000
 71 H      0.9386     1.0000     0.0614     0.9917     0.9917     0.0000
 72 H      0.9330     1.0000     0.0670     0.9886     0.9886    -0.0000
 73 H      0.8908     1.0000     0.1092     0.9823     0.9823    -0.0000
 74 H      0.8987     1.0000     0.1013     0.9814     0.9814    -0.0000
 75 H      0.9389     1.0000     0.0611     0.9917     0.9917     0.0000
 76 H      0.8921     1.0000     0.1079     0.9823     0.9823    -0.0000
 77 H      0.9332     1.0000     0.0668     0.9888     0.9888     0.0000

  Mayer bond orders larger than 0.100000
B(  0-C ,  1-C ) :   0.9758 B(  0-C ,  2-C ) :   1.3865 B(  0-C ,  8-C ) :   1.2966 
B(  1-C , 13-H ) :   0.9895 B(  1-C , 47-N ) :   1.9885 B(  2-C ,  3-C ) :   1.3011 
B(  2-C ,  4-H ) :   0.9647 B(  3-C ,  5-C ) :   1.3810 B(  3-C , 11-C ) :   0.9865 
B(  5-C ,  6-C ) :   1.3132 B(  5-C ,  7-H ) :   0.9627 B(  6-C ,  8-C ) :   1.3742 
B(  6-C ,  9-C ) :   0.9818 B(  8-C , 10-H ) :   0.9624 B(  9-C , 12-H ) :   0.9907 
B(  9-C , 55-N ) :   1.9731 B( 11-C , 14-H ) :   0.9939 B( 11-C , 51-N ) :   1.9763 
B( 15-C , 16-C ) :   0.9381 B( 15-C , 17-C ) :   1.2828 B( 15-C , 23-C ) :   1.3733 
B( 16-C , 28-H ) :   1.0168 B( 16-C , 48-O ) :   2.0257 B( 17-C , 18-C ) :   1.3851 
B( 17-C , 19-H ) :   0.9566 B( 18-C , 20-C ) :   1.2973 B( 18-C , 26-C ) :   0.9897 
B( 20-C , 21-C ) :   1.3857 B( 20-C , 22-H ) :   0.9634 B( 21-C , 23-C ) :   1.2935 
B( 21-C , 24-C ) :   0.9732 B( 23-C , 25-H ) :   0.9586 B( 24-C , 27-H ) :   0.9901 
B( 24-C , 52-N ) :   1.9898 B( 26-C , 29-H ) :   0.9933 B( 26-C , 59-N ) :   1.9821 
B( 30-C , 31-C ) :   0.9915 B( 30-C , 32-C ) :   1.3771 B( 30-C , 38-C ) :   1.3016 
B( 31-C , 46-N ) :   1.9735 B( 31-C , 61-H ) :   0.9917 B( 32-C , 33-C ) :   1.2973 
B( 32-C , 34-H ) :   0.9599 B( 33-C , 35-C ) :   1.3897 B( 33-C , 41-C ) :   0.9730 
B( 35-C , 36-C ) :   1.3117 B( 35-C , 37-H ) :   0.9623 B( 36-C , 38-C ) :   1.3814 
B( 36-C , 39-C ) :   0.9710 B( 38-C , 40-H ) :   0.9656 B( 39-C , 42-H ) :   0.9883 
B( 39-C , 60-N ) :   1.9896 B( 41-C , 43-H ) :   0.9922 B( 41-C , 56-N ) :   1.9755 
B( 44-C , 45-C ) :   0.9338 B( 44-C , 46-N ) :   0.9680 B( 44-C , 76-H ) :   0.9882 
B( 44-C , 77-H ) :   0.9772 B( 45-C , 47-N ) :   0.9688 B( 45-C , 74-H ) :   0.9793 
B( 45-C , 75-H ) :   0.9743 B( 49-C , 50-C ) :   0.9329 B( 49-C , 51-N ) :   0.9668 
B( 49-C , 66-H ) :   0.9760 B( 49-C , 67-H ) :   0.9874 B( 50-C , 52-N ) :   0.9663 
B( 50-C , 68-H ) :   0.9803 B( 50-C , 69-H ) :   0.9741 B( 53-C , 54-C ) :   0.9344 
B( 53-C , 55-N ) :   0.9628 B( 53-C , 64-H ) :   0.9822 B( 53-C , 65-H ) :   0.9874 
B( 54-C , 56-N ) :   0.9634 B( 54-C , 62-H ) :   0.9801 B( 54-C , 63-H ) :   0.9659 
B( 57-C , 58-C ) :   0.9362 B( 57-C , 59-N ) :   0.9652 B( 57-C , 72-H ) :   0.9776 
B( 57-C , 73-H ) :   0.9880 B( 58-C , 60-N ) :   0.9687 B( 58-C , 70-H ) :   0.9783 
B( 58-C , 71-H ) :   0.9748 

-------
TIMINGS
-------

Total SCF time: 0 days 0 hours 29 min 26 sec 

Total time                  ....    1766.538 sec
Sum of individual times     ....    1748.919 sec  ( 99.0%)

Fock matrix formation       ....    1649.566 sec  ( 93.4%)
Diagonalization             ....      10.626 sec  (  0.6%)
Density matrix formation    ....       0.864 sec  (  0.0%)
Population analysis         ....       7.519 sec  (  0.4%)
Initial guess               ....       3.252 sec  (  0.2%)
Orbital Transformation      ....       0.000 sec  (  0.0%)
Orbital Orthonormalization  ....       0.000 sec  (  0.0%)
DIIS solution               ....      59.614 sec  (  3.4%)
SOSCF solution              ....       5.137 sec  (  0.3%)


           ************************************************************
           *        Program running with 32 parallel MPI-processes    *
           *              working on a common directory               *
           ************************************************************

------------------------------------------------------------------------------
                                ORCA  MP2 
------------------------------------------------------------------------------

Freezing NCore=88 chemical core electrons

-------------
RI-MP2 ENERGY
-------------
Dimension of the basis                    ... 1796
Memory devoted to MP2                     ... 3000 MB   
Data format for buffers                   ... DOUBLE
Compression type for matrix containers    ... UNCOMPRESSED
Overall scaling of the MP2 energy         ...   1.000e+00
Calculating two index integrals           ... done (    0.429 sec)
Cholesky decomposition of V**-1           ... done (    6.126 sec)

-----------------
RI-TRANSFORMATION (AUX index driven)
-----------------

Dimension of the orbital-basis         ... 1796
Dimension of the aux-basis             ... 4584
Transformation of internal/external MOs...   44- 153 to  154-1795
Number Format for Storage              ... Double (8 Byte)
Integral mode                          ... Direct

First Phase: integral generation and transformation of MO indices
  Aux angular momentum 0               ... done (    3.030 sec)
  Aux angular momentum 1               ... done (    6.163 sec)
  Aux angular momentum 2               ... done (    7.387 sec)
  Aux angular momentum 3               ... done (    6.803 sec)
  Aux angular momentum 4               ... done (    2.906 sec)
Closing buffer VIA ( 6.17 GB; CompressionRatio= 1.00)
  Phase 1 completed in    26.487 sec
Second Phase: sorting and transformation of aux index

IA-Transformation
Memory available                       ... 2584 MB 
Max. # MO pairs treated in a batch     ... 4    
# of internal orbitals                 ... 110
# batches for internal orbitals        ... 1
Closing buffer IAV ( 0.22 GB; CompressionRatio= 1.00)
(ia|v) transformation done in    28.451 sec

  Phase 2 completed in    39.295 sec
RI-Integral transformation completed in    65.972 sec
Opening buffers                              ... done

Starting loop over batches of integrals:

Operator 0  - window                       ... ( 44-153)x(154-1795)
Operator 0  - Memory available             ...  3000 MB
Operator 0  - Memory needed per MO         ...  57.4 MB
Operator 0  - Number of orbitals per batch ... 4
Operator 0  - Number of batches            ... 1

OPERATOR  0   PASS   0:  MOs    44 ...   47 +   48 ...   51 +   52 ...   55 +   56 ...   59
                            +   60 ...   63 +   64 ...   67 +   68 ...   71 +   72 ...   75
                            +   76 ...   79 +   80 ...   83 +   84 ...   87 +   88 ...   91
                            +   92 ...   95 +   96 ...   99 +  100 ...  103 +  104 ...  107
                            +  108 ...  111 +  112 ...  115 +  116 ...  119 +  120 ...  123
                            +  124 ...  127 +  128 ...  131 +  132 ...  135 +  136 ...  139
                            +  140 ...  143 +  144 ...  147 +  148 ...  151 +  152 ...  153
  Reading integrals       ... ok
  Internal MO  46
Time spent in pair loops =    24.414 sec
Deleting buffer (Ka|jb)[aa] ...done

-----------------------------------------------
 RI-MP2 CORRELATION ENERGY:     -7.398813654 Eh
-----------------------------------------------


-------
TIMINGS
-------

Total time                : 1111.918 sec
Integral trafo            :   65.976 sec (  5.9%)
I/O of integrals          :    0.100 sec (  0.0%)
K(i,j) Operators          :   24.050 sec (  2.2%)
T(i,j) pair energies      :    0.170 sec (  0.0%)
V-calculation             :    0.429 sec (  0.0%)
V**(-1/2)                 :    6.126 sec (  0.6%)
Gamma(ia|P)               :    0.000 sec (  0.0%)
Gamma-Trafo               :    0.000 sec (  0.0%)
D(virtual)                :    0.000 sec (  0.0%)
D(internal)               :    0.000 sec (  0.0%)
W(virtual)                :    0.000 sec (  0.0%)
W(internal)               :    0.000 sec (  0.0%)
L(virtual)                :    0.000 sec (  0.0%)
L(internal)               :    0.000 sec (  0.0%)
G(D)                      :    0.000 sec (  0.0%)
G(Z)                      :    0.000 sec (  0.0%)
Z-Vector Solution         :    0.000 sec (  0.0%)
3-Index Derivative        :    0.000 sec (  0.0%)
2-Index Derivative        :    0.000 sec (  0.0%)
Separable Gradient        :    0.000 sec (  0.0%)


---------------------------------------
MP2 TOTAL ENERGY:    -1863.536340699 Eh
---------------------------------------

-------------------------   --------------------
FINAL SINGLE POINT ENERGY     -1863.536340698747
-------------------------   --------------------


                            ***************************************
                            *     ORCA property calculations      *
                            ***************************************


  WARNING: The energy has been calculated at the MP2 level but the densities
           used in the property calculations are still SCF densities
           MP2 response densities have not been calculated 
           use %mp2 Density relaxed end
           or  %mp2 Density unrelaxed end

                                    ---------------------
                                    Active property flags
                                    ---------------------
   (+) Dipole Moment


------------------------------------------------------------------------------
                       ORCA ELECTRIC PROPERTIES CALCULATION
------------------------------------------------------------------------------

Dipole Moment Calculation                       ... on
Quadrupole Moment Calculation                   ... off
Polarizability Calculation                      ... off
GBWName                                         ... _o_3_alde1_4_ami4_1_opt_MP2.gbw
Electron density file                           ... _o_3_alde1_4_ami4_1_opt_MP2.scfp
The origin for moment calculation is the CENTER OF MASS  = (-1.301031, -1.157625 -3.389055)

-------------
DIPOLE MOMENT
-------------
                                X             Y             Z
Electronic contribution:     -0.21501       1.55622      -6.33237
Nuclear contribution   :      0.65826      -2.26937       7.19895
                        -----------------------------------------
Total Dipole Moment    :      0.44325      -0.71315       0.86657
                        -----------------------------------------
Magnitude (a.u.)       :      1.20665
Magnitude (Debye)      :      3.06707



--------------------
Rotational spectrum 
--------------------
 
Rotational constants in cm-1:     0.002474     0.002327     0.001927 
Rotational constants in MHz :    74.156045    69.763327    57.773244 

 Dipole components along the rotational axes: 
x,y,z [a.u.] :    -0.034759    -0.243385     1.181341 
x,y,z [Debye]:    -0.088350    -0.618635     3.002730 

 

Timings for individual modules:

Sum of individual times         ...     3342.920 sec (=  55.715 min)
GTO integral calculation        ...       90.563 sec (=   1.509 min)   2.7 %
SCF iterations                  ...     1868.163 sec (=  31.136 min)  55.9 %
MP2 module                      ...     1384.194 sec (=  23.070 min)  41.4 %
                             ****ORCA TERMINATED NORMALLY****
TOTAL RUN TIME: 0 days 1 hours 0 minutes 32 seconds 271 msec
