Job execution start: Thu Mar 10 16:45:35 GMT 2022
Shared library path: /work/e05/e05/atarzia/orca_4_2_1_linux_x86-64_openmpi314:/work/e05/e05/atarzia/openmpi-3.1.4/lib:/opt/cray/pe/papi/6.0.0.6/lib64:/opt/cray/libfabric/1.11.0.4.71/lib64
Slurm Job ID is: 1233830
Slurm Job name is: o_3_alde1_6_ami2_1_opt_MP2
nid004034

                                 *****************
                                 * O   R   C   A *
                                 *****************

           --- An Ab Initio, DFT and Semiempirical electronic structure package ---

                  #######################################################
                  #                        -***-                        #
                  #          Department of theory and spectroscopy      #
                  #               Directorship: Frank Neese             #
                  #        Max Planck Institute fuer Kohlenforschung    #
                  #                Kaiser Wilhelm Platz 1               #
                  #                 D-45470 Muelheim/Ruhr               #
                  #                      Germany                        #
                  #                                                     #
                  #                  All rights reserved                #
                  #                        -***-                        #
                  #######################################################


                         Program Version 4.2.1 -  RELEASE  -


 With contributions from (in alphabetic order):
   Daniel Aravena         : Magnetic Suceptibility
   Michael Atanasov       : Ab Initio Ligand Field Theory (pilot matlab implementation)
   Alexander A. Auer      : GIAO ZORA, VPT2
   Ute Becker             : Parallelization
   Giovanni Bistoni       : ED, misc. LED, open-shell LED, HFLD
   Martin Brehm           : Molecular dynamics
   Dmytro Bykov           : SCF Hessian
   Vijay G. Chilkuri      : MRCI spin determinant printing, contributions to CSF-ICE
   Dipayan Datta          : RHF DLPNO-CCSD density
   Achintya Kumar Dutta   : EOM-CC, STEOM-CC
   Dmitry Ganyushin       : Spin-Orbit,Spin-Spin,Magnetic field MRCI
   Miquel Garcia          : C-PCM Hessian, Gaussian charge scheme
   Yang Guo               : DLPNO-NEVPT2, CIM, IAO-localization
   Andreas Hansen         : Spin unrestricted coupled pair/coupled cluster methods
   Benjamin Helmich-Paris : CASSCF linear response (MC-RPA)
   Lee Huntington         : MR-EOM, pCC
   Robert Izsak           : Overlap fitted RIJCOSX, COSX-SCS-MP3, EOM
   Christian Kollmar      : KDIIS, OOCD, Brueckner-CCSD(T), CCSD density
   Simone Kossmann        : Meta GGA functionals, TD-DFT gradient, OOMP2, MP2 Hessian
   Martin Krupicka        : AUTO-CI
   Lucas Lang             : DCDCAS
   Dagmar Lenk            : GEPOL surface, SMD
   Dimitrios Liakos       : Extrapolation schemes; Compound Job, initial MDCI parallelization
   Dimitrios Manganas     : Further ROCIS development; embedding schemes
   Dimitrios Pantazis     : SARC Basis sets
   Taras Petrenko         : DFT Hessian,TD-DFT gradient, ASA, ECA, R-Raman, ABS, FL, XAS/XES, NRVS
   Peter Pinski           : DLPNO-MP2, DLPNO-MP2 Gradient
   Christoph Reimann      : Effective Core Potentials
   Marius Retegan         : Local ZFS, SOC
   Christoph Riplinger    : Optimizer, TS searches, QM/MM, DLPNO-CCSD(T), (RO)-DLPNO pert. Triples
   Tobias Risthaus        : Range-separated hybrids, TD-DFT gradient, RPA, STAB
   Michael Roemelt        : Original ROCIS implementation
   Masaaki Saitow         : Open-shell DLPNO-CCSD energy and density
   Barbara Sandhoefer     : DKH picture change effects
   Avijit Sen             : IP-ROCIS
   Kantharuban Sivalingam : CASSCF convergence, NEVPT2, FIC-MRCI
   Bernardo de Souza      : ESD, SOC TD-DFT
   Georgi Stoychev        : AutoAux, RI-MP2 NMR
   Willem Van den Heuvel  : Paramagnetic NMR
   Boris Wezisla          : Elementary symmetry handling
   Frank Wennmohs         : Technical directorship


 We gratefully acknowledge several colleagues who have allowed us to
 interface, adapt or use parts of their codes:
   Stefan Grimme, W. Hujo, H. Kruse,             : VdW corrections, initial TS optimization,
                  C. Bannwarth                     DFT functionals, gCP, sTDA/sTD-DF
   Ed Valeev, F. Pavosevic, A. Kumar             : LibInt (2-el integral package), F12 methods
   Garnet Chan, S. Sharma, J. Yang, R. Olivares  : DMRG
   Ulf Ekstrom                                   : XCFun DFT Library
   Mihaly Kallay                                 : mrcc  (arbitrary order and MRCC methods)
   Andreas Klamt, Michael Diedenhofen            : otool_cosmo (COSMO solvation model)
   Jiri Pittner, Ondrej Demel                    : Mk-CCSD
   Frank Weinhold                                : gennbo (NPA and NBO analysis)
   Christopher J. Cramer and Donald G. Truhlar   : smd solvation model
   Lars Goerigk                                  : TD-DFT with DH, B97 family of functionals
   V. Asgeirsson, H. Jonsson                     : NEB implementation
   FAccTs GmbH                                   : IRC, NEB, NEB-TS, Multilevel, MM, QM/MM, CI optimization
   S Lehtola, MJT Oliveira, MAL Marques          : LibXC Library


 Your calculation uses the libint2 library for the computation of 2-el integrals
 For citations please refer to: http://libint.valeyev.net

 Your ORCA version has been built with support for libXC version: 4.2.3
 For citations please refer to: https://tddft.org/programs/libxc/

 This ORCA versions uses:
   CBLAS   interface :  Fast vector & matrix operations
   LAPACKE interface :  Fast linear algebra routines
   SCALAPACK package :  Parallel linear algebra routines




***************************************
The coordinates will be read from file: _o_3_alde1_6_ami2_1_opt_B97-3c.xyz
***************************************


----- Orbital basis set information -----
Your calculation utilizes the basis: cc-pVTZ 
       H, B-Ne : Obtained from the ccRepo (grant-hill.group.shef.ac.uk/ccrepo) Feb. 2017
                 T. H. Dunning, Jr., J. Chem. Phys. 90, 1007 (1989)
            He : Obtained from the ccRepo (grant-hill.group.shef.ac.uk/ccrepo) Feb. 2017
                 D. E. Woon, T. H. Dunning, Jr., J. Chem. Phys. 100, 2975 (1994)
  Li-Be, Na-Mg : Obtained from the ccRepo (grant-hill.group.shef.ac.uk/ccrepo) Feb. 2017
                 B. P. Prascher, D. E. Woon, K. A. Peterson, T. H. Dunning, Jr., A. K. Wilson, Theor. Chem. Acc. 128, 69 (2011)
         Al-Ar : Obtained from the ccRepo (grant-hill.group.shef.ac.uk/ccrepo) Feb. 2017
                 D. E. Woon, T. H. Dunning, Jr., J. Chem. Phys. 98, 1358 (1993)
            Ca : Obtained from the Peterson Research Group Website (tyr0.chem.wsu.edu/~kipeters) Feb. 2017
                 J. Koput, K. A. Peterson, J. Phys. Chem. 106, 9595 (2002)
         Sc-Zn : Obtained from the ccRepo (grant-hill.group.shef.ac.uk/ccrepo) Feb. 2017
                 N. B. Balabanov, K. A. Peterson, J. Chem. Phys. 123, 064107 (2005)
                 N. B. Balabanov, K. A. Peterson, J. Chem. Phys. 125, 074110 (2006)
         Ga-Kr : Obtained from the ccRepo (grant-hill.group.shef.ac.uk/ccrepo) Feb. 2017
                 A. K. Wilson, D. E. Woon, K. A. Peterson, T. H. Dunning, Jr., J. Chem. Phys. 110, 7667 (1999)
             Y : Obtained from the ccRepo (grant-hill.group.shef.ac.uk/ccrepo) Feb. 2017
                 K. A. Peterson, D. Figgen, M. Dolg, H. Stoll, J. Chem. Phys. 126, 124101 (2007)
        Ag, Au : Obtained from the Peterson Research Group Website (tyr0.chem.wsu.edu/~kipeters) Feb. 2017
                 K. A. Peterson, C. Puzzarini, Theor. Chem. Acc. 114, 283 (2005)

----- AuxC basis set information -----
Your calculation utilizes the auxiliary basis: cc-pVTZ/C 
  Obtained from the EMSL Basis Set Exchange (bse.pnl.gov) Feb. 2017
  H-He, B-F, Al-Ar, Ga-Kr : F. Weigend, A. Kohn, C. Hattig, J. Chem. Phys. 116, 3175 (2002)
             Li-Be, Na-Mg : C. Haettig, Phys. Chem. Chem. Phys. 7, 59 (2005)
                       Ne : C. Haettig, Phys. Chem. Chem. Phys. 7, 59 (2005)
                            F. Weigend, A. Kohn, C. Hattig, J. Chem. Phys. 116, 3175 (2002)
                    Sc-Zn : J. G. Hill, J. A. Platts, J. Chem. Phys. 128, 044104 (2008)

================================================================================
                                        WARNINGS
                       Please study these warnings very carefully!
================================================================================


WARNING: No MP2 level density has been requested!
         To caclulate MP2 level properties use
         %mp2 Density relaxed end
         or
         %mp2 Density unrelaxed end

WARNING: Post HF methods need fully converged wavefunctions
  ===> : Setting SCFConvForced true
         You can overwrite this default with %scf ConvForced false 


INFO   : the flag for use of LIBINT has been found!

================================================================================
                                       INPUT FILE
================================================================================
NAME = o_3_alde1_6_ami2_1_opt_MP2.in
|  1> ! RI-MP2 cc-pVTZ cc-pVTZ/C TIGHTSCF printbasis Grid6 NOFINALGRID SlowConv
|  2> 
|  3> %base "_o_3_alde1_6_ami2_1_opt_MP2"
|  4> %maxcore 3000
|  5> %pal
|  6>    nprocs 32
|  7> end
|  8> 
|  9> * xyzfile 0 1 _o_3_alde1_6_ami2_1_opt_B97-3c.xyz
| 10> 
| 11>                          ****END OF INPUT****
================================================================================

                       ****************************
                       * Single Point Calculation *
                       ****************************

---------------------------------
CARTESIAN COORDINATES (ANGSTROEM)
---------------------------------
  C     -4.028401   -1.337798    0.088552
  C     -4.648316   -1.974676    1.307124
  C     -3.187818   -2.075655   -0.726259
  C     -2.625935   -1.520697   -1.876185
  H     -2.926079   -3.094135   -0.480204
  C     -2.891324   -0.193351   -2.190326
  C     -3.721828    0.573617   -1.375694
  H     -2.454570    0.268664   -3.066063
  C     -4.282477   -0.010389   -0.239242
  C     -3.979898    1.985321   -1.668401
  H     -4.924292    0.585850    0.399982
  C     -1.792336   -2.328736   -2.770326
  H     -4.380028    2.557606   -0.825784
  H     -1.373037   -1.791323   -3.626206
  C      4.118915   -1.578057    0.710341
  C      4.490260   -1.343469    2.146701
  C      4.742422   -0.881838   -0.311867
  C      4.352593   -1.066019   -1.643552
  H      5.532999   -0.178401   -0.097185
  C      3.338242   -1.960951   -1.941131
  C      2.726584   -2.701670   -0.929720
  H      3.015456   -2.111539   -2.962169
  C      3.124435   -2.503094    0.388895
  C      1.690890   -3.685108   -1.242373
  H      2.647712   -3.056448    1.185778
  C      4.955360   -0.291461   -2.727193
  H      1.234174   -4.194888   -0.382677
  H      4.412031   -0.332677   -3.676048
  C      1.145166    2.263344    0.277655
  C      0.730286    1.687127    1.611932
  C      0.206305    2.726111   -0.625539
  C      0.591674    3.147589   -1.901656
  H     -0.837197    2.750993   -0.353449
  C      1.929387    3.106802   -2.267633
  C      2.897471    2.702941   -1.347061
  H      2.246384    3.417459   -3.254510
  C      2.491128    2.281941   -0.082172
  C      4.320062    2.687787   -1.675523
  H      3.238656    1.944390    0.625418
  C     -0.421149    3.599465   -2.857076
  H      4.986798    2.424439   -0.844009
  H     -0.179268    3.451343   -3.920182
  C     -5.476924   -3.974432    2.113401
  C     -4.055047   -3.859164    2.699754
  N     -5.503776   -3.098256    0.950598
  H     -5.749165   -4.990705    1.835700
  N     -3.637537   -2.506961    2.258471
  C     -4.036093   -3.967416    4.214189
  C     -3.124664   -4.901989    2.092470
  C      3.868607   -0.858866    4.274287
  C      4.874526    0.256515    3.826419
  N      3.351798   -1.473892    3.059312
  H      3.056332   -0.465716    4.881910
  N      5.083557   -0.017481    2.382647
  C      6.199501    0.134276    4.560919
  C      4.286517    1.646198    4.010912
  C     -0.181435   -0.494726    2.038286
  C     -1.273646    0.501832    1.629938
  N      1.055107    0.229986    1.650348
  C     -0.293729   -1.817833    1.313984
  C     -0.187884   -0.726682    3.544074
  N     -0.703180    1.821274    1.877566
  H     -2.207757    0.373898    2.171109
  C     -0.843223   -4.400022   -3.490830
  C      0.343421   -4.950322   -2.671108
  N     -1.613654   -3.568940   -2.572596
  C     -1.756675   -5.573143   -3.848446
  C     -0.348523   -3.723852   -4.762789
  N      1.348828   -3.951989   -2.435545
  H      0.803697   -5.748137   -3.258920
  H      0.216394   -4.434446   -5.363326
  C     -3.901448    3.933203   -3.034643
  C     -2.507690    4.423204   -3.486118
  N     -3.735877    2.500790   -2.801111
  C     -4.869289    4.091982   -4.203966
  C     -4.369721    4.764680   -1.846305
  N     -1.520876    4.109387   -2.486378
  H     -2.557264    5.508264   -3.607583
  H     -5.343737    4.440048   -1.482572
  C      6.475700    1.306594   -3.601550
  C      6.197841    2.724417   -3.020799
  N      6.004229    0.402783   -2.564488
  C      7.985369    1.124346   -3.712450
  C      5.829853    1.165124   -4.973490
  N      4.782416    2.932304   -2.835286
  H      6.579319    3.462678   -3.726731
  H      2.613011   -0.873979    2.683223
  H      5.233588   -2.089986    2.452033
  H      4.520625    0.641181    1.855119
  H     -0.835444    2.071499    2.846514
  H      1.314159   -0.060269    0.715071
  H      1.274815    2.204514    2.405766
  H     -3.563065   -1.890922    3.055579
  H     -5.111865   -3.571307    0.146399
  H     -5.263486   -1.223103    1.815917
  H      4.392774   -1.612889    4.864983
  H      4.212923    1.899123    5.067859
  H      3.286074    1.707984    3.581855
  H      4.909585    2.402940    3.533051
  H     -6.208210   -3.621406    2.844678
  H     -3.153244   -4.869042    1.004859
  H     -3.402067   -5.908019    2.407831
  H     -2.097338   -4.714658    2.398340
  H     -1.495050    0.389678    0.569268
  H     -0.097806    0.208363    4.097428
  H      0.642100   -1.368239    3.831917
  H     -1.114091   -1.213252    3.848724
  H     -0.051035   -5.391535   -1.746934
  H     -1.184671   -3.370768   -5.364733
  H      0.312091   -2.889527   -4.547174
  H     -2.273329    3.984827   -4.463505
  H     -4.467644    5.804922   -2.151069
  H     -3.654334    4.726308   -1.028644
  H      6.764837    2.809402   -2.086388
  H      6.883141    0.922809    4.250434
  H      6.669753   -0.823134    4.342192
  H      6.061676    0.202963    5.640974
  H     -3.035034   -3.794062    4.609376
  H     -4.347127   -4.960159    4.535818
  H     -4.713984   -3.244189    4.667322
  H      0.505331   -2.491081    1.611841
  H     -0.248955   -1.684853    0.234407
  H     -1.246796   -2.283003    1.551425
  H     -1.236698   -6.291885   -4.480254
  H     -2.631564   -5.215083   -4.387846
  H     -2.100125   -6.079972   -2.949483
  H      5.963564    0.158376   -5.367386
  H      6.298965    1.858219   -5.668556
  H      4.768772    1.394908   -4.947980
  H      8.452310    1.197408   -2.733298
  H      8.417496    1.879096   -4.368218
  H      8.216142    0.142220   -4.122152
  H     -4.908593    5.130512   -4.530483
  H     -5.872614    3.787419   -3.911352
  H     -4.560917    3.473820   -5.043754

----------------------------
CARTESIAN COORDINATES (A.U.)
----------------------------
  NO LB      ZA    FRAG     MASS         X           Y           Z
   0 C     6.0000    0    12.011   -7.612575   -2.528071    0.167339
   1 C     6.0000    0    12.011   -8.784045   -3.731596    2.470107
   2 C     6.0000    0    12.011   -6.024104   -3.922420   -1.372430
   3 C     6.0000    0    12.011   -4.962299   -2.873700   -3.545476
   4 H     1.0000    0     1.008   -5.529488   -5.847068   -0.907453
   5 C     6.0000    0    12.011   -5.463810   -0.365381   -4.139117
   6 C     6.0000    0    12.011   -7.033235    1.083979   -2.599685
   7 H     1.0000    0     1.008   -4.638465    0.507702   -5.794018
   8 C     6.0000    0    12.011   -8.092708   -0.019632   -0.452101
   9 C     6.0000    0    12.011   -7.520918    3.751712   -3.152821
  10 H     1.0000    0     1.008   -9.305563    1.107095    0.755856
  11 C     6.0000    0    12.011   -3.387023   -4.400674   -5.235157
  12 H     1.0000    0     1.008   -8.277053    4.833176   -1.560506
  13 H     1.0000    0     1.008   -2.594664   -3.385110   -6.852536
  14 C     6.0000    0    12.011    7.783621   -2.982095    1.342350
  15 C     6.0000    0    12.011    8.485363   -2.538788    4.056678
  16 C     6.0000    0    12.011    8.961879   -1.666433   -0.589343
  17 C     6.0000    0    12.011    8.225210   -2.014485   -3.105864
  18 H     1.0000    0     1.008   10.455853   -0.337129   -0.183653
  19 C     6.0000    0    12.011    6.308362   -3.705661   -3.668205
  20 C     6.0000    0    12.011    5.152496   -5.105416   -1.756916
  21 H     1.0000    0     1.008    5.698385   -3.990231   -5.597688
  22 C     6.0000    0    12.011    5.904326   -4.730162    0.734906
  23 C     6.0000    0    12.011    3.195318   -6.963845   -2.347746
  24 H     1.0000    0     1.008    5.003450   -5.775850    2.240796
  25 C     6.0000    0    12.011    9.364274   -0.550781   -5.153647
  26 H     1.0000    0     1.008    2.332250   -7.927189   -0.723155
  27 H     1.0000    0     1.008    8.337531   -0.628667   -6.946724
  28 C     6.0000    0    12.011    2.164051    4.277101    0.524692
  29 C     6.0000    0    12.011    1.380041    3.188208    3.046109
  30 C     6.0000    0    12.011    0.389859    5.151603   -1.182098
  31 C     6.0000    0    12.011    1.118101    5.948081   -3.593608
  32 H     1.0000    0     1.008   -1.582072    5.198624   -0.667921
  33 C     6.0000    0    12.011    3.646014    5.871006   -4.285205
  34 C     6.0000    0    12.011    5.475427    5.107819   -2.545576
  35 H     1.0000    0     1.008    4.245051    6.458061   -6.150133
  36 C     6.0000    0    12.011    4.707550    4.312244   -0.155282
  37 C     6.0000    0    12.011    8.163735    5.079181   -3.166279
  38 H     1.0000    0     1.008    6.120173    3.674364    1.181868
  39 C     6.0000    0    12.011   -0.795856    6.802003   -5.399090
  40 H     1.0000    0     1.008    9.423683    4.581526   -1.594946
  41 H     1.0000    0     1.008   -0.338767    6.522093   -7.408070
  42 C     6.0000    0    12.011  -10.349887   -7.510588    3.993749
  43 C     6.0000    0    12.011   -7.662927   -7.292764    5.101796
  44 N     7.0000    0    14.007  -10.400630   -5.854856    1.796369
  45 H     1.0000    0     1.008  -10.864347   -9.431066    3.468970
  46 N     7.0000    0    14.007   -6.873949   -4.737471    4.267892
  47 C     6.0000    0    12.011   -7.627111   -7.497330    7.963663
  48 C     6.0000    0    12.011   -5.904759   -9.263416    3.954194
  49 C     6.0000    0    12.011    7.310609   -1.623022    8.077231
  50 C     6.0000    0    12.011    9.211519    0.484743    7.230885
  51 N     7.0000    0    14.007    6.333981   -2.785253    5.781262
  52 H     1.0000    0     1.008    5.775630   -0.880075    9.225473
  53 N     7.0000    0    14.007    9.606531   -0.033034    4.502550
  54 C     6.0000    0    12.011   11.715358    0.253744    8.618887
  55 C     6.0000    0    12.011    8.100344    3.110864    7.579525
  56 C     6.0000    0    12.011   -0.342863   -0.934897    3.851801
  57 C     6.0000    0    12.011   -2.406842    0.948324    3.080136
  58 N     7.0000    0    14.007    1.993863    0.434610    3.118706
  59 C     6.0000    0    12.011   -0.555067   -3.435207    2.483071
  60 C     6.0000    0    12.011   -0.355050   -1.373229    6.697330
  61 N     7.0000    0    14.007   -1.328817    3.441709    3.548086
  62 H     1.0000    0     1.008   -4.172057    0.706564    4.102802
  63 C     6.0000    0    12.011   -1.593461   -8.314837   -6.596712
  64 C     6.0000    0    12.011    0.648971   -9.354752   -5.047662
  65 N     7.0000    0    14.007   -3.049364   -6.744320   -4.861502
  66 C     6.0000    0    12.011   -3.319634  -10.531714   -7.272509
  67 C     6.0000    0    12.011   -0.658612   -7.037060   -9.000367
  68 N     7.0000    0    14.007    2.548916   -7.468176   -4.602514
  69 H     1.0000    0     1.008    1.518768  -10.862405   -6.158466
  70 H     1.0000    0     1.008    0.408926   -8.379888  -10.135217
  71 C     6.0000    0    12.011   -7.372668    7.432677   -5.734645
  72 C     6.0000    0    12.011   -4.738847    8.358644   -6.587808
  73 N     7.0000    0    14.007   -7.059785    4.725808   -5.293332
  74 C     6.0000    0    12.011   -9.201622    7.732725   -7.944344
  75 C     6.0000    0    12.011   -8.257576    9.003940   -3.489011
  76 N     7.0000    0    14.007   -2.874040    7.765616   -4.698574
  77 H     1.0000    0     1.008   -4.832528   10.409110   -6.817344
  78 H     1.0000    0     1.008  -10.098200    8.390475   -2.801655
  79 C     6.0000    0    12.011   12.237299    2.469104   -6.805943
  80 C     6.0000    0    12.011   11.712223    5.148402   -5.708482
  81 N     7.0000    0    14.007   11.346349    0.761150   -4.846180
  82 C     6.0000    0    12.011   15.090160    2.124705   -7.015514
  83 C     6.0000    0    12.011   11.016826    2.201766   -9.398534
  84 N     7.0000    0    14.007    9.037457    5.541251   -5.357914
  85 H     1.0000    0     1.008   12.433111    6.543514   -7.042500
  86 H     1.0000    0     1.008    4.937874   -1.651580    5.070557
  87 H     1.0000    0     1.008    9.890049   -3.949502    4.633670
  88 H     1.0000    0     1.008    8.542744    1.211656    3.505667
  89 H     1.0000    0     1.008   -1.578760    3.914566    5.379132
  90 H     1.0000    0     1.008    2.483401   -0.113891    1.351287
  91 H     1.0000    0     1.008    2.409051    4.165927    4.546239
  92 H     1.0000    0     1.008   -6.733217   -3.573324    5.774208
  93 H     1.0000    0     1.008   -9.660025   -6.748792    0.276654
  94 H     1.0000    0     1.008   -9.946547   -2.311330    3.431585
  95 H     1.0000    0     1.008    8.301139   -3.047919    9.193486
  96 H     1.0000    0     1.008    7.961270    3.588822    9.576866
  97 H     1.0000    0     1.008    6.209780    3.227621    6.768725
  98 H     1.0000    0     1.008    9.277770    4.540899    6.676499
  99 H     1.0000    0     1.008  -11.731817   -6.843465    5.375662
 100 H     1.0000    0     1.008   -5.958767   -9.201157    1.898908
 101 H     1.0000    0     1.008   -6.428974  -11.164537    4.550141
 102 H     1.0000    0     1.008   -3.963395   -8.909413    4.532207
 103 H     1.0000    0     1.008   -2.825235    0.736385    1.075760
 104 H     1.0000    0     1.008   -0.184826    0.393749    7.743017
 105 H     1.0000    0     1.008    1.213394   -2.585597    7.241274
 106 H     1.0000    0     1.008   -2.105327   -2.292715    7.273034
 107 H     1.0000    0     1.008   -0.096441  -10.188524   -3.301227
 108 H     1.0000    0     1.008   -2.238705   -6.369828  -10.137876
 109 H     1.0000    0     1.008    0.589766   -5.460414   -8.592913
 110 H     1.0000    0     1.008   -4.295970    7.530232   -8.434802
 111 H     1.0000    0     1.008   -8.442624   10.969713   -4.064931
 112 H     1.0000    0     1.008   -6.905691    8.931427   -1.943856
 113 H     1.0000    0     1.008   12.783690    5.309000   -3.942702
 114 H     1.0000    0     1.008   13.007252    1.743857    8.032157
 115 H     1.0000    0     1.008   12.604007   -1.555498    8.205554
 116 H     1.0000    0     1.008   11.454907    0.383545   10.659895
 117 H     1.0000    0     1.008   -5.735383   -7.169738    8.710458
 118 H     1.0000    0     1.008   -8.214880   -9.373342    8.571453
 119 H     1.0000    0     1.008   -8.908139   -6.130629    8.819961
 120 H     1.0000    0     1.008    0.954937   -4.707462    3.045939
 121 H     1.0000    0     1.008   -0.470458   -3.183912    0.442966
 122 H     1.0000    0     1.008   -2.356104   -4.314251    2.931769
 123 H     1.0000    0     1.008   -2.337021  -11.889940   -8.466453
 124 H     1.0000    0     1.008   -4.972935   -9.855078   -8.291828
 125 H     1.0000    0     1.008   -3.968661  -11.489482   -5.573715
 126 H     1.0000    0     1.008   11.269503    0.299287  -10.142889
 127 H     1.0000    0     1.008   11.903319    3.511525  -10.712018
 128 H     1.0000    0     1.008    9.011673    2.635995   -9.350326
 129 H     1.0000    0     1.008   15.972552    2.262774   -5.165184
 130 H     1.0000    0     1.008   15.906761    3.550977   -8.254736
 131 H     1.0000    0     1.008   15.526257    0.268756   -7.789739
 132 H     1.0000    0     1.008   -9.275897    9.695263   -8.561373
 133 H     1.0000    0     1.008  -11.097631    7.157185   -7.391384
 134 H     1.0000    0     1.008   -8.618883    6.564569   -9.531314

--------------------------------
INTERNAL COORDINATES (ANGSTROEM)
--------------------------------
 C      0   0   0     0.000000000000     0.00000000     0.00000000
 C      1   0   0     1.508252862245     0.00000000     0.00000000
 C      1   2   0     1.383809848381   120.01594842     0.00000000
 C      3   1   2     1.394998784513   121.19290923   178.49403338
 H      3   1   2     1.079978032017   121.05824433   357.02943292
 C      4   3   1     1.389590528759   119.30293165     1.52805936
 C      6   4   3     1.393414109167   120.49295247   359.26964814
 H      6   4   3     1.082185783112   120.90839694   178.87083170
 C      1   2   3     1.390689293011   121.22443410   180.09249274
 C      7   6   4     1.464644935809   121.24573557   178.10225759
 H      9   1   2     1.084450565369   119.60254057     1.05110995
 C      4   3   1     1.465367958826   120.84706290   183.16452784
 H     10   7   6     1.094357401037   114.49334542   197.77870667
 H     12   4   3     1.094145900733   115.11671365   181.92123263
 C     12   4   3     6.900829046543    96.86563875   275.97772428
 C     15  12   4     1.502018905719   135.32474396    28.40680607
 C     15  12   4     1.385059444147    93.90172004   244.84139313
 C     17  15  12     1.399741370992   120.70569961   333.47025074
 H     17  15  12     1.079779787707   120.68576157   152.87150396
 C     18  17  15     1.385050826572   119.56336317   359.57598231
 C     20  18  17     1.394897939199   120.56158768   358.43526210
 H     20  18  17     1.081381912896   120.75999566   179.42978929
 C     21  20  18     1.391569126872   119.07297248     1.72765804
 C     21  20  18     1.462041406492   120.84779511   182.35932195
 H     23  21  20     1.080966340402   119.96106430   178.90177566
 C     18  17  15     1.462034576986   121.37386160   176.97569190
 H     24  21  20     1.098882716844   116.05063176   182.35238110
 H     26  18  17     1.094180459769   114.71256440   194.58079935
 C     17  15  12     4.814556849369    84.35624771    59.72761466
 C     29  17  15     1.511438308374    93.67721453    14.74199809
 C     29  17  15     1.382525076789   130.24549242   237.49030477
 C     31  29  17     1.398079123706   120.66556481   313.30153022
 H     31  29  17     1.078678378312   119.99189037   132.40390011
 C     32  31  29     1.387472781928   119.84506261   359.78255776
 C     34  32  31     1.395615577004   120.21870170   357.15376034
 H     34  32  31     1.082091623298   120.96843498   179.26476619
 C     29  17  15     1.393353459441    41.87085650   147.29634231
 C     35  34  32     1.460096597711   122.03650385   182.07989223
 H     37  29  17     1.083245945427   119.58816545   297.88998394
 C     32  31  29     1.463840254508   119.87366903   178.30721877
 H     38  35  34     1.097863083219   115.07540050   175.50379740
 H     40  32  31     1.100291387187   115.91036928   208.67852565
 C      2   1   3     2.309913368254   142.65654741   326.08604730
 C     43   2   1     1.542346757603    74.76956124   100.38793139
 N     43   2   1     1.456199564479    37.53266091   314.97491508
 H     43   2   1     1.088137800665   144.01970971   351.35259639
 N     44  43   2     1.482396010973   102.39490193     5.37501227
 C     44  43   2     1.518416918270   112.66556178   124.68018167
 C     44  43   2     1.523774820620   111.11418728   248.56248672
 C     16  15  12     2.268900872558   149.58092064   351.11069074
 C     50  16  15     1.567332978197    73.03399813   239.16960558
 N     50  16  15     1.456540995061    39.17988666    27.82155555
 H     50  16  15     1.087917983310   143.65729827   344.15572950
 N     16  15  12     1.471704572093   113.18485084   247.79628997
 C     51  50  16     1.519864834674   111.35684896   250.08688717
 C     51  50  16     1.520200855510   111.56879329   125.95725852
 C     30  29  17     2.402809970096   127.37110062   294.34167254
 C     57  30  29     1.533883896418    68.46886930   275.00406362
 N     57  30  29     1.484836525258    36.33740231    70.60666825
 C     57  30  29     1.512558742401   137.51966838    15.76594237
 C     57  30  29     1.523563105130   108.37416154   169.00459548
 N     58  57  30     1.458656972998   105.30849655   339.93491757
 H     58  57  30     1.087105132836   113.75711467   218.19879562
 C     12   4   3     2.389595579127   152.61015476     7.51867149
 C     64  12   4     1.543663350296   117.01436427   283.17859285
 N     12   4   3     1.268514910181   121.61006764     3.92598824
 C     64  12   4     1.529213863135   119.88170945    57.13646323
 C     64  12   4     1.523094395698    89.77072703   170.02941730
 N     24  21  20     1.269602581882   122.22370106     3.31584746
 H     65  64  12     1.092651403962   107.36408519   193.48081743
 H     68  64  12     1.088447910885   109.84693023   177.56636978
 C     10   7   6     2.380550202054   153.83949030    10.71669451
 C     72  10   7     1.544827300620   117.19356975   301.52141373
 N     10   7   6     1.268182298179   122.43662774    16.63831078
 C     72  10   7     1.526185169969   120.26168395    76.76351421
 C     72  10   7     1.524066847477    89.35763401   189.95654040
 N     40  32  31     1.267611013028   122.24687437    27.49307570
 H     73  72  10     1.092962211423   107.84553755   209.81912614
 H     76  72  10     1.089217695475   111.87194902   299.77485592
 C     26  18  17     2.372701152269   153.39596076     2.49237680
 C     80  26  18     1.557144933627   111.19107984   297.19527014
 N     26  18  17     1.268295517584   122.40232354    12.64589096
 C     80  26  18     1.524668532083   125.50374482    70.70580410
 C     80  26  18     1.522941294943    89.86655027   185.54139341
 N     38  35  34     1.272245972781   123.85929535   354.22763505
 H     81  80  26     1.090364437540   108.21621956   204.51957615
 H     52  50  16     1.023301902061   108.37243250   248.19367543
 H     16  15  12     1.096837505992   109.11438921   128.55323107
 H     54  16  15     1.014403024514   106.13674157    43.31188612
 H     62  58  57     1.009438402522   109.62964349   275.67814433
 H     59  57  30     1.012965701825   108.32146123   243.32284367
 H     30  29  17     1.092874294279   108.90375332    90.31278085
 H     47  44  43     1.010164822769   110.00774880   111.75064891
 H     45  43   2     1.011981846277   110.25295887   117.38485594
 H      2   1   3     1.096432837755   108.42574116   179.29992130
 H     50  16  15     1.091889894884   103.19506547   132.23065150
 H     56  51  50     1.089276967333   110.86404019    70.76258195
 H     56  51  50     1.090318247334   111.03621934   310.87995479
 H     56  51  50     1.090514804056   111.11102357   190.39041592
 H     43   2   1     1.092781898532   101.18384251   208.06518617
 H     49  44  43     1.088484667531   111.19070005    52.28978864
 H     49  44  43     1.090183963116   111.15482054   291.83455562
 H     49  44  43     1.088139462940   110.27994883   171.41947620
 H     58  57  30     1.089320448380   109.69726802    97.97696831
 H     61  57  30     1.090239846017   111.75929618    18.27837579
 H     61  57  30     1.087806913429   110.37001595   258.11285321
 H     61  57  30     1.089688602719   110.35846214   138.65047306
 H     65  64  12     1.097433491531   108.31290618    76.95485457
 H     68  64  12     1.089105026588   110.86265176   296.56400811
 H     68  64  12     1.085816934019   111.89439308    58.64794622
 H     73  72  10     1.096532983128   109.05742277    92.88137921
 H     76  72  10     1.088381263057   109.31403801   181.03380944
 H     76  72  10     1.087115548177   111.40796982    62.15903867
 H     81  80  26     1.096280123895   107.22867319    87.58360941
 H     55  51  50     1.088829523878   110.56718523   180.78183046
 H     55  51  50     1.088858425091   110.49584307    61.32027241
 H     55  51  50     1.090977921882   111.29880276   301.35014871
 H     48  44  43     1.090112328020   111.20426318   185.08755695
 H     48  44  43     1.088910079421   110.85621472    65.58948091
 H     48  44  43     1.089918819868   111.07495780   305.85169208
 H     60  57  30     1.086498522310   110.86459874    96.33061140
 H     60  57  30     1.088657431130   111.40512919   335.39076307
 H     60  57  30     1.086783634431   109.56638276   216.24663648
 H     67  64  12     1.089104362870   110.90020181   159.52702778
 H     67  64  12     1.088389245610   110.10143629    39.72721407
 H     67  64  12     1.087643339406   110.65949077   280.40266143
 H     84  80  26     1.089300293951   111.07245688   296.04616742
 H     84  80  26     1.087916757443   109.48165611   177.17502161
 H     84  80  26     1.085976378719   111.93408690    58.01527624
 H     83  80  26     1.087250176076   110.59176747   286.44026428
 H     83  80  26     1.089225771067   110.71929687   165.53755729
 H     83  80  26     1.088890717650   110.18360829    45.72564783
 H     75  72  10     1.089359399782   110.59196487   163.10717582
 H     75  72  10     1.088596249118   110.45239764    43.22905702
 H     75  72  10     1.087410557035   110.65403791   283.62094412

---------------------------
INTERNAL COORDINATES (A.U.)
---------------------------
 C      0   0   0     0.000000000000     0.00000000     0.00000000
 C      1   0   0     2.850184850346     0.00000000     0.00000000
 C      1   2   0     2.615021634864   120.01594842     0.00000000
 C      3   1   2     2.636165659882   121.19290923   178.49403338
 H      3   1   2     2.040862711163   121.05824433   357.02943292
 C      4   3   1     2.625945537645   119.30293165     1.52805936
 C      6   4   3     2.633171057467   120.49295247   359.26964814
 H      6   4   3     2.045034756104   120.90839694   178.87083170
 C      1   2   3     2.628021901166   121.22443410   180.09249274
 C      7   6   4     2.767777812113   121.24573557   178.10225759
 H      9   1   2     2.049314574324   119.60254057     1.05110995
 C      4   3   1     2.769144127604   120.84706290   183.16452784
 H     10   7   6     2.068035780589   114.49334542   197.77870667
 H     12   4   3     2.067636102937   115.11671365   181.92123263
 C     12   4   3    13.040676994976    96.86563875   275.97772428
 C     15  12   4     2.838404379781   135.32474396    28.40680607
 C     15  12   4     2.617383028639    93.90172004   244.84139313
 C     17  15  12     2.645127849494   120.70569961   333.47025074
 H     17  15  12     2.040488083710   120.68576157   152.87150396
 C     18  17  15     2.617366743782   119.56336317   359.57598231
 C     20  18  17     2.635975089857   120.56158768   358.43526210
 H     20  18  17     2.043515661549   120.75999566   179.42978929
 C     21  20  18     2.629684546209   119.07297248     1.72765804
 C     21  20  18     2.762857854723   120.84779511   182.35932195
 H     23  21  20     2.042730343346   119.96106430   178.90177566
 C     18  17  15     2.762844948827   121.37386160   176.97569190
 H     24  21  20     2.076587388134   116.05063176   182.35238110
 H     26  18  17     2.067701410052   114.71256440   194.58079935
 C     17  15  12     9.098193901502    84.35624771    59.72761466
 C     29  17  15     2.856204471144    93.67721453    14.74199809
 C     29  17  15     2.612593768410   130.24549242   237.49030477
 C     31  29  17     2.641986657357   120.66556481   313.30153022
 H     31  29  17     2.038406721593   119.99189037   132.40390011
 C     32  31  29     2.621943576113   119.84506261   359.78255776
 C     34  32  31     2.637331228771   120.21870170   357.15376034
 H     34  32  31     2.044856819844   120.96843498   179.26476619
 C     29  17  15     2.633056446095    41.87085650   147.29634231
 C     35  34  32     2.759182698744   122.03650385   182.07989223
 H     37  29  17     2.047038172538   119.58816545   297.88998394
 C     32  31  29     2.766257184830   119.87366903   178.30721877
 H     38  35  34     2.074660559827   115.07540050   175.50379740
 H     40  32  31     2.079249389296   115.91036928   208.67852565
 C      2   1   3     4.365103659084   142.65654741   326.08604730
 C     43   2   1     2.914612975412    74.76956124   100.38793139
 N     43   2   1     2.751818373201    37.53266091   314.97491508
 H     43   2   1     2.056282439225   144.01970971   351.35259639
 N     44  43   2     2.801322482756   102.39490193     5.37501227
 C     44  43   2     2.869392132643   112.66556178   124.68018167
 C     44  43   2     2.879517100737   111.11418728   248.56248672
 C     16  15  12     4.287601274150   149.58092064   351.11069074
 C     50  16  15     2.961830089456    73.03399813   239.16960558
 N     50  16  15     2.752463583494    39.17988666    27.82155555
 H     50  16  15     2.055867044624   143.65729827   344.15572950
 N     16  15  12     2.781118591296   113.18485084   247.79628997
 C     51  50  16     2.872128298111   111.35684896   250.08688717
 C     51  50  16     2.872763285466   111.56879329   125.95725852
 C     30  29  17     4.540652795338   127.37110062   294.34167254
 C     57  30  29     2.898620485462    68.46886930   275.00406362
 N     57  30  29     2.805934386381    36.33740231    70.60666825
 C     57  30  29     2.858321784606   137.51966838    15.76594237
 C     57  30  29     2.879117016442   108.37416154   169.00459548
 N     58  57  30     2.756462202301   105.30849655   339.93491757
 H     58  57  30     2.054330979840   113.75711467   218.19879562
 C     12   4   3     4.515681215378   152.61015476     7.51867149
 C     64  12   4     2.917100975030   117.01436427   283.17859285
 N     12   4   3     2.397145777038   121.61006764     3.92598824
 C     64  12   4     2.889795401522   119.88170945    57.13646323
 C     64  12   4     2.878231283979    89.77072703   170.02941730
 N     24  21  20     2.399201178676   122.22370106     3.31584746
 H     65  64  12     2.064811913332   107.36408519   193.48081743
 H     68  64  12     2.056868462611   109.84693023   177.56636978
 C     10   7   6     4.498587929933   153.83949030    10.71669451
 C     72  10   7     2.919300522377   117.19356975   301.52141373
 N     10   7   6     2.396517231446   122.43662774    16.63831078
 C     72  10   7     2.884072000894   120.26168395    76.76351421
 C     72  10   7     2.880068951520    89.35763401   189.95654040
 N     40  32  31     2.395437658966   122.24687437    27.49307570
 H     73  72  10     2.065399254314   107.84553755   209.81912614
 H     76  72  10     2.058323144669   111.87194902   299.77485592
 C     26  18  17     4.483755375428   153.39596076     2.49237680
 C     80  26  18     2.942577475378   111.19107984   297.19527014
 N     26  18  17     2.396731185114   122.40232354    12.64589096
 C     80  26  18     2.881205970645   125.50374482    70.70580410
 C     80  26  18     2.877941965481    89.86655027   185.54139341
 N     38  35  34     2.404196463540   123.85929535   354.22763505
 H     81  80  26     2.060490173117   108.21621956   204.51957615
 H     52  50  16     1.933760347216   108.37243250   248.19367543
 H     16  15  12     2.072722499737   109.11438921   128.55323107
 H     54  16  15     1.916943905753   106.13674157    43.31188612
 H     62  58  57     1.907562129830   109.62964349   275.67814433
 H     59  57  30     1.914227759504   108.32146123   243.32284367
 H     30  29  17     2.065233114990   108.90375332    90.31278085
 H     47  44  43     1.908934865154   110.00774880   111.75064891
 H     45  43   2     1.912368541964   110.25295887   117.38485594
 H      2   1   3     2.071957787596   108.42574116   179.29992130
 H     50  16  15     2.063372869727   103.19506547   132.23065150
 H     56  51  50     2.058435152248   110.86404019    70.76258195
 H     56  51  50     2.060402886278   111.03621934   310.87995479
 H     56  51  50     2.060774324653   111.11102357   190.39041592
 H     43   2   1     2.065058512333   101.18384251   208.06518617
 H     49  44  43     2.056937922606   111.19070005    52.28978864
 H     49  44  43     2.060149125882   111.15482054   291.83455562
 H     49  44  43     2.056285580469   110.27994883   171.41947620
 H     58  57  30     2.058517319519   109.69726802    97.97696831
 H     61  57  30     2.060254729260   111.75929618    18.27837579
 H     61  57  30     2.055657152966   110.37001595   258.11285321
 H     61  57  30     2.059213030394   110.35846214   138.65047306
 H     65  64  12     2.073848749186   108.31290618    76.95485457
 H     68  64  12     2.058110231329   110.86265176   296.56400811
 H     68  64  12     2.051896636869   111.89439308    58.64794622
 H     73  72  10     2.072147034923   109.05742277    92.88137921
 H     76  72  10     2.056742516469   109.31403801   181.03380944
 H     76  72  10     2.054350661982   111.40796982    62.15903867
 H     81  80  26     2.071669200223   107.22867319    87.58360941
 H     55  51  50     2.057589606658   110.56718523   180.78183046
 H     55  51  50     2.057644222036   110.49584307    61.32027241
 H     55  51  50     2.061649490512   111.29880276   301.35014871
 H     48  44  43     2.060013755170   111.20426318   185.08755695
 H     48  44  43     2.057741834572   110.85621472    65.58948091
 H     48  44  43     2.059648077756   111.07495780   305.85169208
 H     60  57  30     2.053184652075   110.86459874    96.33061140
 H     60  57  30     2.057264398494   111.40512919   335.39076307
 H     60  57  30     2.053723435903   109.56638276   216.24663648
 H     67  64  12     2.058108977082   110.90020181   159.52702778
 H     67  64  12     2.056757601307   110.10143629    39.72721407
 H     67  64  12     2.055348042861   110.65949077   280.40266143
 H     84  80  26     2.058479233167   111.07245688   296.04616742
 H     84  80  26     2.055864728071   109.48165611   177.17502161
 H     84  80  26     2.052197943686   111.93408690    58.01527624
 H     83  80  26     2.054605071841   110.59176747   286.44026428
 H     83  80  26     2.058338405327   110.71929687   165.53755729
 H     83  80  26     2.057705246128   110.18360829    45.72564783
 H     75  72  10     2.058590927001   110.59196487   163.10717582
 H     75  72  10     2.057148781246   110.45239764    43.22905702
 H     75  72  10     2.054908147932   110.65403791   283.62094412

---------------------
BASIS SET INFORMATION
---------------------
There are 3 groups of distinct atoms

 Group   1 Type C   : 18s5p2d1f contracted to 4s3p2d1f pattern {8811/311/11/1}
 Group   2 Type H   : 5s2p1d contracted to 3s2p1d pattern {311/11/1}
 Group   3 Type N   : 18s5p2d1f contracted to 4s3p2d1f pattern {8811/311/11/1}

Atom   0C    basis set group =>   1
Atom   1C    basis set group =>   1
Atom   2C    basis set group =>   1
Atom   3C    basis set group =>   1
Atom   4H    basis set group =>   2
Atom   5C    basis set group =>   1
Atom   6C    basis set group =>   1
Atom   7H    basis set group =>   2
Atom   8C    basis set group =>   1
Atom   9C    basis set group =>   1
Atom  10H    basis set group =>   2
Atom  11C    basis set group =>   1
Atom  12H    basis set group =>   2
Atom  13H    basis set group =>   2
Atom  14C    basis set group =>   1
Atom  15C    basis set group =>   1
Atom  16C    basis set group =>   1
Atom  17C    basis set group =>   1
Atom  18H    basis set group =>   2
Atom  19C    basis set group =>   1
Atom  20C    basis set group =>   1
Atom  21H    basis set group =>   2
Atom  22C    basis set group =>   1
Atom  23C    basis set group =>   1
Atom  24H    basis set group =>   2
Atom  25C    basis set group =>   1
Atom  26H    basis set group =>   2
Atom  27H    basis set group =>   2
Atom  28C    basis set group =>   1
Atom  29C    basis set group =>   1
Atom  30C    basis set group =>   1
Atom  31C    basis set group =>   1
Atom  32H    basis set group =>   2
Atom  33C    basis set group =>   1
Atom  34C    basis set group =>   1
Atom  35H    basis set group =>   2
Atom  36C    basis set group =>   1
Atom  37C    basis set group =>   1
Atom  38H    basis set group =>   2
Atom  39C    basis set group =>   1
Atom  40H    basis set group =>   2
Atom  41H    basis set group =>   2
Atom  42C    basis set group =>   1
Atom  43C    basis set group =>   1
Atom  44N    basis set group =>   3
Atom  45H    basis set group =>   2
Atom  46N    basis set group =>   3
Atom  47C    basis set group =>   1
Atom  48C    basis set group =>   1
Atom  49C    basis set group =>   1
Atom  50C    basis set group =>   1
Atom  51N    basis set group =>   3
Atom  52H    basis set group =>   2
Atom  53N    basis set group =>   3
Atom  54C    basis set group =>   1
Atom  55C    basis set group =>   1
Atom  56C    basis set group =>   1
Atom  57C    basis set group =>   1
Atom  58N    basis set group =>   3
Atom  59C    basis set group =>   1
Atom  60C    basis set group =>   1
Atom  61N    basis set group =>   3
Atom  62H    basis set group =>   2
Atom  63C    basis set group =>   1
Atom  64C    basis set group =>   1
Atom  65N    basis set group =>   3
Atom  66C    basis set group =>   1
Atom  67C    basis set group =>   1
Atom  68N    basis set group =>   3
Atom  69H    basis set group =>   2
Atom  70H    basis set group =>   2
Atom  71C    basis set group =>   1
Atom  72C    basis set group =>   1
Atom  73N    basis set group =>   3
Atom  74C    basis set group =>   1
Atom  75C    basis set group =>   1
Atom  76N    basis set group =>   3
Atom  77H    basis set group =>   2
Atom  78H    basis set group =>   2
Atom  79C    basis set group =>   1
Atom  80C    basis set group =>   1
Atom  81N    basis set group =>   3
Atom  82C    basis set group =>   1
Atom  83C    basis set group =>   1
Atom  84N    basis set group =>   3
Atom  85H    basis set group =>   2
Atom  86H    basis set group =>   2
Atom  87H    basis set group =>   2
Atom  88H    basis set group =>   2
Atom  89H    basis set group =>   2
Atom  90H    basis set group =>   2
Atom  91H    basis set group =>   2
Atom  92H    basis set group =>   2
Atom  93H    basis set group =>   2
Atom  94H    basis set group =>   2
Atom  95H    basis set group =>   2
Atom  96H    basis set group =>   2
Atom  97H    basis set group =>   2
Atom  98H    basis set group =>   2
Atom  99H    basis set group =>   2
Atom 100H    basis set group =>   2
Atom 101H    basis set group =>   2
Atom 102H    basis set group =>   2
Atom 103H    basis set group =>   2
Atom 104H    basis set group =>   2
Atom 105H    basis set group =>   2
Atom 106H    basis set group =>   2
Atom 107H    basis set group =>   2
Atom 108H    basis set group =>   2
Atom 109H    basis set group =>   2
Atom 110H    basis set group =>   2
Atom 111H    basis set group =>   2
Atom 112H    basis set group =>   2
Atom 113H    basis set group =>   2
Atom 114H    basis set group =>   2
Atom 115H    basis set group =>   2
Atom 116H    basis set group =>   2
Atom 117H    basis set group =>   2
Atom 118H    basis set group =>   2
Atom 119H    basis set group =>   2
Atom 120H    basis set group =>   2
Atom 121H    basis set group =>   2
Atom 122H    basis set group =>   2
Atom 123H    basis set group =>   2
Atom 124H    basis set group =>   2
Atom 125H    basis set group =>   2
Atom 126H    basis set group =>   2
Atom 127H    basis set group =>   2
Atom 128H    basis set group =>   2
Atom 129H    basis set group =>   2
Atom 130H    basis set group =>   2
Atom 131H    basis set group =>   2
Atom 132H    basis set group =>   2
Atom 133H    basis set group =>   2
Atom 134H    basis set group =>   2

-------------------------
BASIS SET IN INPUT FORMAT
-------------------------

 # Basis set for element : H 
 NewGTO H 
 S 3 
   1      33.8700000000      0.0254948632
   2       5.0950000000      0.1903627659
   3       1.1590000000      0.8521620222
 S 1 
   1       0.3258000000      1.0000000000
 S 1 
   1       0.1027000000      1.0000000000
 P 1 
   1       1.4070000000      1.0000000000
 P 1 
   1       0.3880000000      1.0000000000
 D 1 
   1       1.0570000000      1.0000000000
  end;

 # Basis set for element : C 
 NewGTO C 
 S 8 
   1    8236.0000000000      0.0005424302
   2    1235.0000000000      0.0041964279
   3     280.8000000000      0.0215409141
   4      79.2700000000      0.0836149496
   5      25.5900000000      0.2398716189
   6       8.9970000000      0.4437518201
   7       3.3190000000      0.3535796965
   8       0.3643000000     -0.0091763661
 S 8 
   1    8236.0000000000     -0.0001963922
   2    1235.0000000000     -0.0015259503
   3     280.8000000000     -0.0078904490
   4      79.2700000000     -0.0315148705
   5      25.5900000000     -0.0969100083
   6       8.9970000000     -0.2205415263
   7       3.3190000000     -0.2960691129
   8       0.3643000000      1.0405034329
 S 1 
   1       0.9059000000      1.0000000000
 S 1 
   1       0.1285000000      1.0000000000
 P 3 
   1      18.7100000000      0.0394263872
   2       4.1330000000      0.2440889849
   3       1.2000000000      0.8154920089
 P 1 
   1       0.3827000000      1.0000000000
 P 1 
   1       0.1209000000      1.0000000000
 D 1 
   1       1.0970000000      1.0000000000
 D 1 
   1       0.3180000000      1.0000000000
 F 1 
   1       0.7610000000      1.0000000000
  end;

 # Basis set for element : N 
 NewGTO N 
 S 8 
   1   11420.0000000000      0.0005349809
   2    1712.0000000000      0.0041376631
   3     389.3000000000      0.0212509149
   4     110.0000000000      0.0825762988
   5      35.5700000000      0.2384132727
   6      12.5400000000      0.4434316661
   7       4.6440000000      0.3554319088
   8       0.5118000000     -0.0087029018
 S 8 
   1   11420.0000000000     -0.0001987770
   2    1712.0000000000     -0.0015470035
   3     389.3000000000     -0.0079925633
   4     110.0000000000     -0.0320255651
   5      35.5700000000     -0.0991102048
   6      12.5400000000     -0.2282927747
   7       4.6440000000     -0.2981827627
   8       0.5118000000      1.0370005182
 S 1 
   1       1.2930000000      1.0000000000
 S 1 
   1       0.1787000000      1.0000000000
 P 3 
   1      26.6300000000      0.0398072123
   2       5.9480000000      0.2490026605
   3       1.7420000000      0.8104797267
 P 1 
   1       0.5550000000      1.0000000000
 P 1 
   1       0.1725000000      1.0000000000
 D 1 
   1       1.6540000000      1.0000000000
 D 1 
   1       0.4690000000      1.0000000000
 F 1 
   1       1.0930000000      1.0000000000
  end;

---------------------------------
AUXILIARY/C BASIS SET INFORMATION
---------------------------------
There are 3 groups of distinct atoms

 Group   1 Type C   : 8s6p5d3f1g contracted to 8s6p5d3f1g pattern {11111111/111111/11111/111/1}
 Group   2 Type H   : 4s3p2d1f contracted to 4s3p2d1f pattern {1111/111/11/1}
 Group   3 Type N   : 8s6p5d3f1g contracted to 8s6p5d3f1g pattern {11111111/111111/11111/111/1}

Atom   0C    basis set group =>   1
Atom   1C    basis set group =>   1
Atom   2C    basis set group =>   1
Atom   3C    basis set group =>   1
Atom   4H    basis set group =>   2
Atom   5C    basis set group =>   1
Atom   6C    basis set group =>   1
Atom   7H    basis set group =>   2
Atom   8C    basis set group =>   1
Atom   9C    basis set group =>   1
Atom  10H    basis set group =>   2
Atom  11C    basis set group =>   1
Atom  12H    basis set group =>   2
Atom  13H    basis set group =>   2
Atom  14C    basis set group =>   1
Atom  15C    basis set group =>   1
Atom  16C    basis set group =>   1
Atom  17C    basis set group =>   1
Atom  18H    basis set group =>   2
Atom  19C    basis set group =>   1
Atom  20C    basis set group =>   1
Atom  21H    basis set group =>   2
Atom  22C    basis set group =>   1
Atom  23C    basis set group =>   1
Atom  24H    basis set group =>   2
Atom  25C    basis set group =>   1
Atom  26H    basis set group =>   2
Atom  27H    basis set group =>   2
Atom  28C    basis set group =>   1
Atom  29C    basis set group =>   1
Atom  30C    basis set group =>   1
Atom  31C    basis set group =>   1
Atom  32H    basis set group =>   2
Atom  33C    basis set group =>   1
Atom  34C    basis set group =>   1
Atom  35H    basis set group =>   2
Atom  36C    basis set group =>   1
Atom  37C    basis set group =>   1
Atom  38H    basis set group =>   2
Atom  39C    basis set group =>   1
Atom  40H    basis set group =>   2
Atom  41H    basis set group =>   2
Atom  42C    basis set group =>   1
Atom  43C    basis set group =>   1
Atom  44N    basis set group =>   3
Atom  45H    basis set group =>   2
Atom  46N    basis set group =>   3
Atom  47C    basis set group =>   1
Atom  48C    basis set group =>   1
Atom  49C    basis set group =>   1
Atom  50C    basis set group =>   1
Atom  51N    basis set group =>   3
Atom  52H    basis set group =>   2
Atom  53N    basis set group =>   3
Atom  54C    basis set group =>   1
Atom  55C    basis set group =>   1
Atom  56C    basis set group =>   1
Atom  57C    basis set group =>   1
Atom  58N    basis set group =>   3
Atom  59C    basis set group =>   1
Atom  60C    basis set group =>   1
Atom  61N    basis set group =>   3
Atom  62H    basis set group =>   2
Atom  63C    basis set group =>   1
Atom  64C    basis set group =>   1
Atom  65N    basis set group =>   3
Atom  66C    basis set group =>   1
Atom  67C    basis set group =>   1
Atom  68N    basis set group =>   3
Atom  69H    basis set group =>   2
Atom  70H    basis set group =>   2
Atom  71C    basis set group =>   1
Atom  72C    basis set group =>   1
Atom  73N    basis set group =>   3
Atom  74C    basis set group =>   1
Atom  75C    basis set group =>   1
Atom  76N    basis set group =>   3
Atom  77H    basis set group =>   2
Atom  78H    basis set group =>   2
Atom  79C    basis set group =>   1
Atom  80C    basis set group =>   1
Atom  81N    basis set group =>   3
Atom  82C    basis set group =>   1
Atom  83C    basis set group =>   1
Atom  84N    basis set group =>   3
Atom  85H    basis set group =>   2
Atom  86H    basis set group =>   2
Atom  87H    basis set group =>   2
Atom  88H    basis set group =>   2
Atom  89H    basis set group =>   2
Atom  90H    basis set group =>   2
Atom  91H    basis set group =>   2
Atom  92H    basis set group =>   2
Atom  93H    basis set group =>   2
Atom  94H    basis set group =>   2
Atom  95H    basis set group =>   2
Atom  96H    basis set group =>   2
Atom  97H    basis set group =>   2
Atom  98H    basis set group =>   2
Atom  99H    basis set group =>   2
Atom 100H    basis set group =>   2
Atom 101H    basis set group =>   2
Atom 102H    basis set group =>   2
Atom 103H    basis set group =>   2
Atom 104H    basis set group =>   2
Atom 105H    basis set group =>   2
Atom 106H    basis set group =>   2
Atom 107H    basis set group =>   2
Atom 108H    basis set group =>   2
Atom 109H    basis set group =>   2
Atom 110H    basis set group =>   2
Atom 111H    basis set group =>   2
Atom 112H    basis set group =>   2
Atom 113H    basis set group =>   2
Atom 114H    basis set group =>   2
Atom 115H    basis set group =>   2
Atom 116H    basis set group =>   2
Atom 117H    basis set group =>   2
Atom 118H    basis set group =>   2
Atom 119H    basis set group =>   2
Atom 120H    basis set group =>   2
Atom 121H    basis set group =>   2
Atom 122H    basis set group =>   2
Atom 123H    basis set group =>   2
Atom 124H    basis set group =>   2
Atom 125H    basis set group =>   2
Atom 126H    basis set group =>   2
Atom 127H    basis set group =>   2
Atom 128H    basis set group =>   2
Atom 129H    basis set group =>   2
Atom 130H    basis set group =>   2
Atom 131H    basis set group =>   2
Atom 132H    basis set group =>   2
Atom 133H    basis set group =>   2
Atom 134H    basis set group =>   2

-------------------------------------
AUXILIARY/C BASIS SET IN INPUT FORMAT
-------------------------------------

 # Auxiliary/C basis set for element : H 
 NewAuxCGTO H 
 S 1 
   1       8.5128275910      1.0000000000
 S 1 
   1       1.8730891166      1.0000000000
 S 1 
   1       0.5261842694      1.0000000000
 S 1 
   1       0.2897398994      1.0000000000
 P 1 
   1       2.3725491635      1.0000000000
 P 1 
   1       1.1804084468      1.0000000000
 P 1 
   1       0.6038220424      1.0000000000
 D 1 
   1       1.8096373189      1.0000000000
 D 1 
   1       1.1439726055      1.0000000000
 F 1 
   1       1.8063060576      1.0000000000
  end;

 # Auxiliary/C basis set for element : C 
 NewAuxCGTO C 
 S 1 
   1     280.5566118800      1.0000000000
 S 1 
   1      60.2302471910      1.0000000000
 S 1 
   1      22.1166508240      1.0000000000
 S 1 
   1       6.8620932896      1.0000000000
 S 1 
   1       1.5622549539      1.0000000000
 S 1 
   1       0.9124504549      1.0000000000
 S 1 
   1       0.5027491704      1.0000000000
 S 1 
   1       0.2158234875      1.0000000000
 P 1 
   1      24.2318651760      1.0000000000
 P 1 
   1       6.4764514185      1.0000000000
 P 1 
   1       2.1290884677      1.0000000000
 P 1 
   1       1.0375639746      1.0000000000
 P 1 
   1       0.5494127505      1.0000000000
 P 1 
   1       0.2815265223      1.0000000000
 D 1 
   1       9.7189810815      1.0000000000
 D 1 
   1       3.0351475003      1.0000000000
 D 1 
   1       1.4677737562      1.0000000000
 D 1 
   1       0.5737082791      1.0000000000
 D 1 
   1       0.2905558967      1.0000000000
 F 1 
   1       2.2756201303      1.0000000000
 F 1 
   1       1.1968898852      1.0000000000
 F 1 
   1       0.5415748722      1.0000000000
 G 1 
   1       1.2166101638      1.0000000000
  end;

 # Auxiliary/C basis set for element : N 
 NewAuxCGTO N 
 S 1 
   1     287.5092694700      1.0000000000
 S 1 
   1      64.2760308980      1.0000000000
 S 1 
   1      21.6819240160      1.0000000000
 S 1 
   1       7.9068743193      1.0000000000
 S 1 
   1       2.4319673913      1.0000000000
 S 1 
   1       1.2226681474      1.0000000000
 S 1 
   1       0.7667482736      1.0000000000
 S 1 
   1       0.3115884699      1.0000000000
 P 1 
   1      34.9650273710      1.0000000000
 P 1 
   1      10.3238966480      1.0000000000
 P 1 
   1       2.8981582643      1.0000000000
 P 1 
   1       1.4077404555      1.0000000000
 P 1 
   1       0.8508338654      1.0000000000
 P 1 
   1       0.3735327414      1.0000000000
 D 1 
   1      13.9086370890      1.0000000000
 D 1 
   1       4.5847232531      1.0000000000
 D 1 
   1       2.2101848651      1.0000000000
 D 1 
   1       0.8376830121      1.0000000000
 D 1 
   1       0.4194837561      1.0000000000
 F 1 
   1       3.4730665788      1.0000000000
 F 1 
   1       1.5589463548      1.0000000000
 F 1 
   1       0.8467763824      1.0000000000
 G 1 
   1       1.7764066281      1.0000000000
  end;



           ************************************************************
           *        Program running with 32 parallel MPI-processes    *
           *              working on a common directory               *
           ************************************************************
------------------------------------------------------------------------------
                           ORCA GTO INTEGRAL CALCULATION
------------------------------------------------------------------------------

                         BASIS SET STATISTICS AND STARTUP INFO

 # of primitive gaussian shells          ... 2214
 # of primitive gaussian functions       ... 4302
 # of contracted shells                  ... 1062
 # of contracted basis functions         ... 2898
 Highest angular momentum                ...    3
 Maximum contraction depth               ...    8
 Integral package used                   ... LIBINT
 Integral threshhold            Thresh   ...  2.500e-11
 Primitive cut-off              TCut     ...  2.500e-12


------------------------------ INTEGRAL EVALUATION ----------------------------


 * One electron integrals 
 Pre-screening matrix                    ... done
 Shell pair data                         ... done (   0.091 sec)



           ************************************************************
           *        Program running with 32 parallel MPI-processes    *
           *              working on a common directory               *
           ************************************************************
-------------------------------------------------------------------------------
                                 ORCA SCF
-------------------------------------------------------------------------------

------------
SCF SETTINGS
------------
Hamiltonian:
 Ab initio Hamiltonian  Method          .... Hartree-Fock(GTOs)


General Settings:
 Integral files         IntName         .... _o_3_alde1_6_ami2_1_opt_MP2
 Hartree-Fock type      HFTyp           .... RHF
 Total Charge           Charge          ....    0
 Multiplicity           Mult            ....    1
 Number of Electrons    NEL             ....  462
 Basis Dimension        Dim             .... 2898
 Nuclear Repulsion      ENuc            ....  10122.1363763638 Eh

Convergence Acceleration:
 DIIS                   CNVDIIS         .... on
   Start iteration      DIISMaxIt       ....     0
   Startup error        DIISStart       ....  0.200000
   # of expansion vecs  DIISMaxEq       ....     5
   Bias factor          DIISBfac        ....   1.050
   Max. coefficient     DIISMaxC        ....  10.000
 Newton-Raphson         CNVNR           .... off
 SOSCF                  CNVSOSCF        .... on
   Start iteration      SOSCFMaxIt      ....   150
   Startup grad/error   SOSCFStart      ....  0.001000
 Level Shifting         CNVShift        .... on
   Level shift para.    LevelShift      ....    0.2500
   Turn off err/grad.   ShiftErr        ....    0.0000
 Zerner damping         CNVZerner       .... off
 Static damping         CNVDamp         .... on
   Fraction old density DampFac         ....    0.8500
   Max. Damping (<1)    DampMax         ....    0.9800
   Min. Damping (>=0)   DampMin         ....    0.0000
   Turn off err/grad.   DampErr         ....    0.0300
 Fernandez-Rico         CNVRico         .... off

SCF Procedure:
 Maximum # iterations   MaxIter         ....   125
 SCF integral mode      SCFMode         .... Direct
   Integral package                     .... LIBINT
 Reset frequency        DirectResetFreq ....    20
 Integral Threshold     Thresh          ....  2.500e-11 Eh
 Primitive CutOff       TCut            ....  2.500e-12 Eh

Convergence Tolerance:
 Convergence Check Mode ConvCheckMode   .... Total+1el-Energy
 Convergence forced     ConvForced      .... 1
 Energy Change          TolE            ....  1.000e-08 Eh
 1-El. energy change                    ....  1.000e-05 Eh
 Orbital Gradient       TolG            ....  1.000e-05
 Orbital Rotation angle TolX            ....  1.000e-05
 DIIS Error             TolErr          ....  5.000e-07


Diagonalization of the overlap matrix:
Smallest eigenvalue                        ... 1.759e-05
Time for diagonalization                   ...    2.818 sec
Threshold for overlap eigenvalues          ... 1.000e-08
Number of eigenvalues below threshold      ... 0
Time for construction of square roots      ...    1.051 sec
Total time needed                          ...    3.883 sec

-------------------
DFT GRID GENERATION
-------------------

General Integration Accuracy     IntAcc      ...  5.340
Radial Grid Type                 RadialGrid  ... Gauss-Chebyshev
Angular Grid (max. acc.)         AngularGrid ... Lebedev-590
Angular grid pruning method      GridPruning ... 3 (G Style)
Weight generation scheme         WeightScheme... Becke
Basis function cutoff            BFCut       ...    1.0000e-11
Integration weight cutoff        WCut        ...    1.0000e-14
Grids for H and He will be reduced by one unit

# of grid points (after initial pruning)     ... 1831392 (   0.0 sec)
# of grid points (after weights+screening)   ... 1484888 (   4.3 sec)
nearest neighbour list constructed           ...    0.0 sec
Grid point re-assignment to atoms done       ...    0.2 sec
Grid point division into batches done        ...   13.9 sec
Reduced shell lists constructed in   15.5 sec

Total number of grid points                  ...  1484888
Total number of batches                      ...    23267
Average number of points per batch           ...       63
Average number of grid points per atom       ...    10999
Average number of shells per batch           ...   280.46 (26.41%)
Average number of basis functions per batch  ...   648.78 (22.39%)
Average number of large shells per batch     ...   147.57 (52.62%)
Average number of large basis fcns per batch ...   356.60 (54.96%)
Maximum spatial batch extension              ...  18.26, 10.24, 11.79 au
Average spatial batch extension              ...   0.03,  0.03,  0.03 au

Time for grid setup =   20.392 sec

------------------------------
INITIAL GUESS: MODEL POTENTIAL
------------------------------
Loading Hartree-Fock densities                     ... done
Calculating cut-offs                               ... done
Setting up the integral package                    ... done
Initializing the effective Hamiltonian             ... done
Starting the Coulomb interaction                   ... done (   1.7 sec)
Reading the grid                                   ... done
Mapping shells                                     ... done
Starting the XC term evaluation                    ... done (   1.3 sec)
Transforming the Hamiltonian                       ... done (   0.8 sec)
Diagonalizing the Hamiltonian                      ... done (   1.2 sec)
Back transforming the eigenvectors                 ... done (   0.5 sec)
Now organizing SCF variables                       ... done
                      ------------------
                      INITIAL GUESS DONE (  26.2 sec)
                      ------------------
--------------
SCF ITERATIONS
--------------
ITER       Energy         Delta-E        Max-DP      RMS-DP      [F,P]     Damp
               ***  Starting incremental Fock matrix formation  ***
  0  -2624.4832713409   0.000000000000 0.03038225  0.00014526  0.2489575 0.8500
  1  -2624.9884470857  -0.505175744796 0.03953863  0.00015937  0.2030676 0.8500
                               ***Turning on DIIS***
  2  -2625.3946423220  -0.406195236324 0.03303462  0.00013548  0.1612641 0.8500
  3  -2635.1913634606  -9.796721138589 0.01840749  0.00009400  0.1285428 0.8500
  4  -2639.3236583582  -4.132294897609 0.00972749  0.00006814  0.1058046 0.8500
  5  -2639.1683867471   0.155271611178 0.00717803  0.00005471  0.0894640 0.8500
  6  -2637.9500486277   1.218338119384 0.00615293  0.00004615  0.0763913 0.8500
  7  -2636.0392329186   1.910815709041 0.00526383  0.00003988  0.0653935 0.8500
  8  -2634.5305339094   1.508699009262 0.00449337  0.00003442  0.0557526 0.8500
  9  -2633.3772664923   1.153267417112 0.00382822  0.00002955  0.0474037 0.8500
 10  -2632.4468181684   0.930448323870 0.00325786  0.00002530  0.0402792 0.8500
 11  -2631.6668874168   0.779930751614 0.00277130  0.00002165  0.0342309 0.8500
 12  -2631.0021452607   0.664742156108 0.01571617  0.00012350  0.0290950 0.0000
 13  -2627.3388341530   3.663311107608 0.00232799  0.00000797  0.0010456 0.0000
                      *** Initiating the SOSCF procedure ***
                           *** Shutting down DIIS ***
                      *** Re-Reading the Fockian *** 
                      *** Removing any level shift *** 
ITER      Energy       Delta-E        Grad      Rot      Max-DP    RMS-DP
 14  -2627.36008602  -0.0212518681  0.000258  0.000258  0.001301  0.000004
               *** Restarting incremental Fock matrix formation ***
 15  -2627.34716821   0.0129178107  0.000140  0.000355  0.001033  0.000003
 16  -2627.34717395  -0.0000057364  0.000083  0.000450  0.000917  0.000003
 17  -2627.34717594  -0.0000019903  0.000021  0.000047  0.000129  0.000001
 18  -2627.34717593   0.0000000066  0.000019  0.000035  0.000072  0.000000
 19  -2627.34717607  -0.0000001373  0.000008  0.000040  0.000032  0.000000
 20  -2627.34717604   0.0000000253  0.000003  0.000015  0.000011  0.000000
                  ***Gradient check signals convergence***
              ***Rediagonalizing the Fockian in SOSCF/NRSCF***

               *****************************************************
               *                     SUCCESS                       *
               *           SCF CONVERGED AFTER  21 CYCLES          *
               *****************************************************


----------------
TOTAL SCF ENERGY
----------------

Total Energy       :        -2627.34717606 Eh          -71493.75133 eV

Components:
Nuclear Repulsion  :        10122.13637636 Eh          275437.33376 eV
Electronic Energy  :       -12749.48355242 Eh         -346931.08510 eV
One Electron Energy:       -23747.85438709 Eh         -646211.97065 eV
Two Electron Energy:        10998.37083467 Eh          299280.88556 eV

Virial components:
Potential Energy   :        -5252.34142243 Eh         -142923.47619 eV
Kinetic Energy     :         2624.99424637 Eh           71429.72486 eV
Virial Ratio       :            2.00089636


---------------
SCF CONVERGENCE
---------------

  Last Energy change         ...   -1.3191e-08  Tolerance :   1.0000e-08
  Last MAX-Density change    ...    9.9301e-06  Tolerance :   1.0000e-07
  Last RMS-Density change    ...    5.7029e-08  Tolerance :   5.0000e-09
  Last Orbital Gradient      ...    1.6377e-06  Tolerance :   1.0000e-05
  Last Orbital Rotation      ...    4.6059e-06  Tolerance :   1.0000e-05

             **** THE GBW FILE WAS UPDATED (_o_3_alde1_6_ami2_1_opt_MP2.gbw) ****
             **** DENSITY FILE WAS UPDATED (_o_3_alde1_6_ami2_1_opt_MP2.scfp) ****
             **** ENERGY FILE WAS UPDATED (_o_3_alde1_6_ami2_1_opt_MP2.en.tmp) ****
             **** THE GBW FILE WAS UPDATED (_o_3_alde1_6_ami2_1_opt_MP2.gbw) ****
             **** DENSITY FILE WAS UPDATED (_o_3_alde1_6_ami2_1_opt_MP2.scfp) ****
----------------
ORBITAL ENERGIES
----------------

  NO   OCC          E(Eh)            E(eV) 
   0   2.0000     -15.549787      -423.1312 
   1   2.0000     -15.549692      -423.1286 
   2   2.0000     -15.549114      -423.1129 
   3   2.0000     -15.547816      -423.0776 
   4   2.0000     -15.547717      -423.0749 
   5   2.0000     -15.545168      -423.0055 
   6   2.0000     -15.544740      -422.9939 
   7   2.0000     -15.544319      -422.9824 
   8   2.0000     -15.544018      -422.9742 
   9   2.0000     -15.542921      -422.9444 
  10   2.0000     -15.535592      -422.7450 
  11   2.0000     -15.528539      -422.5530 
  12   2.0000     -11.291899      -307.2682 
  13   2.0000     -11.289898      -307.2137 
  14   2.0000     -11.277164      -306.8672 
  15   2.0000     -11.276511      -306.8495 
  16   2.0000     -11.275365      -306.8183 
  17   2.0000     -11.273652      -306.7717 
  18   2.0000     -11.273604      -306.7704 
  19   2.0000     -11.272881      -306.7507 
  20   2.0000     -11.270233      -306.6786 
  21   2.0000     -11.264869      -306.5327 
  22   2.0000     -11.261565      -306.4428 
  23   2.0000     -11.259781      -306.3942 
  24   2.0000     -11.258058      -306.3473 
  25   2.0000     -11.255671      -306.2824 
  26   2.0000     -11.254653      -306.2547 
  27   2.0000     -11.249601      -306.1172 
  28   2.0000     -11.245665      -306.0101 
  29   2.0000     -11.244598      -305.9811 
  30   2.0000     -11.243336      -305.9467 
  31   2.0000     -11.241646      -305.9007 
  32   2.0000     -11.241495      -305.8966 
  33   2.0000     -11.241458      -305.8956 
  34   2.0000     -11.241218      -305.8891 
  35   2.0000     -11.240200      -305.8614 
  36   2.0000     -11.240088      -305.8583 
  37   2.0000     -11.239881      -305.8527 
  38   2.0000     -11.239010      -305.8290 
  39   2.0000     -11.238308      -305.8099 
  40   2.0000     -11.238161      -305.8059 
  41   2.0000     -11.238088      -305.8039 
  42   2.0000     -11.237711      -305.7937 
  43   2.0000     -11.236771      -305.7681 
  44   2.0000     -11.236575      -305.7628 
  45   2.0000     -11.236368      -305.7571 
  46   2.0000     -11.235456      -305.7323 
  47   2.0000     -11.234701      -305.7117 
  48   2.0000     -11.233955      -305.6915 
  49   2.0000     -11.231030      -305.6119 
  50   2.0000     -11.228873      -305.5532 
  51   2.0000     -11.223570      -305.4089 
  52   2.0000     -11.215452      -305.1880 
  53   2.0000     -11.213335      -305.1304 
  54   2.0000     -11.210932      -305.0650 
  55   2.0000     -11.209176      -305.0172 
  56   2.0000     -11.208187      -304.9903 
  57   2.0000     -11.207180      -304.9629 
  58   2.0000     -11.206460      -304.9433 
  59   2.0000     -11.204891      -304.9006 
  60   2.0000     -11.204321      -304.8851 
  61   2.0000     -11.204246      -304.8830 
  62   2.0000     -11.200287      -304.7753 
  63   2.0000      -1.278991       -34.8031 
  64   2.0000      -1.275585       -34.7104 
  65   2.0000      -1.269946       -34.5570 
  66   2.0000      -1.249440       -33.9990 
  67   2.0000      -1.248313       -33.9683 
  68   2.0000      -1.247756       -33.9532 
  69   2.0000      -1.224657       -33.3246 
  70   2.0000      -1.220988       -33.2248 
  71   2.0000      -1.215565       -33.0772 
  72   2.0000      -1.166752       -31.7489 
  73   2.0000      -1.161188       -31.5975 
  74   2.0000      -1.158411       -31.5220 
  75   2.0000      -1.150851       -31.3163 
  76   2.0000      -1.148359       -31.2484 
  77   2.0000      -1.137737       -30.9594 
  78   2.0000      -1.086144       -29.5555 
  79   2.0000      -1.083507       -29.4837 
  80   2.0000      -1.079048       -29.3624 
  81   2.0000      -1.071591       -29.1595 
  82   2.0000      -1.067402       -29.0455 
  83   2.0000      -1.058194       -28.7949 
  84   2.0000      -1.042865       -28.3778 
  85   2.0000      -1.029908       -28.0252 
  86   2.0000      -1.024209       -27.8701 
  87   2.0000      -1.021739       -27.8029 
  88   2.0000      -1.018988       -27.7281 
  89   2.0000      -1.017851       -27.6971 
  90   2.0000      -0.946317       -25.7506 
  91   2.0000      -0.941191       -25.6111 
  92   2.0000      -0.940829       -25.6012 
  93   2.0000      -0.939494       -25.5649 
  94   2.0000      -0.938717       -25.5438 
  95   2.0000      -0.937722       -25.5167 
  96   2.0000      -0.937421       -25.5085 
  97   2.0000      -0.936804       -25.4917 
  98   2.0000      -0.931822       -25.3562 
  99   2.0000      -0.928330       -25.2611 
 100   2.0000      -0.923677       -25.1345 
 101   2.0000      -0.914671       -24.8895 
 102   2.0000      -0.891715       -24.2648 
 103   2.0000      -0.881940       -23.9988 
 104   2.0000      -0.880786       -23.9674 
 105   2.0000      -0.869703       -23.6658 
 106   2.0000      -0.861221       -23.4350 
 107   2.0000      -0.859676       -23.3930 
 108   2.0000      -0.850009       -23.1299 
 109   2.0000      -0.840356       -22.8672 
 110   2.0000      -0.830007       -22.5856 
 111   2.0000      -0.795340       -21.6423 
 112   2.0000      -0.788967       -21.4689 
 113   2.0000      -0.788328       -21.4515 
 114   2.0000      -0.772307       -21.0155 
 115   2.0000      -0.770622       -20.9697 
 116   2.0000      -0.763640       -20.7797 
 117   2.0000      -0.760214       -20.6865 
 118   2.0000      -0.752972       -20.4894 
 119   2.0000      -0.746727       -20.3195 
 120   2.0000      -0.737714       -20.0742 
 121   2.0000      -0.719192       -19.5702 
 122   2.0000      -0.714355       -19.4386 
 123   2.0000      -0.703800       -19.1514 
 124   2.0000      -0.701074       -19.0772 
 125   2.0000      -0.697991       -18.9933 
 126   2.0000      -0.696796       -18.9608 
 127   2.0000      -0.684936       -18.6381 
 128   2.0000      -0.676165       -18.3994 
 129   2.0000      -0.672991       -18.3130 
 130   2.0000      -0.670597       -18.2479 
 131   2.0000      -0.670226       -18.2378 
 132   2.0000      -0.665110       -18.0986 
 133   2.0000      -0.658663       -17.9231 
 134   2.0000      -0.653948       -17.7948 
 135   2.0000      -0.651814       -17.7367 
 136   2.0000      -0.643795       -17.5186 
 137   2.0000      -0.642272       -17.4771 
 138   2.0000      -0.636994       -17.3335 
 139   2.0000      -0.635583       -17.2951 
 140   2.0000      -0.633203       -17.2303 
 141   2.0000      -0.627984       -17.0883 
 142   2.0000      -0.625893       -17.0314 
 143   2.0000      -0.622044       -16.9267 
 144   2.0000      -0.620704       -16.8902 
 145   2.0000      -0.619030       -16.8447 
 146   2.0000      -0.617951       -16.8153 
 147   2.0000      -0.613714       -16.7000 
 148   2.0000      -0.612352       -16.6629 
 149   2.0000      -0.610187       -16.6040 
 150   2.0000      -0.607675       -16.5357 
 151   2.0000      -0.603242       -16.4150 
 152   2.0000      -0.601246       -16.3607 
 153   2.0000      -0.597793       -16.2668 
 154   2.0000      -0.596039       -16.2190 
 155   2.0000      -0.592726       -16.1289 
 156   2.0000      -0.584646       -15.9090 
 157   2.0000      -0.583232       -15.8705 
 158   2.0000      -0.580103       -15.7854 
 159   2.0000      -0.565136       -15.3781 
 160   2.0000      -0.563267       -15.3273 
 161   2.0000      -0.559808       -15.2331 
 162   2.0000      -0.557720       -15.1763 
 163   2.0000      -0.556076       -15.1316 
 164   2.0000      -0.550787       -14.9877 
 165   2.0000      -0.550185       -14.9713 
 166   2.0000      -0.549054       -14.9405 
 167   2.0000      -0.545152       -14.8343 
 168   2.0000      -0.544282       -14.8107 
 169   2.0000      -0.542962       -14.7747 
 170   2.0000      -0.540030       -14.6950 
 171   2.0000      -0.538266       -14.6469 
 172   2.0000      -0.537010       -14.6128 
 173   2.0000      -0.534545       -14.5457 
 174   2.0000      -0.533652       -14.5214 
 175   2.0000      -0.533069       -14.5055 
 176   2.0000      -0.530873       -14.4458 
 177   2.0000      -0.529490       -14.4081 
 178   2.0000      -0.528554       -14.3827 
 179   2.0000      -0.526187       -14.3183 
 180   2.0000      -0.525069       -14.2879 
 181   2.0000      -0.523832       -14.2542 
 182   2.0000      -0.519927       -14.1479 
 183   2.0000      -0.519386       -14.1332 
 184   2.0000      -0.518775       -14.1166 
 185   2.0000      -0.513881       -13.9834 
 186   2.0000      -0.512594       -13.9484 
 187   2.0000      -0.511617       -13.9218 
 188   2.0000      -0.509385       -13.8611 
 189   2.0000      -0.506662       -13.7870 
 190   2.0000      -0.505843       -13.7647 
 191   2.0000      -0.504257       -13.7215 
 192   2.0000      -0.502938       -13.6856 
 193   2.0000      -0.496803       -13.5187 
 194   2.0000      -0.491937       -13.3863 
 195   2.0000      -0.489076       -13.3084 
 196   2.0000      -0.486823       -13.2471 
 197   2.0000      -0.484393       -13.1810 
 198   2.0000      -0.483915       -13.1680 
 199   2.0000      -0.480114       -13.0646 
[...]
 31 C      5.7910     6.0000     0.2090     3.5249     3.5249    -0.0000
 32 H      0.7962     1.0000     0.2038     1.0047     1.0047    -0.0000
 33 C      6.2412     6.0000    -0.2412     3.9304     3.9304    -0.0000
 34 C      5.8128     6.0000     0.1872     3.6167     3.6167    -0.0000
 35 H      0.8408     1.0000     0.1592     1.0112     1.0112    -0.0000
 36 C      6.2590     6.0000    -0.2590     3.9610     3.9610    -0.0000
 37 C      6.1268     6.0000    -0.1268     4.0154     4.0154    -0.0000
 38 H      0.8358     1.0000     0.1642     0.9769     0.9769    -0.0000
 39 C      6.1137     6.0000    -0.1137     4.0220     4.0220    -0.0000
 40 H      0.8884     1.0000     0.1116     0.9949     0.9949    -0.0000
 41 H      0.9107     1.0000     0.0893     0.9973     0.9973    -0.0000
 42 C      6.0892     6.0000    -0.0892     3.9114     3.9114    -0.0000
 43 C      5.8907     6.0000     0.1093     3.8482     3.8482    -0.0000
 44 N      7.2527     7.0000    -0.2527     3.0226     3.0226    -0.0000
 45 H      0.8886     1.0000     0.1114     0.9837     0.9837    -0.0000
 46 N      7.3056     7.0000    -0.3056     2.9276     2.9276    -0.0000
 47 C      6.3222     6.0000    -0.3222     3.8680     3.8680    -0.0000
 48 C      6.3396     6.0000    -0.3396     3.8620     3.8620    -0.0000
 49 C      6.1200     6.0000    -0.1200     3.9216     3.9216    -0.0000
 50 C      5.8766     6.0000     0.1234     3.7943     3.7943    -0.0000
 51 N      7.3315     7.0000    -0.3315     2.9625     2.9625    -0.0000
 52 H      0.8988     1.0000     0.1012     0.9811     0.9811    -0.0000
 53 N      7.3261     7.0000    -0.3261     2.9769     2.9769    -0.0000
 54 C      6.2890     6.0000    -0.2890     3.8949     3.8949    -0.0000
 55 C      6.3409     6.0000    -0.3409     3.8707     3.8707    -0.0000
 56 C      5.8307     6.0000     0.1693     3.8095     3.8095    -0.0000
 57 C      6.1115     6.0000    -0.1115     3.9177     3.9177    -0.0000
 58 N      7.3406     7.0000    -0.3406     2.9111     2.9111    -0.0000
 59 C      6.3932     6.0000    -0.3932     3.8247     3.8247    -0.0000
 60 C      6.3613     6.0000    -0.3613     3.8714     3.8714    -0.0000
 61 N      7.2651     7.0000    -0.2651     3.0253     3.0253    -0.0000
 62 H      0.9006     1.0000     0.0994     0.9939     0.9939    -0.0000
 63 C      5.8327     6.0000     0.1673     3.8205     3.8205    -0.0000
 64 C      6.0317     6.0000    -0.0317     3.8894     3.8894    -0.0000
 65 N      7.2792     7.0000    -0.2792     2.9544     2.9544    -0.0000
 66 C      6.2986     6.0000    -0.2986     3.8868     3.8868    -0.0000
 67 C      6.3503     6.0000    -0.3503     3.8641     3.8641    -0.0000
 68 N      7.2611     7.0000    -0.2611     2.9914     2.9914    -0.0000
 69 H      0.8932     1.0000     0.1068     0.9850     0.9850    -0.0000
 70 H      0.8874     1.0000     0.1126     0.9842     0.9842    -0.0000
 71 C      5.8166     6.0000     0.1834     3.8062     3.8062    -0.0000
 72 C      6.0182     6.0000    -0.0182     3.8835     3.8835    -0.0000
 73 N      7.2768     7.0000    -0.2768     2.9642     2.9642    -0.0000
 74 C      6.2974     6.0000    -0.2974     3.8861     3.8861    -0.0000
 75 C      6.3589     6.0000    -0.3589     3.8581     3.8581    -0.0000
 76 N      7.2565     7.0000    -0.2565     2.9875     2.9875    -0.0000
 77 H      0.8988     1.0000     0.1012     0.9864     0.9864     0.0000
 78 H      0.9000     1.0000     0.1000     0.9793     0.9793    -0.0000
 79 C      5.8306     6.0000     0.1694     3.8223     3.8223    -0.0000
 80 C      6.0359     6.0000    -0.0359     3.8879     3.8879    -0.0000
 81 N      7.2864     7.0000    -0.2864     2.9562     2.9562    -0.0000
 82 C      6.2966     6.0000    -0.2966     3.8815     3.8815    -0.0000
 83 C      6.3540     6.0000    -0.3540     3.8591     3.8591    -0.0000
 84 N      7.2720     7.0000    -0.2720     2.9811     2.9811    -0.0000
 85 H      0.8910     1.0000     0.1090     0.9883     0.9883    -0.0000
 86 H      0.8409     1.0000     0.1591     1.0192     1.0192    -0.0000
 87 H      0.8982     1.0000     0.1018     0.9859     0.9859    -0.0000
 88 H      0.8873     1.0000     0.1127     1.0484     1.0484    -0.0000
 89 H      0.9016     1.0000     0.0984     1.0441     1.0441    -0.0000
 90 H      0.8636     1.0000     0.1364     1.0096     1.0096    -0.0000
 91 H      0.8867     1.0000     0.1133     0.9785     0.9785    -0.0000
 92 H      0.8813     1.0000     0.1187     1.0123     1.0123    -0.0000
 93 H      0.8891     1.0000     0.1109     1.0520     1.0520    -0.0000
 94 H      0.8974     1.0000     0.1026     0.9928     0.9928    -0.0000
 95 H      0.8994     1.0000     0.1006     0.9834     0.9834    -0.0000
 96 H      0.8895     1.0000     0.1105     0.9840     0.9840    -0.0000
 97 H      0.9077     1.0000     0.0923     0.9808     0.9808    -0.0000
 98 H      0.8880     1.0000     0.1120     0.9809     0.9809    -0.0000
 99 H      0.9101     1.0000     0.0899     0.9838     0.9838    -0.0000
100 H      0.8979     1.0000     0.1021     0.9879     0.9879    -0.0000
101 H      0.8829     1.0000     0.1171     0.9836     0.9836    -0.0000
102 H      0.8891     1.0000     0.1109     0.9838     0.9838    -0.0000
103 H      0.8868     1.0000     0.1132     0.9767     0.9767    -0.0000
104 H      0.9074     1.0000     0.0926     0.9919     0.9919    -0.0000
105 H      0.8768     1.0000     0.1232     0.9862     0.9862    -0.0000
106 H      0.8903     1.0000     0.1097     0.9830     0.9830    -0.0000
107 H      0.9249     1.0000     0.0751     0.9984     0.9984    -0.0000
108 H      0.8935     1.0000     0.1065     0.9798     0.9798     0.0000
109 H      0.8828     1.0000     0.1172     0.9802     0.9802    -0.0000
110 H      0.9291     1.0000     0.0709     0.9981     0.9981    -0.0000
111 H      0.8889     1.0000     0.1111     0.9843     0.9843     0.0000
112 H      0.8753     1.0000     0.1247     0.9879     0.9879    -0.0000
113 H      0.9192     1.0000     0.0808     0.9925     0.9925    -0.0000
114 H      0.9008     1.0000     0.0992     0.9902     0.9902    -0.0000
115 H      0.8996     1.0000     0.1004     0.9888     0.9888    -0.0000
116 H      0.9118     1.0000     0.0882     0.9810     0.9810    -0.0000
117 H      0.8876     1.0000     0.1124     0.9790     0.9790     0.0000
118 H      0.8935     1.0000     0.1065     0.9824     0.9824    -0.0000
119 H      0.9039     1.0000     0.0961     0.9865     0.9865    -0.0000
120 H      0.8770     1.0000     0.1230     0.9809     0.9809    -0.0000
121 H      0.8771     1.0000     0.1229     0.9750     0.9750    -0.0000
122 H      0.8615     1.0000     0.1385     0.9980     0.9980    -0.0000
123 H      0.9086     1.0000     0.0914     0.9839     0.9839    -0.0000
124 H      0.8964     1.0000     0.1036     0.9895     0.9895    -0.0000
125 H      0.8963     1.0000     0.1037     0.9906     0.9906    -0.0000
126 H      0.8943     1.0000     0.1057     0.9804     0.9804    -0.0000
127 H      0.8872     1.0000     0.1128     0.9842     0.9842    -0.0000
128 H      0.8835     1.0000     0.1165     0.9864     0.9864    -0.0000
129 H      0.8931     1.0000     0.1069     0.9921     0.9921    -0.0000
130 H      0.9123     1.0000     0.0877     0.9832     0.9832    -0.0000
131 H      0.8991     1.0000     0.1009     0.9890     0.9890    -0.0000
132 H      0.9101     1.0000     0.0899     0.9827     0.9827    -0.0000
133 H      0.8985     1.0000     0.1015     0.9887     0.9887    -0.0000
134 H      0.8941     1.0000     0.1059     0.9919     0.9919    -0.0000

  Mayer bond orders larger than 0.100000
B(  0-C ,  1-C ) :   0.9825 B(  0-C ,  2-C ) :   1.3677 B(  0-C ,  8-C ) :   1.3410 
B(  1-C , 44-N ) :   1.0489 B(  1-C , 46-N ) :   1.0066 B(  1-C , 94-H ) :   1.0036 
B(  2-C ,  3-C ) :   1.3448 B(  2-C ,  4-H ) :   0.9459 B(  3-C ,  5-C ) :   1.3607 
B(  3-C , 11-C ) :   1.0150 B(  5-C ,  6-C ) :   1.3319 B(  5-C ,  7-H ) :   0.9642 
B(  6-C ,  8-C ) :   1.3873 B(  6-C ,  9-C ) :   0.9925 B(  8-C , 10-H ) :   0.9748 
B(  9-C , 12-H ) :   0.9835 B(  9-C , 73-N ) :   1.9733 B( 11-C , 13-H ) :   0.9821 
B( 11-C , 65-N ) :   1.9568 B( 14-C , 15-C ) :   1.0757 B( 14-C , 16-C ) :   1.3948 
B( 14-C , 22-C ) :   1.3495 B( 15-C , 51-N ) :   1.0212 B( 15-C , 53-N ) :   1.0326 
B( 15-C , 87-H ) :   0.9598 B( 16-C , 17-C ) :   1.2549 B( 16-C , 18-H ) :   0.9443 
B( 17-C , 19-C ) :   1.3912 B( 17-C , 25-C ) :   1.0150 B( 19-C , 20-C ) :   1.3196 
B( 19-C , 21-H ) :   0.9626 B( 20-C , 22-C ) :   1.3584 B( 20-C , 23-C ) :   0.9940 
B( 22-C , 24-H ) :   0.9578 B( 23-C , 26-H ) :   0.9918 B( 23-C , 68-N ) :   1.9858 
B( 25-C , 27-H ) :   0.9858 B( 25-C , 81-N ) :   1.9657 B( 28-C , 29-C ) :   1.0288 
B( 28-C , 30-C ) :   1.3601 B( 28-C , 36-C ) :   1.3637 B( 29-C , 58-N ) :   0.9940 
B( 29-C , 61-N ) :   1.0288 B( 29-C , 91-H ) :   0.9995 B( 30-C , 31-C ) :   1.2979 
B( 30-C , 32-H ) :   0.9359 B( 31-C , 33-C ) :   1.3651 B( 31-C , 39-C ) :   0.9704 
B( 33-C , 34-C ) :   1.3171 B( 33-C , 35-H ) :   0.9671 B( 34-C , 36-C ) :   1.3871 
B( 34-C , 37-C ) :   0.9892 B( 36-C , 38-H ) :   0.9549 B( 37-C , 40-H ) :   0.9948 
B( 37-C , 84-N ) :   1.9520 B( 39-C , 41-H ) :   0.9850 B( 39-C , 76-N ) :   2.0035 
B( 42-C , 43-C ) :   0.9409 B( 42-C , 44-N ) :   0.9960 B( 42-C , 45-H ) :   0.9897 
B( 42-C , 99-H ) :   0.9899 B( 43-C , 46-N ) :   0.9970 B( 43-C , 47-C ) :   0.9511 
B( 43-C , 48-C ) :   0.9513 B( 44-N , 93-H ) :   1.0026 B( 46-N , 92-H ) :   0.9725 
B( 47-C ,117-H ) :   0.9821 B( 47-C ,118-H ) :   0.9807 B( 47-C ,119-H ) :   0.9827 
B( 48-C ,100-H ) :   0.9774 B( 48-C ,101-H ) :   0.9840 B( 48-C ,102-H ) :   0.9833 
B( 49-C , 50-C ) :   0.9250 B( 49-C , 51-N ) :   1.0071 B( 49-C , 52-H ) :   0.9914 
B( 49-C , 95-H ) :   0.9969 B( 50-C , 53-N ) :   0.9659 B( 50-C , 54-C ) :   0.9633 
B( 50-C , 55-C ) :   0.9400 B( 51-N , 86-H ) :   0.9458 B( 53-N , 88-H ) :   0.9864 
B( 54-C ,114-H ) :   0.9831 B( 54-C ,115-H ) :   0.9795 B( 54-C ,116-H ) :   0.9832 
B( 55-C , 96-H ) :   0.9851 B( 55-C , 97-H ) :   0.9817 B( 55-C , 98-H ) :   0.9852 
B( 56-C , 57-C ) :   0.9485 B( 56-C , 58-N ) :   0.9507 B( 56-C , 59-C ) :   0.9566 
B( 56-C , 60-C ) :   0.9498 B( 57-C , 61-N ) :   0.9870 B( 57-C , 62-H ) :   0.9914 
B( 57-C ,103-H ) :   0.9770 B( 58-N , 90-H ) :   0.9579 B( 59-C ,120-H ) :   0.9824 
B( 59-C ,121-H ) :   0.9721 B( 59-C ,122-H ) :   0.9659 B( 60-C ,104-H ) :   0.9795 
B( 60-C ,105-H ) :   0.9809 B( 60-C ,106-H ) :   0.9834 B( 61-N , 89-H ) :   1.0074 
B( 63-C , 64-C ) :   0.9389 B( 63-C , 65-N ) :   0.9393 B( 63-C , 66-C ) :   0.9534 
B( 63-C , 67-C ) :   0.9541 B( 64-C , 68-N ) :   0.9777 B( 64-C , 69-H ) :   0.9805 
B( 64-C ,107-H ) :   0.9812 B( 66-C ,123-H ) :   0.9808 B( 66-C ,124-H ) :   0.9823 
B( 66-C ,125-H ) :   0.9839 B( 67-C , 70-H ) :   0.9795 B( 67-C ,108-H ) :   0.9850 
B( 67-C ,109-H ) :   0.9752 B( 71-C , 72-C ) :   0.9387 B( 71-C , 73-N ) :   0.9411 
B( 71-C , 74-C ) :   0.9515 B( 71-C , 75-C ) :   0.9514 B( 72-C , 76-N ) :   0.9721 
B( 72-C , 77-H ) :   0.9794 B( 72-C ,110-H ) :   0.9830 B( 74-C ,132-H ) :   0.9790 
B( 74-C ,133-H ) :   0.9828 B( 74-C ,134-H ) :   0.9846 B( 75-C , 78-H ) :   0.9855 
B( 75-C ,111-H ) :   0.9812 B( 75-C ,112-H ) :   0.9757 B( 79-C , 80-C ) :   0.9244 
B( 79-C , 81-N ) :   0.9424 B( 79-C , 82-C ) :   0.9510 B( 79-C , 83-C ) :   0.9515 
B( 80-C , 84-N ) :   0.9743 B( 80-C , 85-H ) :   0.9868 B( 80-C ,113-H ) :   0.9818 
B( 82-C ,129-H ) :   0.9842 B( 82-C ,130-H ) :   0.9814 B( 82-C ,131-H ) :   0.9824 
B( 83-C ,126-H ) :   0.9861 B( 83-C ,127-H ) :   0.9804 B( 83-C ,128-H ) :   0.9743 


-------
TIMINGS
-------

Total SCF time: 0 days 1 hours 37 min 58 sec 

Total time                  ....    5878.245 sec
Sum of individual times     ....    5836.679 sec  ( 99.3%)

Fock matrix formation       ....    5576.265 sec  ( 94.9%)
Diagonalization             ....      34.570 sec  (  0.6%)
Density matrix formation    ....       2.376 sec  (  0.0%)
Population analysis         ....      19.926 sec  (  0.3%)
Initial guess               ....       5.825 sec  (  0.1%)
Orbital Transformation      ....       0.000 sec  (  0.0%)
Orbital Orthonormalization  ....       0.000 sec  (  0.0%)
DIIS solution               ....     161.021 sec  (  2.7%)
SOSCF solution              ....      16.304 sec  (  0.3%)


           ************************************************************
           *        Program running with 32 parallel MPI-processes    *
           *              working on a common directory               *
           ************************************************************

------------------------------------------------------------------------------
                                ORCA  MP2 
------------------------------------------------------------------------------

Freezing NCore=126 chemical core electrons

-------------
RI-MP2 ENERGY
-------------
Dimension of the basis                    ... 2898
Memory devoted to MP2                     ... 3000 MB   
Data format for buffers                   ... DOUBLE
Compression type for matrix containers    ... UNCOMPRESSED
Overall scaling of the MP2 energy         ...   1.000e+00
Calculating two index integrals           ... done (    0.546 sec)
Cholesky decomposition of V**-1           ... done (    7.007 sec)

-----------------
RI-TRANSFORMATION (AUX index driven)
-----------------

Dimension of the orbital-basis         ... 2898
Dimension of the aux-basis             ... 7263
Transformation of internal/external MOs...   63- 230 to  231-2897
Number Format for Storage              ... Double (8 Byte)
Integral mode                          ... Direct

First Phase: integral generation and transformation of MO indices
  Aux angular momentum 0               ... done (   15.869 sec)
  Aux angular momentum 1               ... done (   34.840 sec)
  Aux angular momentum 2               ... done (   44.093 sec)
  Aux angular momentum 3               ... done (   36.931 sec)
  Aux angular momentum 4               ... done (   10.562 sec)
Closing buffer VIA (24.25 GB; CompressionRatio= 1.00)
  Phase 1 completed in   143.095 sec
Second Phase: sorting and transformation of aux index

IA-Transformation
Memory available                       ... 1928 MB 
Max. # MO pairs treated in a batch     ... 6    
# of internal orbitals                 ... 168
# batches for internal orbitals        ... 1
Closing buffer IAV ( 0.87 GB; CompressionRatio= 1.00)
(ia|v) transformation done in   175.205 sec

  Phase 2 completed in   209.172 sec
RI-Integral transformation completed in   352.291 sec
Opening buffers                              ... done

Starting loop over batches of integrals:

Operator 0  - window                       ... ( 63-230)x(231-2897)
Operator 0  - Memory available             ...  3000 MB
Operator 0  - Memory needed per MO         ... 147.8 MB
Operator 0  - Number of orbitals per batch ... 6
Operator 0  - Number of batches            ... 1

OPERATOR  0   PASS   0:  MOs    63 ...   68 +   69 ...   74 +   75 ...   80 +   81 ...   86
                            +   87 ...   92 +   93 ...   98 +   99 ...  104 +  105 ...  110
                            +  111 ...  116 +  117 ...  122 +  123 ...  128 +  129 ...  134
                            +  135 ...  140 +  141 ...  146 +  147 ...  152 +  153 ...  158
                            +  159 ...  164 +  165 ...  170 +  171 ...  176 +  177 ...  182
                            +  183 ...  188 +  189 ...  194 +  195 ...  200 +  201 ...  206
                            +  207 ...  212 +  213 ...  218 +  219 ...  224 +  225 ...  230
  Reading integrals       ... ok
  Internal MO  65
  Internal MO  68
Time spent in pair loops =   218.350 sec
Deleting buffer (Ka|jb)[aa] ...done

-----------------------------------------------
 RI-MP2 CORRELATION ENERGY:    -10.926855127 Eh
-----------------------------------------------


-------
TIMINGS
-------

Total time                : 10710.744 sec
Integral trafo            :  352.295 sec (  3.3%)
I/O of integrals          :    0.516 sec (  0.0%)
K(i,j) Operators          :  216.124 sec (  2.0%)
T(i,j) pair energies      :    1.192 sec (  0.0%)
V-calculation             :    0.546 sec (  0.0%)
V**(-1/2)                 :    7.007 sec (  0.1%)
Gamma(ia|P)               :    0.000 sec (  0.0%)
Gamma-Trafo               :    0.000 sec (  0.0%)
D(virtual)                :    0.000 sec (  0.0%)
D(internal)               :    0.000 sec (  0.0%)
W(virtual)                :    0.000 sec (  0.0%)
W(internal)               :    0.000 sec (  0.0%)
L(virtual)                :    0.000 sec (  0.0%)
L(internal)               :    0.000 sec (  0.0%)
G(D)                      :    0.000 sec (  0.0%)
G(Z)                      :    0.000 sec (  0.0%)
Z-Vector Solution         :    0.000 sec (  0.0%)
3-Index Derivative        :    0.000 sec (  0.0%)
2-Index Derivative        :    0.000 sec (  0.0%)
Separable Gradient        :    0.000 sec (  0.0%)


---------------------------------------
MP2 TOTAL ENERGY:    -2638.274031182 Eh
---------------------------------------

-------------------------   --------------------
FINAL SINGLE POINT ENERGY     -2638.274031182435
-------------------------   --------------------


                            ***************************************
                            *     ORCA property calculations      *
                            ***************************************


  WARNING: The energy has been calculated at the MP2 level but the densities
           used in the property calculations are still SCF densities
           MP2 response densities have not been calculated 
           use %mp2 Density relaxed end
           or  %mp2 Density unrelaxed end

                                    ---------------------
                                    Active property flags
                                    ---------------------
   (+) Dipole Moment


------------------------------------------------------------------------------
                       ORCA ELECTRIC PROPERTIES CALCULATION
------------------------------------------------------------------------------

Dipole Moment Calculation                       ... on
Quadrupole Moment Calculation                   ... off
Polarizability Calculation                      ... off
GBWName                                         ... _o_3_alde1_6_ami2_1_opt_MP2.gbw
Electron density file                           ... _o_3_alde1_6_ami2_1_opt_MP2.scfp
The origin for moment calculation is the CENTER OF MASS  = ( 0.882490, -0.467883 -0.948811)

-------------
DIPOLE MOMENT
-------------
                                X             Y             Z
Electronic contribution:      4.24749      12.78376     -17.62715
Nuclear contribution   :     -5.39583     -13.06117      18.67762
                        -----------------------------------------
Total Dipole Moment    :     -1.14834      -0.27741       1.05046
                        -----------------------------------------
Magnitude (a.u.)       :      1.58086
Magnitude (Debye)      :      4.01822



--------------------
Rotational spectrum 
--------------------
 
Rotational constants in cm-1:     0.001420     0.001005     0.000871 
Rotational constants in MHz :    42.565460    30.121849    26.110038 

 Dipole components along the rotational axes: 
x,y,z [a.u.] :    -1.252323    -0.632199     0.728785 
x,y,z [Debye]:    -3.183153    -1.606921     1.852423 

 

Timings for individual modules:

Sum of individual times         ...    16894.893 sec (= 281.582 min)
GTO integral calculation        ...       41.222 sec (=   0.687 min)   0.2 %
SCF iterations                  ...     5951.805 sec (=  99.197 min)  35.2 %
MP2 module                      ...    10901.865 sec (= 181.698 min)  64.5 %
                             ****ORCA TERMINATED NORMALLY****
TOTAL RUN TIME: 0 days 4 hours 45 minutes 45 seconds 486 msec
