Job execution start: Thu Nov 11 04:02:32 GMT 2021
Shared library path: /work/e05/e05/atarzia/orca_4_2_1_linux_x86-64_openmpi314:/work/e05/e05/atarzia/openmpi-3.1.4/lib:/opt/cray/pe/papi/6.0.0.4/lib64:/opt/cray/libfabric/1.11.0.0.233/lib64
Slurm Job ID is: 630159
Slurm Job name is: o_3_alde1_4_ami4_1_opt_B97-3c
nid001015

                                 *****************
                                 * O   R   C   A *
                                 *****************

           --- An Ab Initio, DFT and Semiempirical electronic structure package ---

                  #######################################################
                  #                        -***-                        #
                  #          Department of theory and spectroscopy      #
                  #               Directorship: Frank Neese             #
                  #        Max Planck Institute fuer Kohlenforschung    #
                  #                Kaiser Wilhelm Platz 1               #
                  #                 D-45470 Muelheim/Ruhr               #
                  #                      Germany                        #
                  #                                                     #
                  #                  All rights reserved                #
                  #                        -***-                        #
                  #######################################################


                         Program Version 4.2.1 -  RELEASE  -


 With contributions from (in alphabetic order):
   Daniel Aravena         : Magnetic Suceptibility
   Michael Atanasov       : Ab Initio Ligand Field Theory (pilot matlab implementation)
   Alexander A. Auer      : GIAO ZORA, VPT2
   Ute Becker             : Parallelization
   Giovanni Bistoni       : ED, misc. LED, open-shell LED, HFLD
   Martin Brehm           : Molecular dynamics
   Dmytro Bykov           : SCF Hessian
   Vijay G. Chilkuri      : MRCI spin determinant printing, contributions to CSF-ICE
   Dipayan Datta          : RHF DLPNO-CCSD density
   Achintya Kumar Dutta   : EOM-CC, STEOM-CC
   Dmitry Ganyushin       : Spin-Orbit,Spin-Spin,Magnetic field MRCI
   Miquel Garcia          : C-PCM Hessian, Gaussian charge scheme
   Yang Guo               : DLPNO-NEVPT2, CIM, IAO-localization
   Andreas Hansen         : Spin unrestricted coupled pair/coupled cluster methods
   Benjamin Helmich-Paris : CASSCF linear response (MC-RPA)
   Lee Huntington         : MR-EOM, pCC
   Robert Izsak           : Overlap fitted RIJCOSX, COSX-SCS-MP3, EOM
   Christian Kollmar      : KDIIS, OOCD, Brueckner-CCSD(T), CCSD density
   Simone Kossmann        : Meta GGA functionals, TD-DFT gradient, OOMP2, MP2 Hessian
   Martin Krupicka        : AUTO-CI
   Lucas Lang             : DCDCAS
   Dagmar Lenk            : GEPOL surface, SMD
   Dimitrios Liakos       : Extrapolation schemes; Compound Job, initial MDCI parallelization
   Dimitrios Manganas     : Further ROCIS development; embedding schemes
   Dimitrios Pantazis     : SARC Basis sets
   Taras Petrenko         : DFT Hessian,TD-DFT gradient, ASA, ECA, R-Raman, ABS, FL, XAS/XES, NRVS
   Peter Pinski           : DLPNO-MP2, DLPNO-MP2 Gradient
   Christoph Reimann      : Effective Core Potentials
   Marius Retegan         : Local ZFS, SOC
   Christoph Riplinger    : Optimizer, TS searches, QM/MM, DLPNO-CCSD(T), (RO)-DLPNO pert. Triples
   Tobias Risthaus        : Range-separated hybrids, TD-DFT gradient, RPA, STAB
   Michael Roemelt        : Original ROCIS implementation
   Masaaki Saitow         : Open-shell DLPNO-CCSD energy and density
   Barbara Sandhoefer     : DKH picture change effects
   Avijit Sen             : IP-ROCIS
   Kantharuban Sivalingam : CASSCF convergence, NEVPT2, FIC-MRCI
   Bernardo de Souza      : ESD, SOC TD-DFT
   Georgi Stoychev        : AutoAux, RI-MP2 NMR
   Willem Van den Heuvel  : Paramagnetic NMR
   Boris Wezisla          : Elementary symmetry handling
   Frank Wennmohs         : Technical directorship


 We gratefully acknowledge several colleagues who have allowed us to
 interface, adapt or use parts of their codes:
   Stefan Grimme, W. Hujo, H. Kruse,             : VdW corrections, initial TS optimization,
                  C. Bannwarth                     DFT functionals, gCP, sTDA/sTD-DF
   Ed Valeev, F. Pavosevic, A. Kumar             : LibInt (2-el integral package), F12 methods
   Garnet Chan, S. Sharma, J. Yang, R. Olivares  : DMRG
   Ulf Ekstrom                                   : XCFun DFT Library
   Mihaly Kallay                                 : mrcc  (arbitrary order and MRCC methods)
   Andreas Klamt, Michael Diedenhofen            : otool_cosmo (COSMO solvation model)
   Jiri Pittner, Ondrej Demel                    : Mk-CCSD
   Frank Weinhold                                : gennbo (NPA and NBO analysis)
   Christopher J. Cramer and Donald G. Truhlar   : smd solvation model
   Lars Goerigk                                  : TD-DFT with DH, B97 family of functionals
   V. Asgeirsson, H. Jonsson                     : NEB implementation
   FAccTs GmbH                                   : IRC, NEB, NEB-TS, Multilevel, MM, QM/MM, CI optimization
   S Lehtola, MJT Oliveira, MAL Marques          : LibXC Library


 Your calculation uses the libint2 library for the computation of 2-el integrals
 For citations please refer to: http://libint.valeyev.net

 Your ORCA version has been built with support for libXC version: 4.2.3
 For citations please refer to: https://tddft.org/programs/libxc/

 This ORCA versions uses:
   CBLAS   interface :  Fast vector & matrix operations
   LAPACKE interface :  Fast linear algebra routines
   SCALAPACK package :  Parallel linear algebra routines




***************************************
The coordinates will be read from file: o_3_alde1_4_ami4_1_opt.xyz
***************************************


Your calculation utilizes the atom-pairwise dispersion correction
with the Becke-Johnson damping scheme (D3BJ)
Cite in your paper:
S.Grimme, S.Ehrlich, L.Goerigk, J Comput Chem, (2011), 32, 1456–1465 
S.Grimme, J.Antony, S.Ehrlich and H.Krieg, J.Chem.Phys., 132, (2010), 154104 
   

Your calculation employs the composite approach B97-3c by Grimme and coworkers.
For the correct reference, please check the publication list of the Grimme group:
http://www.thch.uni-bonn.de/tc/index.php?section=publikationen&subsection=grimme#2017
   

XCFun DFT library Copyright 2009-2010 Ulf Ekstrom and contributors.
See http://admol.org/xcfun for more information. This is free soft-
ware; see the source code for copying conditions. There is ABSOLUTELY
NO WARRANTY; not even for MERCHANTABILITY or FITNESS FOR A PARTICULAR
PURPOSE. For details see the documentation. Scientific users of this 
library should cite U. Ekstrom, L. Visscher, R. Bast, A. J. Thorvald-
sen and K. Ruud; J.Chem.Theor.Comp. 2010, DOI: 10.1021/ct100117s
XCFun Version 0.99 
----- Orbital basis set information -----
Your calculation utilizes the basis: def2-mTZVP
----- AuxJ basis set information -----
Your calculation utilizes the basis: def2-mTZVP/J
================================================================================
                                        WARNINGS
                       Please study these warnings very carefully!
================================================================================


WARNING: Geometry Optimization
  ===> : Switching off AutoStart
         For restart on a previous wavefunction, please use MOREAD

INFO   : the flag for use of LIBINT has been found!

================================================================================
                                       INPUT FILE
================================================================================
NAME = o_3_alde1_4_ami4_1_opt_B97-3c.in
|  1> ! DFT COPT B97-3c TightSCF printbasis  Grid6 NOFINALGRID SlowConv 
|  2> 
|  3> %base "_o_3_alde1_4_ami4_1_opt_B97-3c"
|  4> %maxcore 3000
|  5> %scf
|  6>    MaxIter 2000
|  7> end
|  8> %pal
|  9>    nprocs 32
| 10> end
| 11> 
| 12> * xyzfile 0 1 o_3_alde1_4_ami4_1_opt.xyz
| 13> # * xyzfile 0 1 _o_3_alde1_4_ami4_1_opt_B97-3c.xyz
| 14> 
| 15>                          ****END OF INPUT****
================================================================================

                       *****************************
                       * Geometry Optimization Run *
                       *****************************

Geometry optimization settings:
Update method            Update   .... BFGS
Choice of coordinates    CoordSys .... Cartesian
Initial Hessian          InHess   .... Unit Matrix

Convergence Tolerances:
Energy Change            TolE     ....  5.0000e-06 Eh
Max. Gradient            TolMAXG  ....  3.0000e-04 Eh/bohr
RMS Gradient             TolRMSG  ....  1.0000e-04 Eh/bohr
Max. Displacement        TolMAXD  ....  4.0000e-03 bohr
RMS Displacement         TolRMSD  ....  2.0000e-03 bohr
Strict Convergence                ....  False
------------------------------------------------------------------------------
                        ORCA OPTIMIZATION COORDINATE SETUP
------------------------------------------------------------------------------

The optimization will be done in cartesian displacement coordinates
Initial hessian                         ....done
Number of atoms                         .... 78
Number of degrees of freedom            .... 234

         *************************************************************
         *                GEOMETRY OPTIMIZATION CYCLE   1            *
         *************************************************************
---------------------------------
CARTESIAN COORDINATES (ANGSTROEM)
---------------------------------
  C     -3.186700   -2.145000   -0.129400
  C     -3.293000   -1.877000    1.299100
  C     -2.512400   -3.268100   -0.593600
  C     -2.354200   -3.482900   -1.963100
  H     -2.109600   -4.000300    0.089500
  C     -2.829300   -2.535400   -2.864100
  C     -3.501900   -1.401600   -2.412600
  H     -2.689300   -2.658400   -3.927300
  C     -3.702200   -1.231100   -1.047600
  C     -3.957200   -0.371100   -3.333800
  H     -4.234000   -0.373000   -0.668200
  C     -1.670800   -4.667200   -2.458400
  H     -4.625700    0.384500   -2.896400
  H     -2.605100   -2.447400    1.942500
  H     -1.634400   -4.765700   -3.553800
  C      0.823900   -1.088300   -4.685900
  C     -0.119100   -0.768200   -5.765600
  C      1.699600   -0.106000   -4.223200
  C      2.571600   -0.370100   -3.173200
  H      1.687100    0.864000   -4.700500
  C      2.554400   -1.631900   -2.579500
  C      1.706700   -2.629600   -3.049500
  H      3.226900   -1.815900   -1.755400
  C      0.843600   -2.352700   -4.108500
  C      1.686800   -3.939800   -2.409700
  H      0.188300   -3.133500   -4.460700
  C      3.453500    0.679600   -2.684700
  H      2.110400   -3.981600   -1.394600
  H     -0.766700   -1.611700   -6.066400
  H      3.378800    1.641900   -3.212300
  C     -1.874100    1.843700    0.346100
  C     -2.965000    1.614300    1.280800
  C     -2.156900    1.987100   -1.007500
  C     -1.130300    2.088900   -1.945400
  H     -3.174500    1.986100   -1.365500
  C      0.187600    2.114400   -1.504400
  C      0.487100    1.991300   -0.147800
  H      1.003700    2.207500   -2.203600
  C     -0.545400    1.830000    0.768900
  C      1.875800    1.941800    0.291000
  H     -0.342100    1.695900    1.820300
  C     -1.431300    2.052700   -3.370500
  H      2.048600    1.466400    1.269300
  H     -0.568600    1.906100   -4.035700
  C     -3.916000    0.860900    3.246400
  C     -4.067300   -0.673400    3.143900
  N     -2.775400    1.246700    2.473800
  N     -4.094500   -1.020200    1.759600
  O     -0.216700    0.311000   -6.295100
  C     -0.399000   -6.591400   -2.283000
  C      1.091500   -6.190000   -2.286300
  N     -1.150000   -5.526000   -1.693400
  N      1.205400   -4.951600   -2.985200
  C     -3.978900    0.826600   -5.306400
  C     -2.879500    1.906800   -5.193900
  N     -3.585900   -0.317600   -4.539600
  N     -2.612300    2.121000   -3.807000
  C      4.954800    1.645200   -1.219000
  C      4.174300    2.212700   -0.013600
  N      4.241100    0.508900   -1.713300
  N      2.816000    2.393000   -0.415900
  H     -3.975400    1.738300    0.864000
  H     -3.269000    2.835000   -5.622200
  H     -1.985500    1.595500   -5.752400
  H     -4.924500    1.255900   -4.942800
  H     -4.079700    0.529600   -6.351800
  H     -0.705000   -6.791700   -3.320800
  H     -0.527200   -7.489000   -1.674700
  H      1.653800   -6.951600   -2.833300
  H      1.464000   -6.128500   -1.251600
  H      4.597700    3.188300    0.243000
  H      4.270800    1.538700    0.852000
  H      5.047400    2.436900   -1.977500
  H      5.945200    1.324800   -0.889600
  H     -5.022800   -0.956200    3.595200
  H     -3.247300   -1.169100    3.687100
  H     -3.747500    1.136500    4.289300
  H     -4.843100    1.325600    2.878200

----------------------------
CARTESIAN COORDINATES (A.U.)
----------------------------
  NO LB      ZA    FRAG     MASS         X           Y           Z
   0 C     6.0000    0    12.011   -6.021990   -4.053463   -0.244531
   1 C     6.0000    0    12.011   -6.222868   -3.547016    2.454943
   2 C     6.0000    0    12.011   -4.747748   -6.175814   -1.121741
   3 C     6.0000    0    12.011   -4.448793   -6.581727   -3.709721
   4 H     1.0000    0     1.008   -3.986566   -7.559471    0.169130
   5 C     6.0000    0    12.011   -5.346602   -4.791212   -5.412365
   6 C     6.0000    0    12.011   -6.617632   -2.648640   -4.559153
   7 H     1.0000    0     1.008   -5.082040   -5.023648   -7.421521
   8 C     6.0000    0    12.011   -6.996144   -2.326442   -1.979677
   9 C     6.0000    0    12.011   -7.478024   -0.701277   -6.299969
  10 H     1.0000    0     1.008   -8.001100   -0.704868   -1.262715
  11 C     6.0000    0    12.011   -3.157354   -8.819730   -4.645703
  12 H     1.0000    0     1.008   -8.741306    0.726600   -5.473403
  13 H     1.0000    0     1.008   -4.922926   -4.624916    3.670793
  14 H     1.0000    0     1.008   -3.088568   -9.005868   -6.715709
  15 C     6.0000    0    12.011    1.556945   -2.056589   -8.855068
  16 C     6.0000    0    12.011   -0.225066   -1.451688  -10.895405
  17 C     6.0000    0    12.011    3.211779   -0.200311   -7.980691
  18 C     6.0000    0    12.011    4.859620   -0.699388   -5.996479
  19 H     1.0000    0     1.008    3.188157    1.632723   -8.882658
  20 C     6.0000    0    12.011    4.827116   -3.083844   -4.874549
  21 C     6.0000    0    12.011    3.225196   -4.969224   -5.762720
  22 H     1.0000    0     1.008    6.097957   -3.431554   -3.317225
  23 C     6.0000    0    12.011    1.594173   -4.445959   -7.763940
  24 C     6.0000    0    12.011    3.187590   -7.445143   -4.553673
  25 H     1.0000    0     1.008    0.355835   -5.921457   -8.429501
  26 C     6.0000    0    12.011    6.526169    1.284258   -5.073348
  27 H     1.0000    0     1.008    3.988078   -7.524134   -2.635412
  28 H     1.0000    0     1.008   -1.448853   -3.045672  -11.463835
  29 H     1.0000    0     1.008    6.385007    3.102741   -6.070367
  30 C     6.0000    0    12.011   -3.541536    3.484088    0.654034
  31 C     6.0000    0    12.011   -5.603038    3.050585    2.420361
  32 C     6.0000    0    12.011   -4.075950    3.755075   -1.903899
  33 C     6.0000    0    12.011   -2.135957    3.947449   -3.676273
  34 H     1.0000    0     1.008   -5.998936    3.753185   -2.580421
  35 C     6.0000    0    12.011    0.354513    3.995637   -2.842904
  36 C     6.0000    0    12.011    0.920486    3.763012   -0.279302
  37 H     1.0000    0     1.008    1.896718    4.171570   -4.164201
  38 C     6.0000    0    12.011   -1.030657    3.458199    1.453010
  39 C     6.0000    0    12.011    3.544748    3.669470    0.549910
  40 H     1.0000    0     1.008   -0.646475    3.204787    3.439868
  41 C     6.0000    0    12.011   -2.704765    3.879041   -6.369322
  42 H     1.0000    0     1.008    3.871293    2.771094    2.398629
  43 H     1.0000    0     1.008   -1.074498    3.602007   -7.626368
  44 C     6.0000    0    12.011   -7.400168    1.626865    6.134807
  45 C     6.0000    0    12.011   -7.686083   -1.272542    5.941110
  46 N     7.0000    0    14.007   -5.244746    2.355922    4.674805
  47 N     7.0000    0    14.007   -7.737484   -1.927899    3.325162
  48 O     8.0000    0    15.999   -0.409504    0.587705  -11.896015
  49 C     6.0000    0    12.011   -0.754001  -12.455941   -4.314245
  50 C     6.0000    0    12.011    2.062636  -11.697405   -4.320481
  51 N     7.0000    0    14.007   -2.173185  -10.442627   -3.200062
  52 N     7.0000    0    14.007    2.277876   -9.357168   -5.641210
  53 C     6.0000    0    12.011   -7.519031    1.562048  -10.027643
  54 C     6.0000    0    12.011   -5.441466    3.603330   -9.815049
  55 N     7.0000    0    14.007   -6.776369   -0.600177   -8.578601
  56 N     7.0000    0    14.007   -4.936532    4.008109   -7.194187
  57 C     6.0000    0    12.011    9.363215    3.108977   -2.303576
  58 C     6.0000    0    12.011    7.888284    4.181397   -0.025700
  59 N     7.0000    0    14.007    8.014518    0.961682   -3.237668
  60 N     7.0000    0    14.007    5.321469    4.522115   -0.785937
  61 H     1.0000    0     1.008   -7.512417    3.284911    1.632723
  62 H     1.0000    0     1.008   -6.177515    5.357374  -10.624418
  63 H     1.0000    0     1.008   -3.752051    3.015058  -10.870461
  64 H     1.0000    0     1.008   -9.305956    2.373307   -9.340538
  65 H     1.0000    0     1.008   -7.709516    1.000799  -12.003162
  66 H     1.0000    0     1.008   -1.332257  -12.834453   -6.275403
  67 H     1.0000    0     1.008   -0.996264  -14.152159   -3.164724
  68 H     1.0000    0     1.008    3.125229  -13.136620   -5.354161
  69 H     1.0000    0     1.008    2.766559  -11.581187   -2.365181
  70 H     1.0000    0     1.008    8.688394    6.025014    0.459203
  71 H     1.0000    0     1.008    8.070642    2.907722    1.610047
  72 H     1.0000    0     1.008    9.538204    4.605074   -3.736933
  73 H     1.0000    0     1.008   11.234800    2.503509   -1.681100
  74 H     1.0000    0     1.008   -9.491716   -1.806956    6.793943
  75 H     1.0000    0     1.008   -6.136508   -2.209279    6.967609
  76 H     1.0000    0     1.008   -7.081749    2.147674    8.105602
  77 H     1.0000    0     1.008   -9.152133    2.505021    5.439010

--------------------------------
INTERNAL COORDINATES (ANGSTROEM)
--------------------------------
 C      0   0   0     0.000000000000     0.00000000     0.00000000
 C      1   0   0     1.457304340212     0.00000000     0.00000000
 C      1   2   0     1.389789818642   120.75766371     0.00000000
 C      3   1   2     1.395240670996   120.48199196   183.33685470
 H      3   1   2     1.079347159166   121.18983260     4.10092460
 C      4   3   1     1.391142429804   119.48142041     2.61796831
 C      6   4   3     1.393465266880   120.60841567   357.68027313
 H      6   4   3     1.079408745564   121.06678168   177.78679436
 C      7   6   4     1.390113427027   119.17667452   359.55324235
 C      7   6   4     1.455279279039   121.47113876   177.37595572
 H      9   7   6     1.078467064866   120.93607870   181.07029748
 C      4   3   1     1.454277875786   120.86068044   181.09737212
 H     10   7   6     1.099610099081   115.14983508   169.68100362
 H      2   1   3     1.101147642235   115.58950087    15.34130961
 H     12   4   3     1.100421905453   115.30680853   177.56106848
 C      8   6   4     3.922150202376   105.13359562   272.96077001
 C     16   8   6     1.468831202011    69.77834473   218.77634606
 C     16   8   6     1.394939091860   141.26574592   331.17866626
 C     18  16   8     1.390191645062   120.69857277    83.75577056
 H     18  16   8     1.081143625981   118.56144058   263.60109195
 C     19  18  16     1.394602011328   119.05733970   359.58877931
 C     21  19  18     1.391007038084   120.83875036     1.80095905
 H     21  19  18     1.079468878662   118.13440092   180.93651518
 C     16   8   6     1.390138917519    64.42138744    77.33406407
 C     22  21  19     1.458205777660   120.29930653   180.73687705
 H     24  16   8     1.078476504148   120.94705601    44.80208572
 C     19  18  16     1.455420884143   119.77329933   181.51497788
 H     25  22  21     1.100732578786   115.68945663    18.56095685
 H     17  16   8     1.105150962539   114.20140311   318.00312064
 H     27  19  18     1.099983245327   115.39274896   358.92725583
 C     11   9   7     3.392888355074   106.38139436   261.01823353
 C     31  11   9     1.454768455803    64.37242694   226.78464818
 C     31  11   9     1.390241835078    68.58224000    86.33079120
 C     33  31  11     1.394247901200   120.84485069   226.91526088
 H     33  31  11     1.078737576985   120.99184089    44.63223952
 C     34  33  31     1.389961028231   119.08120129   356.72562582
 C     36  34  33     1.394710514766   120.70335275     2.31409886
 H     36  34  33     1.078687841778   120.88197154   180.93436887
 C     37  36  34     1.390112524222   119.48317577     0.55643404
 C     37  36  34     1.457217684493   120.03538321   176.43235026
 H     39  37  36     1.079238462991   121.12701733   177.72963972
 C     34  33  31     1.456990545611   120.26763453   171.49454145
 H     40  37  36     1.101333686945   115.57350571   202.82760064
 H     42  34  33     1.099196929581   115.66416288   193.50611845
 C     32  31  11     2.309890889198   155.08101468   112.79632142
 C     45  32  31     1.545145439756   107.92297943   283.22324542
 N     32  31  11     1.262666590989   122.70849580   124.56436922
 N      2   1   3     1.260384362010   121.97461152   193.40467504
 O     17  16   8     1.206054994600   124.72818018   137.38559411
 C     12   4   3     2.313176612367   155.49964745   350.19903965
 C     50  12   4     1.543607171530   108.32556370   276.32747247
 N     12   4   3     1.262535179708   122.78029230   357.40111885
 N     25  22  21     1.259637031053   121.76762122   198.08594764
 C     10   7   6     2.307835986373   155.71157918   338.31789828
 C     54  10   7     1.545370068948   107.08819779   276.06281959
 N     10   7   6     1.262806232167   122.84991166   347.68327339
 N     42  34  33     1.260935422613   122.05563505    10.24502954
 C     27  19  18     2.309666975995   155.28356233   169.21364115
 C     58  27  19     1.544093798964   108.69240857   280.22678454
 N     27  19  18     1.262168851620   122.60794817   178.14747999
 N     40  37  36     1.259867092197   122.00936697    21.62463422
 H     32  31  11     1.100002909087   115.31336982   307.27058111
 H     55  54  10     1.093940757080   108.13671679   220.87302403
 H     55  54  10     1.099120530242   110.10156660   101.48306220
 H     54  10   7     1.100301236026    85.87758841   168.13372937
 H     54  10   7     1.091435201925   132.71367237    54.43493230
 H     50  12   4     1.100356728520    85.81424090   168.43363356
 H     50  12   4     1.091856167267   131.41713787    55.21417575
 H     51  50  12     1.093354860052   108.45306137   216.40503646
 H     51  50  12     1.101427523716   109.82042831    96.69520383
 H     59  58  27     1.094032211592   108.37400491   221.60516758
 H     59  58  27     1.101295423581   110.14257576   102.30406130
 H     58  27  19     1.100311728557    85.29970997   172.33896136
 H     58  27  19     1.091811650423   131.17824977    59.69256856
 H     46  45  32     1.093904831327   108.35305250   219.37292841
 H     46  45  32     1.101446653270   109.95436529    99.97523119
 H     45  32  31     1.091782038687   131.83405733    62.14476807
 H     45  32  31     1.100468872799    85.66442904   175.33887797

---------------------------
INTERNAL COORDINATES (A.U.)
---------------------------
 C      0   0   0     0.000000000000     0.00000000     0.00000000
 C      1   0   0     2.753906096775     0.00000000     0.00000000
 C      1   2   0     2.626322140945   120.75766371     0.00000000
 C      3   1   2     2.636622759090   120.48199196   183.33685470
 H      3   1   2     2.039670534250   121.18983260     4.10092460
 C      4   3   1     2.628878205607   119.48142041     2.61796831
 C      6   4   3     2.633267731534   120.60841567   357.68027313
 H      6   4   3     2.039786915675   121.06678168   177.78679436
 C      7   6   4     2.626933672167   119.17667452   359.55324235
 C      7   6   4     2.750079285754   121.47113876   177.37595572
 H      9   7   6     2.038007397050   120.93607870   181.07029748
 C      4   3   1     2.748186907856   120.86068044   181.09737212
 H     10   7   6     2.077961941356   115.14983508   169.68100362
 H      2   1   3     2.080867476838   115.58950087    15.34130961
 H     12   4   3     2.079496033073   115.30680853   177.56106848
 C      8   6   4     7.411789738595   105.13359562   272.96077001
 C     16   8   6     2.775688708758    69.77834473   218.77634606
 C     16   8   6     2.636052857117   141.26574592   331.17866626
 C     18  16   8     2.627081482833   120.69857277    83.75577056
 H     18  16   8     2.043065364539   118.56144058   263.60109195
 C     19  18  16     2.635415867226   119.05733970   359.58877931
 C     21  19  18     2.628622352336   120.83875036     1.80095905
 H     21  19  18     2.039900550762   118.13440092   180.93651518
 C     16   8   6     2.626981842216    64.42138744    77.33406407
 C     22  21  19     2.755609566678   120.29930653   180.73687705
 H     24  16   8     2.038025234709   120.94705601    44.80208572
 C     19  18  16     2.750346880620   119.77329933   181.51497788
 H     25  22  21     2.080083120590   115.68945663    18.56095685
 H     17  16   8     2.088432655837   114.20140311   318.00312064
 H     27  19  18     2.078667085570   115.39274896   358.92725583
 C     11   9   7     6.411629794061   106.38139436   261.01823353
 C     31  11   9     2.749113969736    64.37242694   226.78464818
 C     31  11   9     2.627176328217    68.58224000    86.33079120
 C     33  31  11     2.634746696062   120.84485069   226.91526088
 H     33  31  11     2.038518590872   120.99184089    44.63223952
 C     34  33  31     2.626645680180   119.08120129   356.72562582
 C     36  34  33     2.635620909009   120.70335275     2.31409886
 H     36  34  33     2.038424604951   120.88197154   180.93436887
 C     37  36  34     2.626931966114   119.48317577     0.55643404
 C     37  36  34     2.753742341199   120.03538321   176.43235026
 H     39  37  36     2.039465128248   121.12701733   177.72963972
 C     34  33  31     2.753313110917   120.26763453   171.49454145
 H     40  37  36     2.081219050388   115.57350571   202.82760064
 H     42  34  33     2.077181164155   115.66416288   193.50611845
 C     32  31  11     4.365061179824   155.08101468   112.79632142
 C     45  32  31     2.919901718217   107.92297943   283.22324542
 N     32  31  11     2.386094055421   122.70849580   124.56436922
 N      2   1   3     2.381781267676   121.97461152   193.40467504
 O     17  16   8     2.279113642242   124.72818018   137.38559411
 C     12   4   3     4.371270296765   155.49964745   350.19903965
 C     50  12   4     2.916994812549   108.32556370   276.32747247
 N     12   4   3     2.385845724089   122.78029230   357.40111885
 N     25  22  21     2.380369016836   121.76762122   198.08594764
 C     10   7   6     4.361177976254   155.71157918   338.31789828
 C     54  10   7     2.920326205871   107.08819779   276.06281959
 N     10   7   6     2.386357939005   122.84991166   347.68327339
 N     42  34  33     2.382822621299   122.05563505    10.24502954
 C     27  19  18     4.364638045192   155.28356233   169.21364115
 C     58  27  19     2.917914405129   108.69240857   280.22678454
 N     27  19  18     2.385153464328   122.60794817   178.14747999
 N     40  37  36     2.380803769391   122.00936697    21.62463422
 H     32  31  11     2.078704244691   115.31336982   307.27058111
 H     55  54  10     2.067248437615   108.13671679   220.87302403
 H     55  54  10     2.077036790328   110.10156660   101.48306220
 H     54  10   7     2.079268000904    85.87758841   168.13372937
 H     54  10   7     2.062513624558   132.71367237    54.43493230
 H     50  12   4     2.079372866521    85.81424090   168.43363356
 H     50  12   4     2.063309133768   131.41713787    55.21417575
 H     51  50  12     2.066141252691   108.45306137   216.40503646
 H     51  50  12     2.081396376187   109.82042831    96.69520383
 H     59  58  27     2.067421261596   108.37400491   221.60516758
 H     59  58  27     2.081146743109   110.14257576   102.30406130
 H     58  27  19     2.079287828914    85.29970997   172.33896136
 H     58  27  19     2.063225009125   131.17824977    59.69256856
 H     46  45  32     2.067180547781   108.35305250   219.37292841
 H     46  45  32     2.081432525805   109.95436529    99.97523119
 H     45  32  31     2.063169051053   131.83405733    62.14476807
 H     45  32  31     2.079584788496    85.66442904   175.33887797

---------------------
BASIS SET INFORMATION
---------------------
There are 4 groups of distinct atoms

 Group   1 Type C   : 11s6p1d contracted to 5s3p1d pattern {62111/411/1}
 Group   2 Type H   : 5s contracted to 3s pattern {311}
 Group   3 Type N   : 11s6p1d contracted to 5s3p1d pattern {62111/411/1}
 Group   4 Type O   : 11s6p2d contracted to 5s3p2d pattern {62111/411/11}

Atom   0C    basis set group =>   1
Atom   1C    basis set group =>   1
Atom   2C    basis set group =>   1
Atom   3C    basis set group =>   1
Atom   4H    basis set group =>   2
Atom   5C    basis set group =>   1
Atom   6C    basis set group =>   1
Atom   7H    basis set group =>   2
Atom   8C    basis set group =>   1
Atom   9C    basis set group =>   1
Atom  10H    basis set group =>   2
Atom  11C    basis set group =>   1
Atom  12H    basis set group =>   2
Atom  13H    basis set group =>   2
Atom  14H    basis set group =>   2
Atom  15C    basis set group =>   1
Atom  16C    basis set group =>   1
Atom  17C    basis set group =>   1
Atom  18C    basis set group =>   1
Atom  19H    basis set group =>   2
Atom  20C    basis set group =>   1
Atom  21C    basis set group =>   1
Atom  22H    basis set group =>   2
Atom  23C    basis set group =>   1
Atom  24C    basis set group =>   1
Atom  25H    basis set group =>   2
Atom  26C    basis set group =>   1
Atom  27H    basis set group =>   2
Atom  28H    basis set group =>   2
Atom  29H    basis set group =>   2
Atom  30C    basis set group =>   1
Atom  31C    basis set group =>   1
Atom  32C    basis set group =>   1
Atom  33C    basis set group =>   1
Atom  34H    basis set group =>   2
Atom  35C    basis set group =>   1
Atom  36C    basis set group =>   1
Atom  37H    basis set group =>   2
Atom  38C    basis set group =>   1
Atom  39C    basis set group =>   1
Atom  40H    basis set group =>   2
Atom  41C    basis set group =>   1
Atom  42H    basis set group =>   2
Atom  43H    basis set group =>   2
Atom  44C    basis set group =>   1
Atom  45C    basis set group =>   1
Atom  46N    basis set group =>   3
Atom  47N    basis set group =>   3
Atom  48O    basis set group =>   4
Atom  49C    basis set group =>   1
Atom  50C    basis set group =>   1
Atom  51N    basis set group =>   3
Atom  52N    basis set group =>   3
Atom  53C    basis set group =>   1
Atom  54C    basis set group =>   1
Atom  55N    basis set group =>   3
Atom  56N    basis set group =>   3
Atom  57C    basis set group =>   1
Atom  58C    basis set group =>   1
Atom  59N    basis set group =>   3
Atom  60N    basis set group =>   3
Atom  61H    basis set group =>   2
Atom  62H    basis set group =>   2
Atom  63H    basis set group =>   2
Atom  64H    basis set group =>   2
Atom  65H    basis set group =>   2
Atom  66H    basis set group =>   2
Atom  67H    basis set group =>   2
Atom  68H    basis set group =>   2
Atom  69H    basis set group =>   2
Atom  70H    basis set group =>   2
Atom  71H    basis set group =>   2
Atom  72H    basis set group =>   2
Atom  73H    basis set group =>   2
Atom  74H    basis set group =>   2
Atom  75H    basis set group =>   2
Atom  76H    basis set group =>   2
Atom  77H    basis set group =>   2

-------------------------
BASIS SET IN INPUT FORMAT
-------------------------

 # Basis set for element : H 
 NewGTO H 
 S 3 
   1      34.0613410000      0.0254393072
   2       5.1235746000      0.1900859489
   3       1.1646626000      0.8524411301
 S 1 
   1       0.3272304100      1.0000000000
 S 1 
   1       0.1030724100      1.0000000000
  end;

 # Basis set for element : C 
 NewGTO C 
 S 6 
   1   13575.3496820000      0.0006064549
   2    2035.2333680000      0.0046979088
   3     463.2256235900      0.0243324776
   4     131.2001959800      0.0973999683
   5      42.8530158910      0.3019558425
   6      15.5841857660      0.6623360915
 S 2 
   1       6.2067138508      0.6559530854
   2       2.5764896527      0.3758563329
 S 1 
   1       0.5769633942      1.0000000000
 S 1 
   1       0.2297283136      1.0000000000
 S 1 
   1       0.0951644400      1.0000000000
 P 4 
   1      34.6972322440      0.0113272200
   2       7.9582622826      0.0761696592
   3       2.3780826883      0.3019225220
   4       0.8143320818      0.7278502735
 P 1 
   1       0.2888754725      1.0000000000
 P 1 
   1       0.1005682367      1.0000000000
 D 1 
   1       0.8000000000      1.0000000000
  end;

 # Basis set for element : N 
 NewGTO N 
 S 6 
   1   19730.8006470000      0.0005862639
   2    2957.8958745000      0.0045428821
   3     673.2213359500      0.0235584136
   4     190.6824949400      0.0947091933
   5      62.2954418980      0.2971978492
   6      22.6541611820      0.6691624689
 S 2 
   1       8.9791477428      0.6459668363
   2       3.6863002370      0.3870057440
 S 1 
   1       0.8466007680      1.0000000000
 S 1 
   1       0.3364713377      1.0000000000
 S 1 
   1       0.1364765367      1.0000000000
 P 4 
   1      49.2003805100      0.0114488252
   2      11.3467905370      0.0784223379
   3       3.4273972411      0.3081809474
   4       1.1785525134      0.7202719637
 P 1 
   1       0.4164220497      1.0000000000
 P 1 
   1       0.1426082601      1.0000000000
 D 1 
   1       0.8000000000      1.0000000000
  end;

 # Basis set for element : O 
 NewGTO O 
 S 6 
   1   27032.3826310000      0.0005722733
   2    4052.3871392000      0.0044353233
   3     922.3272271000      0.0230201076
   4     261.2407098900      0.0928224906
   5      85.3546413510      0.2937850002
   6      31.0350352450      0.6740160450
 S 2 
   1      12.2608607280      0.6383993702
   2       4.9987076005      0.3953458713
 S 1 
   1       1.1703108158      1.0000000000
 S 1 
   1       0.4647474099      1.0000000000
 S 1 
   1       0.1850453636      1.0000000000
 P 4 
   1      63.2749548010      0.0120183321
   2      14.6270493790      0.0830054217
   3       4.4501223456      0.3199174393
   4       1.5275799647      0.7071554292
 P 1 
   1       0.5293511794      1.0000000000
 P 1 
   1       0.1747842127      1.0000000000
 D 1 
   1       0.9000000000      1.0000000000
 D 1 
   1       0.1500000000      1.0000000000
  end;

---------------------------------
AUXILIARY/J BASIS SET INFORMATION
---------------------------------
There are 4 groups of distinct atoms

 Group   1 Type C   : 8s3p3d contracted to 6s3p3d pattern {311111/111/111}
 Group   2 Type H   : 5s2p contracted to 3s1p pattern {311/2}
 Group   3 Type N   : 8s3p3d contracted to 6s3p3d pattern {311111/111/111}
 Group   4 Type O   : 8s3p3d contracted to 6s3p3d pattern {311111/111/111}

Atom   0C    basis set group =>   1
Atom   1C    basis set group =>   1
Atom   2C    basis set group =>   1
Atom   3C    basis set group =>   1
Atom   4H    basis set group =>   2
Atom   5C    basis set group =>   1
Atom   6C    basis set group =>   1
Atom   7H    basis set group =>   2
Atom   8C    basis set group =>   1
Atom   9C    basis set group =>   1
Atom  10H    basis set group =>   2
Atom  11C    basis set group =>   1
Atom  12H    basis set group =>   2
Atom  13H    basis set group =>   2
Atom  14H    basis set group =>   2
Atom  15C    basis set group =>   1
Atom  16C    basis set group =>   1
Atom  17C    basis set group =>   1
Atom  18C    basis set group =>   1
Atom  19H    basis set group =>   2
Atom  20C    basis set group =>   1
Atom  21C    basis set group =>   1
Atom  22H    basis set group =>   2
Atom  23C    basis set group =>   1
Atom  24C    basis set group =>   1
Atom  25H    basis set group =>   2
Atom  26C    basis set group =>   1
Atom  27H    basis set group =>   2
Atom  28H    basis set group =>   2
Atom  29H    basis set group =>   2
Atom  30C    basis set group =>   1
Atom  31C    basis set group =>   1
Atom  32C    basis set group =>   1
Atom  33C    basis set group =>   1
Atom  34H    basis set group =>   2
Atom  35C    basis set group =>   1
Atom  36C    basis set group =>   1
Atom  37H    basis set group =>   2
Atom  38C    basis set group =>   1
Atom  39C    basis set group =>   1
Atom  40H    basis set group =>   2
Atom  41C    basis set group =>   1
Atom  42H    basis set group =>   2
Atom  43H    basis set group =>   2
Atom  44C    basis set group =>   1
Atom  45C    basis set group =>   1
Atom  46N    basis set group =>   3
Atom  47N    basis set group =>   3
Atom  48O    basis set group =>   4
Atom  49C    basis set group =>   1
Atom  50C    basis set group =>   1
Atom  51N    basis set group =>   3
Atom  52N    basis set group =>   3
Atom  53C    basis set group =>   1
Atom  54C    basis set group =>   1
Atom  55N    basis set group =>   3
Atom  56N    basis set group =>   3
Atom  57C    basis set group =>   1
Atom  58C    basis set group =>   1
Atom  59N    basis set group =>   3
Atom  60N    basis set group =>   3
Atom  61H    basis set group =>   2
Atom  62H    basis set group =>   2
Atom  63H    basis set group =>   2
Atom  64H    basis set group =>   2
Atom  65H    basis set group =>   2
Atom  66H    basis set group =>   2
Atom  67H    basis set group =>   2
Atom  68H    basis set group =>   2
Atom  69H    basis set group =>   2
Atom  70H    basis set group =>   2
Atom  71H    basis set group =>   2
Atom  72H    basis set group =>   2
Atom  73H    basis set group =>   2
Atom  74H    basis set group =>   2
Atom  75H    basis set group =>   2
Atom  76H    basis set group =>   2
Atom  77H    basis set group =>   2

-------------------------------------
AUXILIARY/J BASIS SET IN INPUT FORMAT
-------------------------------------

 # Auxiliary/J basis set for element : H 
 NewAuxJGTO H 
 S 3 
   1      15.6752927000      0.1007184237
   2       3.6063578000      0.3404257499
   3       1.2080016000      0.6491996172
 S 1 
   1       0.4726794000      1.0000000000
 S 1 
   1       0.2018100000      1.0000000000
 P 2 
   1       2.0281365000      0.5596620919
   2       0.5358730000      0.5596620919
  end;

 # Auxiliary/J basis set for element : C 
 NewAuxJGTO C 
 S 3 
   1     459.7023860000      0.1098751775
   2     132.9577920000      0.2844848472
   3      41.5658170000      0.6964707648
 S 1 
   1      13.9155610000      1.0000000000
 S 1 
   1       4.9305290000     -1.0000000000
 S 1 
   1       1.8229480000      1.0000000000
 S 1 
   1       0.6920510000      1.0000000000
 S 1 
   1       0.2650930000      1.0000000000
 P 1 
   1       0.3278473579      1.0000000000
 P 1 
   1       0.7868336591      1.0000000000
 P 1 
   1       1.9710183160      1.0000000000
 D 1 
   1       4.0133010000      1.0000000000
 D 1 
   1       1.2475050000      1.0000000000
 D 1 
   1       0.4081480000      1.0000000000
  end;

 # Auxiliary/J basis set for element : N 
 NewAuxJGTO N 
 S 3 
   1     680.5425300000      0.1043830093
   2     196.7562140000      0.2751518961
   3      61.2707930000      0.7090825511
 S 1 
   1      20.3644630000      1.0000000000
 S 1 
   1       7.1424770000     -1.0000000000
 S 1 
   1       2.6080260000      1.0000000000
 S 1 
   1       0.9763730000      1.0000000000
 S 1 
   1       0.3686330000      1.0000000000
 P 1 
   1       0.4707391941      1.0000000000
 P 1 
   1       1.1297740658     -1.0000000000
 P 1 
   1       2.8300840347      1.0000000000
 D 1 
   1       5.8329865000      1.0000000000
 D 1 
   1       1.7326865000      1.0000000000
 D 1 
   1       0.5452425000      1.0000000000
  end;

 # Auxiliary/J basis set for element : O 
 NewAuxJGTO O 
 S 3 
   1     896.1035700000      0.1049899981
   2     269.7252320000      0.2698166569
   3      85.6150770000      0.7109966875
 S 1 
   1      28.4450350000      1.0000000000
 S 1 
   1       9.8069810000     -1.0000000000
 S 1 
   1       3.4747220000      1.0000000000
 S 1 
   1       1.2519210000      1.0000000000
 S 1 
   1       0.4536130000      1.0000000000
 P 1 
   1       0.6147088630     -1.0000000000
 P 1 
   1       1.4753012711      1.0000000000
 P 1 
   1       3.6956296840     -1.0000000000
 D 1 
   1       7.6526720000      1.0000000000
 D 1 
   1       2.2178680000      1.0000000000
 D 1 
   1       0.6823370000      1.0000000000
  end;



           ************************************************************
           *        Program running with 32 parallel MPI-processes    *
           *              working on a common directory               *
           ************************************************************
------------------------------------------------------------------------------
                           ORCA GTO INTEGRAL CALCULATION
                           -- RI-GTO INTEGRALS CHOSEN --
------------------------------------------------------------------------------

                         BASIS SET STATISTICS AND STARTUP INFO

Gaussian basis set:
 # of primitive gaussian shells          ...  963
 # of primitive gaussian functions       ... 1671
 # of contracted shells                  ...  499
 # of contracted basis functions         ...  943
 Highest angular momentum                ...    2
 Maximum contraction depth               ...    6
Auxiliary gaussian basis set:
 # of primitive gaussian shells          ...  854
 # of primitive gaussian functions       ... 1782
 # of contracted shells                  ...  664
 # of contracted aux-basis functions     ... 1524
 Highest angular momentum                ...    2
 Maximum contraction depth               ...    3
Ratio of auxiliary to basis functions    ...  1.62
Integral package used                  ... LIBINT
 One Electron integrals                  ... done
 Ordering auxiliary basis shells         ... done
 Integral threshhold             Thresh  ...  2.500e-11
 Primitive cut-off               TCut    ...  2.500e-12
 Pre-screening matrix                    ... done
 Shell pair data                         ... 
 Ordering of the shell pairs             ... done (   0.017 sec) 76375 of 124750 pairs
 Determination of significant pairs      ... done (   0.000 sec)
 Creation of shell pair data             ... done (   0.010 sec)
 Storage of shell pair data              ... done (   0.015 sec)
 Shell pair data done in (   0.042 sec)
 Computing two index integrals           ... done
 Cholesky decomposition of the V-matrix  ... done


Timings:
 Total evaluation time                   ...   1.383 sec (  0.023 min)
 One electron matrix time                ...   0.547 sec (  0.009 min) = 39.6%
 Schwartz matrix evaluation time         ...   0.484 sec (  0.008 min) = 35.0%
 Two index repulsion integral time       ...   0.058 sec (  0.001 min) =  4.2%
 Cholesky decomposition of V             ...   0.227 sec (  0.004 min) = 16.4%
 Three index repulsion integral time     ...   0.001 sec (  0.000 min) =  0.1%



           ************************************************************
           *        Program running with 32 parallel MPI-processes    *
           *              working on a common directory               *
           ************************************************************
-------------------------------------------------------------------------------
                                 ORCA SCF
-------------------------------------------------------------------------------

------------
SCF SETTINGS
------------
Hamiltonian:
 Density Functional     Method          .... DFT(GTOs)
 Exchange Functional    Exchange        .... B973C
 Correlation Functional Correlation     .... B973C
 Gradients option       PostSCFGGA      .... off
   Density functional embedding theory  .... OFF
 RI-approximation to the Coulomb term is turned on
   Number of auxiliary basis functions  .... 1524


General Settings:
 Integral files         IntName         .... _o_3_alde1_4_ami4_1_opt_B97-3c
 Hartree-Fock type      HFTyp           .... RHF
 Total Charge           Charge          ....    0
 Multiplicity           Mult            ....    1
 Number of Electrons    NEL             ....  308
 Basis Dimension        Dim             ....  943
 Nuclear Repulsion      ENuc            ....   5283.3590748935 Eh

Convergence Acceleration:
 DIIS                   CNVDIIS         .... on
   Start iteration      DIISMaxIt       ....     0
   Startup error        DIISStart       ....  0.200000
   # of expansion vecs  DIISMaxEq       ....     5
   Bias factor          DIISBfac        ....   1.050
   Max. coefficient     DIISMaxC        ....  10.000
 Newton-Raphson         CNVNR           .... off
 SOSCF                  CNVSOSCF        .... on
   Start iteration      SOSCFMaxIt      ....   150
   Startup grad/error   SOSCFStart      ....  0.001000
 Level Shifting         CNVShift        .... on
   Level shift para.    LevelShift      ....    0.2500
   Turn off err/grad.   ShiftErr        ....    0.0000
 Zerner damping         CNVZerner       .... off
 Static damping         CNVDamp         .... on
   Fraction old density DampFac         ....    0.8500
   Max. Damping (<1)    DampMax         ....    0.9800
   Min. Damping (>=0)   DampMin         ....    0.0000
   Turn off err/grad.   DampErr         ....    0.0300
 Fernandez-Rico         CNVRico         .... off

SCF Procedure:
 Maximum # iterations   MaxIter         ....  2000
 SCF integral mode      SCFMode         .... Direct
   Integral package                     .... LIBINT
 Reset frequency        DirectResetFreq ....    20
 Integral Threshold     Thresh          ....  2.500e-11 Eh
 Primitive CutOff       TCut            ....  2.500e-12 Eh

Convergence Tolerance:
 Convergence Check Mode ConvCheckMode   .... Total+1el-Energy
 Convergence forced     ConvForced      .... 0
 Energy Change          TolE            ....  1.000e-08 Eh
 1-El. energy change                    ....  1.000e-05 Eh
 Orbital Gradient       TolG            ....  1.000e-05
 Orbital Rotation angle TolX            ....  1.000e-05
 DIIS Error             TolErr          ....  5.000e-07


Diagonalization of the overlap matrix:
Smallest eigenvalue                        ... 5.714e-06
Time for diagonalization                   ...    0.510 sec
Threshold for overlap eigenvalues          ... 1.000e-08
Number of eigenvalues below threshold      ... 0
Time for construction of square roots      ...    0.105 sec
Total time needed                          ...    0.617 sec

--------------------------------
INITIAL GUESS: MINIMAL BASIS EHT
--------------------------------
The minimal basis has 254 functions
EHT matrix was diagonalized
Basis set overlap was calculated now projecting the orbitals
Using GuessMode=FMatrix for the initial guess
C*T matrix was formed
Effective Fockian was calculated
Effective Fockian was diagonalized
Initial density was built
                      ------------------
                      INITIAL GUESS DONE
                      ------------------
-------------------
DFT GRID GENERATION
-------------------

General Integration Accuracy     IntAcc      ...  5.340
Radial Grid Type                 RadialGrid  ... Gauss-Chebyshev
Angular Grid (max. acc.)         AngularGrid ... Lebedev-590
Angular grid pruning method      GridPruning ... 3 (G Style)
Weight generation scheme         WeightScheme... Becke
Basis function cutoff            BFCut       ...    1.0000e-11
Integration weight cutoff        WCut        ...    1.0000e-14
Grids for H and He will be reduced by one unit

# of grid points (after initial pruning)     ... 1099208 (   0.0 sec)
# of grid points (after weights+screening)   ... 914527 (   1.4 sec)
nearest neighbour list constructed           ...    0.0 sec
Grid point re-assignment to atoms done       ...    0.1 sec
Grid point division into batches done        ...    9.2 sec
Reduced shell lists constructed in    9.8 sec

Total number of grid points                  ...   914527
Total number of batches                      ...    14332
Average number of points per batch           ...       63
Average number of grid points per atom       ...    11725
Average number of shells per batch           ...   189.39 (37.95%)
Average number of basis functions per batch  ...   356.50 (37.81%)
Average number of large shells per batch     ...   108.90 (57.50%)
Average number of large basis fcns per batch ...   213.80 (59.97%)
Maximum spatial batch extension              ...  16.92,  8.99,  9.43 au
Average spatial batch extension              ...   0.04,  0.03,  0.03 au

Time for grid setup =   11.431 sec

--------------
SCF ITERATIONS
--------------
ITER       Energy         Delta-E        Max-DP      RMS-DP      [F,P]     Damp
               ***  Starting incremental Fock matrix formation  ***
  0  -1859.4478265061   0.000000000000 4.43607601  0.02476925  0.4767807 0.8500
  1  -1860.8083688144  -1.360542308361 1.92934581  0.01143155  0.4065143 0.8500
                               ***Turning on DIIS***
  2  -1861.6706532780  -0.862284463595 0.47369016  0.00245668  0.3454416 0.8500
  3  -1862.2970210431  -0.626367765089 0.68442268  0.00351246  0.2932775 0.8500
  4  -1862.8411987558  -0.544177712662 0.75986878  0.00412406  0.2488404 0.8500
  5  -1863.2929543190  -0.451755563180 0.68093735  0.00368906  0.2113892 0.8500
  6  -1863.6857967075  -0.392842388515 0.58595680  0.00314403  0.1797739 0.8500
  7  -1864.0232250040  -0.337428296502 0.49391790  0.00261203  0.1529000 0.8500
  8  -1864.3103663365  -0.287141332566 0.42988945  0.00229579  0.1300007 0.8500
  9  -1864.5533925637  -0.243026227176 0.37336899  0.00202340  0.1104422 0.8500
 10  -1864.7586488672  -0.205256303520 0.31690928  0.00171522  0.0938122 0.8500
 11  -1864.9333594986  -0.174710631402 0.26593801  0.00142352  0.0797384 0.8500
 12  -1865.0822718783  -0.148912379678 0.22442457  0.00119353  0.0678039 0.8500
 13  -1865.2087655134  -0.126493635093 0.19235262  0.00102931  0.0576443 0.8500
 14  -1865.3161306762  -0.107365162787 0.16465779  0.00088745  0.0489806 0.8500
 15  -1865.4072623579  -0.091131681748 0.13924907  0.00074855  0.0416120 0.8500
 16  -1865.4847314384  -0.077469080488 0.11685344  0.00062206  0.0353653 0.8500
 17  -1865.5506071744  -0.065875735954 0.09836471  0.00051990  0.0300665 0.8500
 18  -1865.6065833896  -0.055976215248 0.55617771  0.00294193  0.0255589 0.0000
 19  -1865.9234424041  -0.316859014467 0.01522140  0.00010245  0.0010017 0.0000
               *** Restarting incremental Fock matrix formation ***
                                   *** Resetting DIIS ***
 20  -1865.9234418743   0.000000529827 0.00746161  0.00002747  0.0013913 0.0000
 21  -1865.9234331893   0.000008684950 0.00200746  0.00000997  0.0021695 0.0000
                      *** Initiating the SOSCF procedure ***
                           *** Shutting down DIIS ***
                      *** Re-Reading the Fockian *** 
                      *** Removing any level shift *** 
ITER      Energy       Delta-E        Grad      Rot      Max-DP    RMS-DP
 22  -1865.92344745  -0.0000142621  0.000070  0.000070  0.000973  0.000007
               *** Restarting incremental Fock matrix formation ***
 23  -1865.92344917  -0.0000017203  0.000059  0.000241  0.004370  0.000022
 24  -1865.92344809   0.0000010781  0.000162  0.000158  0.002612  0.000006
 25  -1865.92344930  -0.0000012031  0.000006  0.000043  0.001880  0.000011
 26  -1865.92344928   0.0000000136  0.000015  0.000033  0.000833  0.000004
 27  -1865.92344932  -0.0000000322  0.000003  0.000019  0.002713  0.000016
 28  -1865.92344931   0.0000000090  0.000006  0.000015  0.001407  0.000008
                  ***Gradient check signals convergence***
              ***Rediagonalizing the Fockian in SOSCF/NRSCF***

               *****************************************************
               *                     SUCCESS                       *
               *           SCF CONVERGED AFTER  29 CYCLES          *
               *****************************************************


----------------
TOTAL SCF ENERGY
----------------

Total Energy       :        -1865.92344932 Eh          -50774.35837 eV

Components:
Nuclear Repulsion  :         5283.35907489 Eh          143767.50943 eV
Electronic Energy  :        -7149.28252421 Eh         -194541.86780 eV
One Electron Energy:       -13051.36831409 Eh         -355145.78709 eV
Two Electron Energy:         5902.08578988 Eh          160603.91929 eV

Virial components:
Potential Energy   :        -3725.66932295 Eh         -101380.61637 eV
Kinetic Energy     :         1859.74587363 Eh           50606.25799 eV
Virial Ratio       :            2.00332173


DFT components:
N(Alpha)           :      154.000041932119 electrons
N(Beta)            :      154.000041932119 electrons
N(Total)           :      308.000083864237 electrons
E(XC)              :     -265.124022686598 Eh       
DFET-embed. en.    :        0.000000000000 Eh       

---------------
SCF CONVERGENCE
---------------

  Last Energy change         ...   -9.3469e-09  Tolerance :   1.0000e-08
  Last MAX-Density change    ...    2.1722e-03  Tolerance :   1.0000e-07
  Last RMS-Density change    ...    1.3848e-05  Tolerance :   5.0000e-09
  Last Orbital Gradient      ...    1.5792e-06  Tolerance :   1.0000e-05
  Last Orbital Rotation      ...    1.0837e-05  Tolerance :   1.0000e-05

             **** THE GBW FILE WAS UPDATED (_o_3_alde1_4_ami4_1_opt_B97-3c.gbw) ****
             **** DENSITY FILE WAS UPDATED (_o_3_alde1_4_ami4_1_opt_B97-3c.scfp) ****
             **** ENERGY FILE WAS UPDATED (_o_3_alde1_4_ami4_1_opt_B97-3c.en.tmp) ****
             **** THE GBW FILE WAS UPDATED (_o_3_alde1_4_ami4_1_opt_B97-3c.gbw) ****
             **** DENSITY FILE WAS UPDATED (_o_3_alde1_4_ami4_1_opt_B97-3c.scfp) ****
----------------
ORBITAL ENERGIES
----------------

  NO   OCC          E(Eh)            E(eV) 
   0   2.0000     -18.744953      -510.0761 
   1   2.0000     -13.988061      -380.6345 
   2   2.0000     -13.983321      -380.5055 
   3   2.0000     -13.983291      -380.5047 
   4   2.0000     -13.981787      -380.4638 
   5   2.0000     -13.979045      -380.3892 
   6   2.0000     -13.976436      -380.3181 
   7   2.0000     -13.976120      -380.3096 
   8   2.0000     -13.974472      -380.2647 
   9   2.0000      -9.978720      -271.5348 
  10   2.0000      -9.941933      -270.5337 
  11   2.0000      -9.937143      -270.4034 
  12   2.0000      -9.936873      -270.3960 
  13   2.0000      -9.935784      -270.3664 
  14   2.0000      -9.933114      -270.2938 
  15   2.0000      -9.930412      -270.2202 
  16   2.0000      -9.929514      -270.1958 
  17   2.0000      -9.927901      -270.1519 
  18   2.0000      -9.927082      -270.1296 
  19   2.0000      -9.926235      -270.1066 
  20   2.0000      -9.923528      -270.0329 
  21   2.0000      -9.922994      -270.0184 
  22   2.0000      -9.922551      -270.0063 
  23   2.0000      -9.920490      -269.9503 
  24   2.0000      -9.919498      -269.9233 
  25   2.0000      -9.919443      -269.9218 
  26   2.0000      -9.919352      -269.9193 
  27   2.0000      -9.918188      -269.8876 
  28   2.0000      -9.917405      -269.8663 
  29   2.0000      -9.917037      -269.8563 
  30   2.0000      -9.913247      -269.7532 
  31   2.0000      -9.911301      -269.7002 
  32   2.0000      -9.909808      -269.6596 
  33   2.0000      -9.909736      -269.6576 
  34   2.0000      -9.909592      -269.6537 
  35   2.0000      -9.908307      -269.6187 
  36   2.0000      -9.908276      -269.6179 
  37   2.0000      -9.907899      -269.6076 
  38   2.0000      -9.905682      -269.5473 
  39   2.0000      -9.905201      -269.5342 
  40   2.0000      -9.905174      -269.5335 
  41   2.0000      -9.904779      -269.5227 
  42   2.0000      -9.904778      -269.5227 
  43   2.0000      -9.904097      -269.5042 
  44   2.0000      -0.973932       -26.5020 
  45   2.0000      -0.877464       -23.8770 
  46   2.0000      -0.875926       -23.8351 
  47   2.0000      -0.872313       -23.7368 
  48   2.0000      -0.866947       -23.5908 
  49   2.0000      -0.852680       -23.2026 
  50   2.0000      -0.851566       -23.1723 
  51   2.0000      -0.847435       -23.0599 
  52   2.0000      -0.842679       -22.9305 
  53   2.0000      -0.812125       -22.0990 
  54   2.0000      -0.802057       -21.8251 
  55   2.0000      -0.797165       -21.6920 
  56   2.0000      -0.735746       -20.0207 
  57   2.0000      -0.731814       -19.9137 
  58   2.0000      -0.729816       -19.8593 
  59   2.0000      -0.722169       -19.6512 
  60   2.0000      -0.715728       -19.4759 
  61   2.0000      -0.711950       -19.3731 
  62   2.0000      -0.691660       -18.8210 
  63   2.0000      -0.679504       -18.4902 
  64   2.0000      -0.677239       -18.4286 
  65   2.0000      -0.669384       -18.2149 
  66   2.0000      -0.621791       -16.9198 
  67   2.0000      -0.621155       -16.9025 
  68   2.0000      -0.616039       -16.7633 
  69   2.0000      -0.612847       -16.6764 
  70   2.0000      -0.606553       -16.5051 
  71   2.0000      -0.588638       -16.0177 
  72   2.0000      -0.586556       -15.9610 
  73   2.0000      -0.583122       -15.8676 
  74   2.0000      -0.563797       -15.3417 
  75   2.0000      -0.556984       -15.1563 
  76   2.0000      -0.552535       -15.0353 
  77   2.0000      -0.543966       -14.8021 
  78   2.0000      -0.532332       -14.4855 
  79   2.0000      -0.504577       -13.7302 
  80   2.0000      -0.500196       -13.6110 
  81   2.0000      -0.497009       -13.5243 
  82   2.0000      -0.495793       -13.4912 
  83   2.0000      -0.489076       -13.3084 
  84   2.0000      -0.485928       -13.2228 
  85   2.0000      -0.479225       -13.0404 
  86   2.0000      -0.472417       -12.8551 
  87   2.0000      -0.470755       -12.8099 
  88   2.0000      -0.462635       -12.5889 
  89   2.0000      -0.459662       -12.5080 
  90   2.0000      -0.455223       -12.3873 
  91   2.0000      -0.446202       -12.1418 
  92   2.0000      -0.444825       -12.1043 
  93   2.0000      -0.441373       -12.0104 
  94   2.0000      -0.440668       -11.9912 
  95   2.0000      -0.434084       -11.8120 
  96   2.0000      -0.432742       -11.7755 
  97   2.0000      -0.431493       -11.7415 
  98   2.0000      -0.424315       -11.5462 
  99   2.0000      -0.413096       -11.2409 
 100   2.0000      -0.412273       -11.2185 
 101   2.0000      -0.409987       -11.1563 
 102   2.0000      -0.407341       -11.0843 
 103   2.0000      -0.405586       -11.0365 
 104   2.0000      -0.404258       -11.0004 
 105   2.0000      -0.400691       -10.9034 
 106   2.0000      -0.399824       -10.8798 
 107   2.0000      -0.395184       -10.7535 
 108   2.0000      -0.390759       -10.6331 
 109   2.0000      -0.386740       -10.5237 
 110   2.0000      -0.383053       -10.4234 
 111   2.0000      -0.382271       -10.4021 
 112   2.0000      -0.380689       -10.3591 
 113   2.0000      -0.379009       -10.3134 
 114   2.0000      -0.362147        -9.8545 
 115   2.0000      -0.360425        -9.8077 
 116   2.0000      -0.356992        -9.7143 
 117   2.0000      -0.355553        -9.6751 
 118   2.0000      -0.352772        -9.5994 
 119   2.0000      -0.349929        -9.5220 
 120   2.0000      -0.346938        -9.4407 
 121   2.0000      -0.344440        -9.3727 
 122   2.0000      -0.342918        -9.3313 
 123   2.0000      -0.340083        -9.2541 
 124   2.0000      -0.332766        -9.0550 
 125   2.0000      -0.328847        -8.9484 
 126   2.0000      -0.323547        -8.8042 
 127   2.0000      -0.318310        -8.6617 
 128   2.0000      -0.316288        -8.6066 
 129   2.0000      -0.314201        -8.5498 
 130   2.0000      -0.312093        -8.4925 
 131   2.0000      -0.306528        -8.3410 
 132   2.0000      -0.304619        -8.2891 
 133   2.0000      -0.302127        -8.2213 
 134   2.0000      -0.299741        -8.1564 
 135   2.0000      -0.297489        -8.0951 
 136   2.0000      -0.282522        -7.6878 
 137   2.0000      -0.262644        -7.1469 
 138   2.0000      -0.259415        -7.0591 
 139   2.0000      -0.241566        -6.5733 
 140   2.0000      -0.231898        -6.3103 
 141   2.0000      -0.226885        -6.1739 
 142   2.0000      -0.224577        -6.1111 
 143   2.0000      -0.224124        -6.0987 
 144   2.0000      -0.221807        -6.0357 
 145   2.0000      -0.221549        -6.0286 
 146   2.0000      -0.221067        -6.0155 
 147   2.0000      -0.220434        -5.9983 
 148   2.0000      -0.217506        -5.9186 
 149   2.0000      -0.217343        -5.9142 
 150   2.0000      -0.216706        -5.8969 
 151   2.0000      -0.213698        -5.8150 
 152   2.0000      -0.213001        -5.7961 
 153   2.0000      -0.209267        -5.6944 
 154   0.0000      -0.104565        -2.8454 
 155   0.0000      -0.094406        -2.5689 
 156   0.0000      -0.089482        -2.4349 
 157   0.0000      -0.083735        -2.2785 
 158   0.0000      -0.083281        -2.2662 
 159   0.0000      -0.079625        -2.1667 
 160   0.0000      -0.064576        -1.7572 
 161   0.0000      -0.057284        -1.5588 
 162   0.0000      -0.045878        -1.2484 
 163   0.0000       0.009829         0.2675 
 164   0.0000       0.015042         0.4093 
 165   0.0000       0.017762         0.4833 
 166   0.0000       0.022124         0.6020 
 167   0.0000       0.022826         0.6211 
 168   0.0000       0.027533         0.7492 
 169   0.0000       0.032235         0.8772 
 170   0.0000       0.036930         1.0049 
 171   0.0000       0.038508         1.0479 
 172   0.0000       0.043531         1.1845 
 173   0.0000       0.046736         1.2718 
 174   0.0000       0.049072         1.3353 
 175   0.0000       0.051834         1.4105 
 176   0.0000       0.055094         1.4992 
 177   0.0000       0.056716         1.5433 
 178   0.0000       0.060694         1.6516 
 179   0.0000       0.065507         1.7825 
 180   0.0000       0.069563         1.8929 
 181   0.0000       0.071801         1.9538 
 182   0.0000       0.080108         2.1798 
 183   0.0000       0.082561         2.2466 
 184   0.0000       0.083773         2.2796 
 185   0.0000       0.085109         2.3159 
 186   0.0000       0.085864         2.3365 
 187   0.0000       0.087729         2.3872 
 188   0.0000       0.090620         2.4659 
 189   0.0000       0.091586         2.4922 
 190   0.0000       0.094718         2.5774 
 191   0.0000       0.096038         2.6133 
 192   0.0000       0.100705         2.7403 
 193   0.0000       0.101846         2.7714 
 194   0.0000       0.104459         2.8425 
 195   0.0000       0.105462         2.8698 
 196   0.0000       0.108009         2.9391 
 197   0.0000       0.112380         3.0580 
 198   0.0000       0.117676         3.2021 
 199   0.0000       0.119332         3.2472 
 200   0.0000       0.122625         3.3368 
 201   0.0000       0.124042         3.3754 
 202   0.0000       0.124637         3.3916 
 203   0.0000       0.125939         3.4270 
 204   0.0000       0.131776         3.5858 
 205   0.0000       0.132994         3.6190 
 206   0.0000       0.136072         3.7027 
 207   0.0000       0.137778         3.7491 
 208   0.0000       0.139881         3.8064 
 209   0.0000       0.142117         3.8672 
 210   0.0000       0.144111         3.9215 
 211   0.0000       0.146408         3.9840 
 212   0.0000       0.148281         4.0349 
 213   0.0000       0.149927         4.0797 
 214   0.0000       0.152383         4.1466 
 215   0.0000       0.154746         4.2109 
 216   0.0000       0.157570         4.2877 
 217   0.0000       0.158854         4.3226 
 218   0.0000       0.161166         4.3855 
 219   0.0000       0.168678         4.5900 
 220   0.0000       0.169395         4.6095 
 221   0.0000       0.170232         4.6323 
 222   0.0000       0.171845         4.6761 
 223   0.0000       0.173450         4.7198 
 224   0.0000       0.176408         4.8003 
 225   0.0000       0.182532         4.9669 
 226   0.0000       0.184833         5.0296 
 227   0.0000       0.186241         5.0679 
 228   0.0000       0.190285         5.1779 
 229   0.0000       0.193479         5.2648 
 230   0.0000       0.194343         5.2883 
 231   0.0000       0.198155         5.3921 
 232   0.0000       0.201063         5.4712 
 233   0.0000       0.206417         5.6169 
 234   0.0000       0.206758         5.6262 
 235   0.0000       0.209810         5.7092 
 236   0.0000       0.212742         5.7890 
 237   0.0000       0.213408         5.8071 
 238   0.0000       0.216454         5.8900 
 239   0.0000       0.217397         5.9157 
 240   0.0000       0.220337         5.9957 
 241   0.0000       0.221928         6.0390 
 242   0.0000       0.227055         6.1785 
 243   0.0000       0.229183         6.2364 
 244   0.0000       0.230927         6.2838 
 245   0.0000       0.233940         6.3658 
 246   0.0000       0.238118         6.4795 
 247   0.0000       0.239068         6.5054 
 248   0.0000       0.242006         6.5853 
 249   0.0000       0.243585         6.6283 
 250   0.0000       0.246902         6.7186 
 251   0.0000       0.248456         6.7608 
 252   0.0000       0.250641         6.8203 
 253   0.0000       0.254322         6.9205 
 254   0.0000       0.255503         6.9526 
 255   0.0000       0.257746         7.0136 
 256   0.0000       0.259597         7.0640 
 257   0.0000       0.261471         7.1150 
 258   0.0000       0.262813         7.1515 
 259   0.0000       0.266960         7.2644 
 260   0.0000       0.269259         7.3269 
 261   0.0000       0.270362         7.3569 
 262   0.0000       0.271795         7.3959 
 263   0.0000       0.277103         7.5404 
 264   0.0000       0.277934         7.5630 
 265   0.0000       0.286310         7.7909 
 266   0.0000       0.289438         7.8760 
 267   0.0000       0.293499         7.9865 
 268   0.0000       0.295266         8.0346 
 269   0.0000       0.296138         8.0583 
 270   0.0000       0.298668         8.1272 
 271   0.0000       0.300510         8.1773 
 272   0.0000       0.304106         8.2752 
 273   0.0000       0.308191         8.3863 
 274   0.0000       0.311402         8.4737 
 275   0.0000       0.312385         8.5004 
 276   0.0000       0.316124         8.6022 
 277   0.0000       0.320140         8.7115 
 278   0.0000       0.322092         8.7646 
 279   0.0000       0.322831         8.7847 
 280   0.0000       0.324832         8.8391 
 281   0.0000       0.327290         8.9060 
 282   0.0000       0.331970         9.0334 
 283   0.0000       0.332679         9.0527 
 284   0.0000       0.335672         9.1341 
 285   0.0000       0.339398         9.2355 
 286   0.0000       0.342181         9.3112 
 287   0.0000       0.342908         9.3310 
 288   0.0000       0.344327         9.3696 
 289   0.0000       0.348029         9.4704 
 290   0.0000       0.348273         9.4770 
 291   0.0000       0.351698         9.5702 
 292   0.0000       0.353918         9.6306 
 293   0.0000       0.356609         9.7038 
 294   0.0000       0.357195         9.7198 
 295   0.0000       0.359515         9.7829 
 296   0.0000       0.361386         9.8338 
 297   0.0000       0.364174         9.9097 
 298   0.0000       0.366574         9.9750 
 299   0.0000       0.368922        10.0389 
 300   0.0000       0.373099        10.1525 
 301   0.0000       0.374379        10.1874 
 302   0.0000       0.377743        10.2789 
 303   0.0000       0.379055        10.3146 
 304   0.0000       0.381805        10.3894 
 305   0.0000       0.385155        10.4806 
 306   0.0000       0.385656        10.4942 
 307   0.0000       0.386174        10.5083 
 308   0.0000       0.388978        10.5846 
 309   0.0000       0.390434        10.6242 
 310   0.0000       0.392039        10.6679 
 311   0.0000       0.393109        10.6970 
 312   0.0000       0.393767        10.7149 
 313   0.0000       0.397612        10.8196 
 314   0.0000       0.400424        10.8961 
 315   0.0000       0.400630        10.9017 
 316   0.0000       0.403807        10.9882 
 317   0.0000       0.406210        11.0535 
 318   0.0000       0.407601        11.0914 
 319   0.0000       0.409451        11.1417 
 320   0.0000       0.412563        11.2264 
 321   0.0000       0.413824        11.2607 
 322   0.0000       0.415876        11.3166 
 323   0.0000       0.416924        11.3451 
 324   0.0000       0.418722        11.3940 
 325   0.0000       0.420272        11.4362 
 326   0.0000       0.422635        11.5005 
 327   0.0000       0.424911        11.5624 
 328   0.0000       0.426670        11.6103 
 329   0.0000       0.427812        11.6414 
 330   0.0000       0.430917        11.7259 
 331   0.0000       0.433083        11.7848 
 332   0.0000       0.434073        11.8117 
 333   0.0000       0.437126        11.8948 
 334   0.0000       0.437622        11.9083 
 335   0.0000       0.440545        11.9878 
 336   0.0000       0.444774        12.1029 
 337   0.0000       0.447298        12.1716 
 338   0.0000       0.451630        12.2895 
 339   0.0000       0.455098        12.3838 
 340   0.0000       0.456562        12.4237 
 341   0.0000       0.458732        12.4827 
 342   0.0000       0.460690        12.5360 
 343   0.0000       0.463702        12.6180 
 344   0.0000       0.466305        12.6888 
 345   0.0000       0.468307        12.7433 
 346   0.0000       0.470336        12.7985 
 347   0.0000       0.472167        12.8483 
 348   0.0000       0.474073        12.9002 
 349   0.0000       0.475215        12.9312 
 350   0.0000       0.479832        13.0569 
 351   0.0000       0.482635        13.1332 
 352   0.0000       0.484539        13.1850 
 353   0.0000       0.488214        13.2850 
 354   0.0000       0.492583        13.4039 
 355   0.0000       0.493524        13.4295 
 356   0.0000       0.497039        13.5251 
 357   0.0000       0.500259        13.6127 
 358   0.0000       0.502388        13.6707 
 359   0.0000       0.504662        13.7325 
 360   0.0000       0.506110        13.7719 
 361   0.0000       0.511308        13.9134 
 362   0.0000       0.514741        14.0068 
 363   0.0000       0.515326        14.0227 
 364   0.0000       0.518651        14.1132 
 365   0.0000       0.523366        14.2415 
 366   0.0000       0.526226        14.3193 
 367   0.0000       0.527348        14.3499 
 368   0.0000       0.528297        14.3757 
 369   0.0000       0.531730        14.4691 
 370   0.0000       0.534643        14.5484 
 371   0.0000       0.539335        14.6760 
 372   0.0000       0.542702        14.7677 
 373   0.0000       0.544428        14.8146 
 374   0.0000       0.549359        14.9488 
 375   0.0000       0.551187        14.9986 
 376   0.0000       0.552170        15.0253 
 377   0.0000       0.559227        15.2174 
 378   0.0000       0.562451        15.3051 
 379   0.0000       0.568189        15.4612 
 380   0.0000       0.569621        15.5002 
 381   0.0000       0.572085        15.5672 
 382   0.0000       0.576048        15.6751 
 383   0.0000       0.580884        15.8066 
 384   0.0000       0.580905        15.8072 
 385   0.0000       0.587264        15.9803 
 386   0.0000       0.588576        16.0160 
 387   0.0000       0.589850        16.0506 
 388   0.0000       0.593893        16.1606 
 389   0.0000       0.602158        16.3856 
 390   0.0000       0.604746        16.4560 
 391   0.0000       0.607010        16.5176 
 392   0.0000       0.612371        16.6635 
 393   0.0000       0.613977        16.7072 
 394   0.0000       0.618315        16.8252 
 395   0.0000       0.620467        16.8838 
 396   0.0000       0.623233        16.9590 
 397   0.0000       0.629025        17.1166 
 398   0.0000       0.630103        17.1460 
 399   0.0000       0.635768        17.3001 
 400   0.0000       0.638082        17.3631 
 401   0.0000       0.641229        17.4487 
 402   0.0000       0.645454        17.5637 
 403   0.0000       0.646362        17.5884 
 404   0.0000       0.647019        17.6063 
 405   0.0000       0.652104        17.7447 
 406   0.0000       0.654263        17.8034 
 407   0.0000       0.655853        17.8467 
 408   0.0000       0.657998        17.9050 
 409   0.0000       0.658795        17.9267 
 410   0.0000       0.660340        17.9688 
 411   0.0000       0.667273        18.1574 
 412   0.0000       0.670741        18.2518 
 413   0.0000       0.675576        18.3834 
 414   0.0000       0.680836        18.5265 
 415   0.0000       0.683463        18.5980 
 416   0.0000       0.688271        18.7288 
 417   0.0000       0.690812        18.7979 
 418   0.0000       0.695841        18.9348 
 419   0.0000       0.696611        18.9558 
 420   0.0000       0.698874        19.0173 
 421   0.0000       0.705184        19.1890 
 422   0.0000       0.706793        19.2328 
 423   0.0000       0.712122        19.3778 
 424   0.0000       0.714381        19.4393 
 425   0.0000       0.715751        19.4766 
 426   0.0000       0.717838        19.5334 
 427   0.0000       0.724465        19.7137 
 428   0.0000       0.725810        19.7503 
 429   0.0000       0.729140        19.8409 
 430   0.0000       0.732387        19.9293 
 431   0.0000       0.733448        19.9581 
 432   0.0000       0.740476        20.1494 
 433   0.0000       0.740665        20.1545 
 434   0.0000       0.745848        20.2956 
 435   0.0000       0.751029        20.4365 
 436   0.0000       0.753274        20.4976 
 437   0.0000       0.758764        20.6470 
 438   0.0000       0.763647        20.7799 
 439   0.0000       0.768808        20.9203 
 440   0.0000       0.772359        21.0170 
 441   0.0000       0.778804        21.1923 
 442   0.0000       0.779772        21.2187 
 443   0.0000       0.781759        21.2727 
 444   0.0000       0.791027        21.5250 
 445   0.0000       0.797215        21.6933 
 446   0.0000       0.801473        21.8092 
 447   0.0000       0.807759        21.9802 
 448   0.0000       0.811903        22.0930 
 449   0.0000       0.823696        22.4139 
 450   0.0000       0.825665        22.4675 
 451   0.0000       0.832441        22.6519 
 452   0.0000       0.836134        22.7524 
 453   0.0000       0.836926        22.7739 
 454   0.0000       0.842178        22.9168 
 455   0.0000       0.851942        23.1825 
 456   0.0000       0.855232        23.2721 
 457   0.0000       0.860061        23.4035 
 458   0.0000       0.868459        23.6320 
 459   0.0000       0.887009        24.1368 
 460   0.0000       0.895278        24.3618 
 461   0.0000       0.900749        24.5106 
 462   0.0000       0.915054        24.8999 
 463   0.0000       0.920497        25.0480 
 464   0.0000       0.922805        25.1108 
 465   0.0000       0.925154        25.1747 
 466   0.0000       0.938051        25.5257 
 467   0.0000       0.948150        25.8005 
 468   0.0000       0.995768        27.0962 
 469   0.0000       1.105918        30.0935 
 470   0.0000       1.151642        31.3378 
 471   0.0000       1.158644        31.5283 
 472   0.0000       1.176197        32.0059 
 473   0.0000       1.187170        32.3045 
 474   0.0000       1.188797        32.3488 
 475   0.0000       1.210865        32.9493 
 476   0.0000       1.213851        33.0306 
 477   0.0000       1.217297        33.1243 
 478   0.0000       1.225387        33.3445 
 479   0.0000       1.230075        33.4721 
 480   0.0000       1.232035        33.5254 
 481   0.0000       1.245357        33.8879 
 482   0.0000       1.258479        34.2450 
 483   0.0000       1.264716        34.4147 
 484   0.0000       1.266796        34.4713 
 485   0.0000       1.266940        34.4752 
 486   0.0000       1.271584        34.6016 
 487   0.0000       1.277682        34.7675 
 488   0.0000       1.283339        34.9214 
 489   0.0000       1.284245        34.9461 
 490   0.0000       1.286919        35.0189 
 491   0.0000       1.293807        35.2063 
 492   0.0000       1.301531        35.4165 
 493   0.0000       1.303070        35.4583 
 494   0.0000       1.306840        35.5609 
 495   0.0000       1.310894        35.6712 
 496   0.0000       1.313096        35.7312 
 497   0.0000       1.319656        35.9097 
 498   0.0000       1.322334        35.9825 
 499   0.0000       1.330600        36.2075 
 500   0.0000       1.332967        36.2719 
 501   0.0000       1.333997        36.2999 
 502   0.0000       1.338923        36.4339 
 503   0.0000       1.343659        36.5628 
 504   0.0000       1.345702        36.6184 
 505   0.0000       1.346987        36.6534 
 506   0.0000       1.353089        36.8194 
 507   0.0000       1.355637        36.8888 
 508   0.0000       1.360451        37.0198 
 509   0.0000       1.362694        37.0808 
 510   0.0000       1.365305        37.1519 
 511   0.0000       1.367692        37.2168 
 512   0.0000       1.368781        37.2464 
 513   0.0000       1.372708        37.3533 
 514   0.0000       1.374926        37.4136 
 515   0.0000       1.377400        37.4810 
 516   0.0000       1.381203        37.5844 
 517   0.0000       1.382586        37.6221 
 518   0.0000       1.389012        37.7969 
 519   0.0000       1.393332        37.9145 
 520   0.0000       1.397367        38.0243 
 521   0.0000       1.401680        38.1416 
 522   0.0000       1.403726        38.1973 
 523   0.0000       1.406261        38.2663 
 524   0.0000       1.411578        38.4110 
 525   0.0000       1.414019        38.4774 
 526   0.0000       1.417362        38.5684 
 527   0.0000       1.422776        38.7157 
 528   0.0000       1.426240        38.8100 
 529   0.0000       1.430022        38.9129 
 530   0.0000       1.434601        39.0375 
 531   0.0000       1.436016        39.0760 
 532   0.0000       1.441581        39.2274 
 533   0.0000       1.446909        39.3724 
 534   0.0000       1.450500        39.4701 
 535   0.0000       1.451915        39.5086 
 536   0.0000       1.454693        39.5842 
 537   0.0000       1.458010        39.6745 
 538   0.0000       1.458913        39.6991 
 539   0.0000       1.462934        39.8085 
 540   0.0000       1.466217        39.8978 
 541   0.0000       1.468782        39.9676 
 542   0.0000       1.472202        40.0606 
 543   0.0000       1.472697        40.0741 
 544   0.0000       1.475270        40.1441 
 545   0.0000       1.477934        40.2166 
 546   0.0000       1.482907        40.3520 
 547   0.0000       1.483774        40.3755 
 548   0.0000       1.486585        40.4520 
 549   0.0000       1.488706        40.5097 
 550   0.0000       1.489455        40.5301 
 551   0.0000       1.492579        40.6151 
 552   0.0000       1.497092        40.7379 
 553   0.0000       1.499129        40.7934 
 554   0.0000       1.502522        40.8857 
 555   0.0000       1.504315        40.9345 
 556   0.0000       1.505591        40.9692 
 557   0.0000       1.508887        41.0589 
 558   0.0000       1.511716        41.1359 
 559   0.0000       1.515501        41.2389 
 560   0.0000       1.520621        41.3782 
[...]
      dxz     :     0.025235
      dyz     :     0.020577
      dx2y2   :     0.018356
      dxy     :     0.011574
 46 N s       :     3.245392  s :     3.245392
      pz      :     1.261140  p :     3.874420
      px      :     1.476251
      py      :     1.137029
      dz2     :     0.023902  d :     0.080844
      dxz     :     0.022667
      dyz     :     0.014851
      dx2y2   :     0.011101
      dxy     :     0.008323
 47 N s       :     3.238516  s :     3.238516
      pz      :     1.284247  p :     3.875562
      px      :     1.342046
      py      :     1.249268
      dz2     :     0.025163  d :     0.081205
      dxz     :     0.014123
      dyz     :     0.013558
      dx2y2   :     0.013058
      dxy     :     0.015302
 48 O s       :     3.565491  s :     3.565491
      pz      :     1.522413  p :     4.650496
      px      :     1.588789
      py      :     1.539294
      dz2     :     0.047466  d :     0.280751
      dxz     :     0.030144
      dyz     :     0.072735
      dx2y2   :     0.063029
      dxy     :     0.067378
 49 C s       :     2.936941  s :     2.936941
      pz      :     1.097130  p :     3.169518
      px      :     1.032159
      py      :     1.040229
      dz2     :     0.021374  d :     0.104126
      dxz     :     0.014313
      dyz     :     0.023310
      dx2y2   :     0.026115
      dxy     :     0.019014
 50 C s       :     2.935773  s :     2.935773
      pz      :     1.083297  p :     3.164990
      px      :     1.073127
      py      :     1.008566
      dz2     :     0.022623  d :     0.104603
      dxz     :     0.013571
      dyz     :     0.025208
      dx2y2   :     0.022789
      dxy     :     0.020412
 51 N s       :     3.244179  s :     3.244179
      pz      :     1.575374  p :     3.876062
      px      :     1.133069
      py      :     1.167620
      dz2     :     0.012350  d :     0.080865
      dxz     :     0.015180
      dyz     :     0.025316
      dx2y2   :     0.013654
      dxy     :     0.014366
 52 N s       :     3.239727  s :     3.239727
      pz      :     1.517883  p :     3.870207
      px      :     1.172746
      py      :     1.179578
      dz2     :     0.010776  d :     0.081643
      dxz     :     0.007824
      dyz     :     0.030762
      dx2y2   :     0.016302
      dxy     :     0.015979
 53 C s       :     2.937944  s :     2.937944
      pz      :     1.092427  p :     3.168777
      px      :     1.084866
      py      :     0.991484
      dz2     :     0.026941  d :     0.102835
      dxz     :     0.009213
      dyz     :     0.018175
      dx2y2   :     0.020196
      dxy     :     0.028310
 54 C s       :     2.933070  s :     2.933070
      pz      :     0.972380  p :     3.171051
      px      :     1.114584
      py      :     1.084087
      dz2     :     0.029446  d :     0.103766
      dxz     :     0.024980
      dyz     :     0.019637
      dx2y2   :     0.010939
      dxy     :     0.018763
 55 N s       :     3.248585  s :     3.248585
      pz      :     1.263480  p :     3.868012
      px      :     1.319576
      py      :     1.284956
      dz2     :     0.024145  d :     0.080640
      dxz     :     0.018580
      dyz     :     0.018642
      dx2y2   :     0.009523
      dxy     :     0.009749
 56 N s       :     3.240022  s :     3.240022
      pz      :     1.297086  p :     3.870836
      px      :     1.448064
      py      :     1.125687
      dz2     :     0.025304  d :     0.080951
      dxz     :     0.017884
      dyz     :     0.009004
      dx2y2   :     0.015459
      dxy     :     0.013301
 57 C s       :     2.937621  s :     2.937621
      pz      :     1.084522  p :     3.169593
      px      :     1.078148
      py      :     1.006923
      dz2     :     0.014974  d :     0.103714
      dxz     :     0.015627
      dyz     :     0.029762
      dx2y2   :     0.025885
      dxy     :     0.017467
 58 C s       :     2.935570  s :     2.935570
      pz      :     1.081061  p :     3.164502
      px      :     0.971728
      py      :     1.111713
      dz2     :     0.016505  d :     0.104646
      dxz     :     0.025265
      dyz     :     0.020018
      dx2y2   :     0.021620
      dxy     :     0.021238
 59 N s       :     3.244985  s :     3.244985
      pz      :     1.277705  p :     3.868540
      px      :     1.156270
      py      :     1.434565
      dz2     :     0.019301  d :     0.081035
      dxz     :     0.017033
      dyz     :     0.015262
      dx2y2   :     0.014187
      dxy     :     0.015252
 60 N s       :     3.239511  s :     3.239511
      pz      :     1.457782  p :     3.874435
      px      :     1.177846
      py      :     1.238806
      dz2     :     0.012271  d :     0.081248
      dxz     :     0.025553
      dyz     :     0.008366
      dx2y2   :     0.016993
      dxy     :     0.018064
 61 H s       :     0.856921  s :     0.856921
 62 H s       :     0.839846  s :     0.839846
 63 H s       :     0.834801  s :     0.834801
 64 H s       :     0.856491  s :     0.856491
 65 H s       :     0.843634  s :     0.843634
 66 H s       :     0.855181  s :     0.855181
 67 H s       :     0.844389  s :     0.844389
 68 H s       :     0.839075  s :     0.839075
 69 H s       :     0.858094  s :     0.858094
 70 H s       :     0.838693  s :     0.838693
 71 H s       :     0.858756  s :     0.858756
 72 H s       :     0.855858  s :     0.855858
 73 H s       :     0.844502  s :     0.844502
 74 H s       :     0.839593  s :     0.839593
 75 H s       :     0.859000  s :     0.859000
 76 H s       :     0.845553  s :     0.845553
 77 H s       :     0.856260  s :     0.856260


                      *****************************
                      * MAYER POPULATION ANALYSIS *
                      *****************************

  NA   - Mulliken gross atomic population
  ZA   - Total nuclear charge
  QA   - Mulliken gross atomic charge
  VA   - Mayer's total valence
  BVA  - Mayer's bonded valence
  FA   - Mayer's free valence

  ATOM       NA         ZA         QA         VA         BVA        FA
  0 C      5.7763     6.0000     0.2237     3.5128     3.5128    -0.0000
  1 C      6.3660     6.0000    -0.3660     4.0869     4.0869     0.0000
  2 C      6.2172     6.0000    -0.2172     3.5404     3.5404    -0.0000
  3 C      5.7090     6.0000     0.2910     3.4181     3.4181    -0.0000
  4 H      0.7860     1.0000     0.2140     0.9380     0.9380    -0.0000
  5 C      6.1451     6.0000    -0.1451     3.5371     3.5371    -0.0000
  6 C      5.7602     6.0000     0.2398     3.5277     3.5277    -0.0000
  7 H      0.7927     1.0000     0.2073     0.9254     0.9254    -0.0000
  8 C      6.1012     6.0000    -0.1012     3.5239     3.5239    -0.0000
  9 C      6.3800     6.0000    -0.3800     4.1006     4.1006    -0.0000
 10 H      0.7891     1.0000     0.2109     0.9267     0.9267    -0.0000
 11 C      6.3974     6.0000    -0.3974     4.1077     4.1077    -0.0000
 12 H      0.8911     1.0000     0.1089     0.9601     0.9601    -0.0000
 13 H      0.8915     1.0000     0.1085     0.9593     0.9593    -0.0000
 14 H      0.8894     1.0000     0.1106     0.9561     0.9561    -0.0000
 15 C      5.8206     6.0000     0.1794     3.4377     3.4377    -0.0000
 16 C      6.1007     6.0000    -0.1007     3.9690     3.9690    -0.0000
 17 C      6.1717     6.0000    -0.1717     3.4573     3.4573     0.0000
 18 C      5.6764     6.0000     0.3236     3.3726     3.3726    -0.0000
 19 H      0.7654     1.0000     0.2346     0.9155     0.9155     0.0000
 20 C      6.2055     6.0000    -0.2055     3.5809     3.5809    -0.0000
 21 C      5.7799     6.0000     0.2201     3.4803     3.4803    -0.0000
 22 H      0.7820     1.0000     0.2180     0.9373     0.9373    -0.0000
 23 C      6.0995     6.0000    -0.0995     3.5601     3.5601     0.0000
 24 C      6.3660     6.0000    -0.3660     4.0829     4.0829    -0.0000
 25 H      0.7904     1.0000     0.2096     0.9245     0.9245    -0.0000
 26 C      6.3896     6.0000    -0.3896     4.1088     4.1088    -0.0000
 27 H      0.8879     1.0000     0.1121     0.9609     0.9609    -0.0000
 28 H      0.8888     1.0000     0.1112     0.9513     0.9513     0.0000
 29 H      0.8829     1.0000     0.1171     0.9596     0.9596    -0.0000
 30 C      5.7151     6.0000     0.2849     3.4225     3.4225    -0.0000
 31 C      6.3692     6.0000    -0.3692     4.1157     4.1157    -0.0000
 32 C      6.1346     6.0000    -0.1346     3.5006     3.5006    -0.0000
 33 C      5.7953     6.0000     0.2047     3.5566     3.5566    -0.0000
 34 H      0.7894     1.0000     0.2106     0.9317     0.9317    -0.0000
 35 C      6.1388     6.0000    -0.1388     3.5722     3.5722    -0.0000
 36 C      5.7806     6.0000     0.2194     3.4918     3.4918    -0.0000
 37 H      0.8039     1.0000     0.1961     0.9292     0.9292    -0.0000
 38 C      6.1930     6.0000    -0.1930     3.5542     3.5542    -0.0000
 39 C      6.3519     6.0000    -0.3519     4.0651     4.0651    -0.0000
 40 H      0.7889     1.0000     0.2111     0.9371     0.9371    -0.0000
 41 C      6.3525     6.0000    -0.3525     4.0590     4.0590    -0.0000
 42 H      0.8940     1.0000     0.1060     0.9614     0.9614    -0.0000
 43 H      0.8877     1.0000     0.1123     0.9617     0.9617    -0.0000
 44 C      6.2759     6.0000    -0.2759     3.7800     3.7800    -0.0000
 45 C      6.2565     6.0000    -0.2565     3.7327     3.7327    -0.0000
 46 N      7.0833     7.0000    -0.0833     2.9609     2.9609    -0.0000
 47 N      7.0958     7.0000    -0.0958     2.9583     2.9583     0.0000
 48 O      8.3456     8.0000    -0.3456     2.1199     2.1199    -0.0000
 49 C      6.2795     6.0000    -0.2795     3.7804     3.7804    -0.0000
 50 C      6.2595     6.0000    -0.2595     3.7569     3.7569    -0.0000
 51 N      7.0747     7.0000    -0.0747     2.9613     2.9613    -0.0000
 52 N      7.0965     7.0000    -0.0965     2.9528     2.9528    -0.0000
 53 C      6.2590     6.0000    -0.2590     3.7561     3.7561     0.0000
 54 C      6.2724     6.0000    -0.2724     3.7468     3.7468    -0.0000
 55 N      7.1059     7.0000    -0.1059     2.9459     2.9459    -0.0000
 56 N      7.1023     7.0000    -0.1023     2.9486     2.9486    -0.0000
 57 C      6.2712     6.0000    -0.2712     3.7760     3.7760    -0.0000
 58 C      6.2535     6.0000    -0.2535     3.7331     3.7331    -0.0000
 59 N      7.0715     7.0000    -0.0715     2.9579     2.9579    -0.0000
 60 N      7.1054     7.0000    -0.1054     2.9402     2.9402    -0.0000
 61 H      0.8887     1.0000     0.1113     0.9573     0.9573    -0.0000
 62 H      0.8289     1.0000     0.1711     0.9410     0.9410    -0.0000
 63 H      0.8401     1.0000     0.1599     0.9783     0.9783    -0.0000
 64 H      0.8533     1.0000     0.1467     0.9524     0.9524    -0.0000
 65 H      0.8224     1.0000     0.1776     0.9441     0.9441    -0.0000
 66 H      0.8504     1.0000     0.1496     0.9550     0.9550    -0.0000
 67 H      0.8185     1.0000     0.1815     0.9406     0.9406    -0.0000
 68 H      0.8183     1.0000     0.1817     0.9372     0.9372    -0.0000
 69 H      0.8620     1.0000     0.1380     0.9618     0.9618    -0.0000
 70 H      0.8193     1.0000     0.1807     0.9362     0.9362    -0.0000
 71 H      0.8629     1.0000     0.1371     0.9620     0.9620    -0.0000
 72 H      0.8528     1.0000     0.1472     0.9543     0.9543    -0.0000
 73 H      0.8207     1.0000     0.1793     0.9414     0.9414    -0.0000
 74 H      0.8204     1.0000     0.1796     0.9371     0.9371    -0.0000
 75 H      0.8641     1.0000     0.1359     0.9621     0.9621    -0.0000
 76 H      0.8218     1.0000     0.1782     0.9412     0.9412    -0.0000
 77 H      0.8525     1.0000     0.1475     0.9547     0.9547    -0.0000

  Mayer bond orders larger than 0.100000
B(  0-C ,  1-C ) :   0.9642 B(  0-C ,  2-C ) :   1.1766 B(  0-C ,  3-C ) :   0.1234 
B(  0-C ,  6-C ) :   0.1375 B(  0-C ,  8-C ) :   1.4060 B(  0-C , 47-N ) :  -0.2615 
B(  1-C , 13-H ) :   0.8973 B(  1-C , 47-N ) :   2.0708 B(  2-C ,  3-C ) :   1.3866 
B(  2-C ,  4-H ) :   0.8919 B(  3-C ,  5-C ) :   1.1621 B(  3-C ,  6-C ) :   0.1429 
B(  3-C , 11-C ) :   0.9348 B(  3-C , 51-N ) :  -0.2565 B(  5-C ,  6-C ) :   1.3907 
B(  5-C ,  7-H ) :   0.8750 B(  6-C ,  8-C ) :   1.1739 B(  6-C ,  9-C ) :   0.9722 
B(  6-C , 55-N ) :  -0.2496 B(  8-C , 10-H ) :   0.8664 B(  9-C , 12-H ) :   0.8890 
B(  9-C , 55-N ) :   2.0423 B( 11-C , 14-H ) :   0.8986 B( 11-C , 51-N ) :   2.0516 
B( 15-C , 16-C ) :   0.9338 B( 15-C , 17-C ) :   1.2727 B( 15-C , 18-C ) :   0.1017 
B( 15-C , 21-C ) :   0.1240 B( 15-C , 23-C ) :   1.2388 B( 15-C , 48-O ) :  -0.1422 
B( 16-C , 28-H ) :   0.9500 B( 16-C , 48-O ) :   1.9908 B( 17-C , 18-C ) :   1.1377 
B( 17-C , 19-H ) :   0.8811 B( 17-C , 26-C ) :   0.1035 B( 18-C , 20-C ) :   1.3928 
B( 18-C , 21-C ) :   0.1258 B( 18-C , 26-C ) :   0.9318 B( 18-C , 59-N ) :  -0.2544 
B( 20-C , 21-C ) :   1.2006 B( 20-C , 22-H ) :   0.8885 B( 21-C , 23-C ) :   1.3855 
B( 21-C , 24-C ) :   0.9600 B( 21-C , 52-N ) :  -0.2708 B( 23-C , 25-H ) :   0.8605 
B( 24-C , 27-H ) :   0.8915 B( 24-C , 52-N ) :   2.0707 B( 26-C , 29-H ) :   0.8953 
B( 26-C , 59-N ) :   2.0558 B( 30-C , 31-C ) :   0.9586 B( 30-C , 32-C ) :   1.1512 
B( 30-C , 33-C ) :   0.1222 B( 30-C , 36-C ) :   0.1278 B( 30-C , 38-C ) :   1.3872 
B( 30-C , 46-N ) :  -0.2557 B( 31-C , 46-N ) :   2.0484 B( 31-C , 61-H ) :   0.8949 
B( 32-C , 33-C ) :   1.4180 B( 32-C , 34-H ) :   0.8646 B( 33-C , 35-C ) :   1.2048 
B( 33-C , 36-C ) :   0.1385 B( 33-C , 41-C ) :   0.9355 B( 33-C , 56-N ) :  -0.2380 
B( 35-C , 36-C ) :   1.3786 B( 35-C , 37-H ) :   0.8814 B( 36-C , 38-C ) :   1.1956 
B( 36-C , 39-C ) :   0.9665 B( 36-C , 60-N ) :  -0.2625 B( 38-C , 40-H ) :   0.8897 
B( 38-C , 46-N ) :   0.1046 B( 39-C , 42-H ) :   0.8965 B( 39-C , 60-N ) :   2.0552 
B( 41-C , 43-H ) :   0.9202 B( 41-C , 56-N ) :   2.0501 B( 44-C , 45-C ) :   0.9122 
B( 44-C , 46-N ) :   0.9247 B( 44-C , 76-H ) :   0.9434 B( 44-C , 77-H ) :   0.9307 
B( 45-C , 47-N ) :   0.9225 B( 45-C , 74-H ) :   0.9338 B( 45-C , 75-H ) :   0.9279 
B( 49-C , 50-C ) :   0.9176 B( 49-C , 51-N ) :   0.9136 B( 49-C , 66-H ) :   0.9307 
B( 49-C , 67-H ) :   0.9422 B( 50-C , 52-N ) :   0.9249 B( 50-C , 68-H ) :   0.9341 
B( 50-C , 69-H ) :   0.9270 B( 53-C , 54-C ) :   0.9054 B( 53-C , 55-N ) :   0.9163 
B( 53-C , 64-H ) :   0.9297 B( 53-C , 65-H ) :   0.9439 B( 54-C , 56-N ) :   0.9258 
B( 54-C , 62-H ) :   0.9345 B( 54-C , 63-H ) :   0.9289 B( 57-C , 58-C ) :   0.9151 
B( 57-C , 59-N ) :   0.9159 B( 57-C , 72-H ) :   0.9278 B( 57-C , 73-H ) :   0.9425 
B( 58-C , 60-N ) :   0.9226 B( 58-C , 70-H ) :   0.9333 B( 58-C , 71-H ) :   0.9297 


-------
TIMINGS
-------

Total SCF time: 0 days 0 hours 0 min 38 sec 

Total time                  ....      38.535 sec
Sum of individual times     ....      36.132 sec  ( 93.8%)

Fock matrix formation       ....      14.780 sec  ( 38.4%)
  Split-RI-J                ....       4.861 sec  ( 32.9% of F)
  XC integration            ....       9.084 sec  ( 61.5% of F)
    Basis function eval.    ....       1.778 sec  ( 19.6% of XC)
    Density eval.           ....       3.511 sec  ( 38.6% of XC)
    XC-Functional eval.     ....       0.671 sec  (  7.4% of XC)
    XC-Potential eval.      ....       0.808 sec  (  8.9% of XC)
Diagonalization             ....       0.947 sec  (  2.5%)
Density matrix formation    ....       0.092 sec  (  0.2%)
Population analysis         ....       0.775 sec  (  2.0%)
Initial guess               ....       0.797 sec  (  2.1%)
Orbital Transformation      ....       0.000 sec  (  0.0%)
Orbital Orthonormalization  ....       0.734 sec  (  1.9%)
DIIS solution               ....       0.349 sec  (  0.9%)
SOSCF solution              ....       6.886 sec  ( 17.9%)
Grid generation             ....      11.506 sec  ( 29.9%)


-------------------------------------------------------------------------------
                          DFT DISPERSION CORRECTION                            
                                                                               
                              DFTD3 V3.1  Rev 1                                
                          USING Becke-Johnson damping                          
-------------------------------------------------------------------------------
The B97-3c composite method is recognized
Using three-body term ABC
Active option DFTDOPT                   ...         4   

molecular C6(AA) [au] = 71580.845662 


            DFT-D V3
 parameters
 s6 scaling factor         :     1.0000 
 a1 scaling factor         :     0.3700 
 s8 scaling factor         :     1.5000 
 a2 scaling factor         :     4.1000 
 Damping factor alpha9(ATM):    16.0000 
 ad hoc parameters k1-k3   :    16.0000     1.3333    -4.0000 

 Edisp/kcal,au: -155.317324280147  -0.247513884861 
 E6   /kcal   : -80.874145583 
 E8   /kcal   : -75.387692539 
 E6(ABC)      :   0.944513841 
 % E8         :  48.537851710 
 % E6(ABC)    :  -0.608118795 

-------------------------   ----------------
Dispersion correction           -0.247513885
-------------------------   ----------------

------------------   -----------------
SRB correction            -0.260125979
------------------   -----------------

-------------------------   --------------------
FINAL SINGLE POINT ENERGY     -1866.446567439650
-------------------------   --------------------

                                *** OPTIMIZATION RUN DONE ***

                            ***************************************
                            *     ORCA property calculations      *
                            ***************************************

                                    ---------------------
                                    Active property flags
                                    ---------------------
   (+) Dipole Moment


------------------------------------------------------------------------------
                       ORCA ELECTRIC PROPERTIES CALCULATION
------------------------------------------------------------------------------

Dipole Moment Calculation                       ... on
Quadrupole Moment Calculation                   ... off
Polarizability Calculation                      ... off
GBWName                                         ... _o_3_alde1_4_ami4_1_opt_B97-3c.gbw
Electron density file                           ... _o_3_alde1_4_ami4_1_opt_B97-3c.scfp
The origin for moment calculation is the CENTER OF MASS  = (-1.301031, -1.157625 -3.389055)

-------------
DIPOLE MOMENT
-------------
                                X             Y             Z
Electronic contribution:     -0.20926       1.69059      -6.35355
Nuclear contribution   :      0.65826      -2.26937       7.19895
                        -----------------------------------------
Total Dipole Moment    :      0.44901      -0.57878       0.84540
                        -----------------------------------------
Magnitude (a.u.)       :      1.11861
Magnitude (Debye)      :      2.84328



--------------------
Rotational spectrum 
--------------------
 
Rotational constants in cm-1:     0.002474     0.002327     0.001927 
Rotational constants in MHz :    74.156045    69.763327    57.773244 

 Dipole components along the rotational axes: 
x,y,z [a.u.] :    -0.022569    -0.127385     1.111103 
x,y,z [Debye]:    -0.057367    -0.323787     2.824200 

 

Timings for individual modules:

Sum of individual times         ...     4072.059 sec (=  67.868 min)
GTO integral calculation        ...      129.747 sec (=   2.162 min)   3.2 %
SCF iterations                  ...     2995.507 sec (=  49.925 min)  73.6 %
SCF Gradient evaluation         ...      848.977 sec (=  14.150 min)  20.8 %
Geometry relaxation             ...       97.827 sec (=   1.630 min)   2.4 %
                             ****ORCA TERMINATED NORMALLY****
TOTAL RUN TIME: 0 days 1 hours 10 minutes 23 seconds 327 msec
