Job execution start: Thu Mar 10 16:45:35 GMT 2022
Shared library path: /work/e05/e05/atarzia/orca_4_2_1_linux_x86-64_openmpi314:/work/e05/e05/atarzia/openmpi-3.1.4/lib:/opt/cray/pe/papi/6.0.0.6/lib64:/opt/cray/libfabric/1.11.0.4.71/lib64
Slurm Job ID is: 1233826
Slurm Job name is: o_3_alde1_5_ami3_1_opt_MP2
nid004029

                                 *****************
                                 * O   R   C   A *
                                 *****************

           --- An Ab Initio, DFT and Semiempirical electronic structure package ---

                  #######################################################
                  #                        -***-                        #
                  #          Department of theory and spectroscopy      #
                  #               Directorship: Frank Neese             #
                  #        Max Planck Institute fuer Kohlenforschung    #
                  #                Kaiser Wilhelm Platz 1               #
                  #                 D-45470 Muelheim/Ruhr               #
                  #                      Germany                        #
                  #                                                     #
                  #                  All rights reserved                #
                  #                        -***-                        #
                  #######################################################


                         Program Version 4.2.1 -  RELEASE  -


 With contributions from (in alphabetic order):
   Daniel Aravena         : Magnetic Suceptibility
   Michael Atanasov       : Ab Initio Ligand Field Theory (pilot matlab implementation)
   Alexander A. Auer      : GIAO ZORA, VPT2
   Ute Becker             : Parallelization
   Giovanni Bistoni       : ED, misc. LED, open-shell LED, HFLD
   Martin Brehm           : Molecular dynamics
   Dmytro Bykov           : SCF Hessian
   Vijay G. Chilkuri      : MRCI spin determinant printing, contributions to CSF-ICE
   Dipayan Datta          : RHF DLPNO-CCSD density
   Achintya Kumar Dutta   : EOM-CC, STEOM-CC
   Dmitry Ganyushin       : Spin-Orbit,Spin-Spin,Magnetic field MRCI
   Miquel Garcia          : C-PCM Hessian, Gaussian charge scheme
   Yang Guo               : DLPNO-NEVPT2, CIM, IAO-localization
   Andreas Hansen         : Spin unrestricted coupled pair/coupled cluster methods
   Benjamin Helmich-Paris : CASSCF linear response (MC-RPA)
   Lee Huntington         : MR-EOM, pCC
   Robert Izsak           : Overlap fitted RIJCOSX, COSX-SCS-MP3, EOM
   Christian Kollmar      : KDIIS, OOCD, Brueckner-CCSD(T), CCSD density
   Simone Kossmann        : Meta GGA functionals, TD-DFT gradient, OOMP2, MP2 Hessian
   Martin Krupicka        : AUTO-CI
   Lucas Lang             : DCDCAS
   Dagmar Lenk            : GEPOL surface, SMD
   Dimitrios Liakos       : Extrapolation schemes; Compound Job, initial MDCI parallelization
   Dimitrios Manganas     : Further ROCIS development; embedding schemes
   Dimitrios Pantazis     : SARC Basis sets
   Taras Petrenko         : DFT Hessian,TD-DFT gradient, ASA, ECA, R-Raman, ABS, FL, XAS/XES, NRVS
   Peter Pinski           : DLPNO-MP2, DLPNO-MP2 Gradient
   Christoph Reimann      : Effective Core Potentials
   Marius Retegan         : Local ZFS, SOC
   Christoph Riplinger    : Optimizer, TS searches, QM/MM, DLPNO-CCSD(T), (RO)-DLPNO pert. Triples
   Tobias Risthaus        : Range-separated hybrids, TD-DFT gradient, RPA, STAB
   Michael Roemelt        : Original ROCIS implementation
   Masaaki Saitow         : Open-shell DLPNO-CCSD energy and density
   Barbara Sandhoefer     : DKH picture change effects
   Avijit Sen             : IP-ROCIS
   Kantharuban Sivalingam : CASSCF convergence, NEVPT2, FIC-MRCI
   Bernardo de Souza      : ESD, SOC TD-DFT
   Georgi Stoychev        : AutoAux, RI-MP2 NMR
   Willem Van den Heuvel  : Paramagnetic NMR
   Boris Wezisla          : Elementary symmetry handling
   Frank Wennmohs         : Technical directorship


 We gratefully acknowledge several colleagues who have allowed us to
 interface, adapt or use parts of their codes:
   Stefan Grimme, W. Hujo, H. Kruse,             : VdW corrections, initial TS optimization,
                  C. Bannwarth                     DFT functionals, gCP, sTDA/sTD-DF
   Ed Valeev, F. Pavosevic, A. Kumar             : LibInt (2-el integral package), F12 methods
   Garnet Chan, S. Sharma, J. Yang, R. Olivares  : DMRG
   Ulf Ekstrom                                   : XCFun DFT Library
   Mihaly Kallay                                 : mrcc  (arbitrary order and MRCC methods)
   Andreas Klamt, Michael Diedenhofen            : otool_cosmo (COSMO solvation model)
   Jiri Pittner, Ondrej Demel                    : Mk-CCSD
   Frank Weinhold                                : gennbo (NPA and NBO analysis)
   Christopher J. Cramer and Donald G. Truhlar   : smd solvation model
   Lars Goerigk                                  : TD-DFT with DH, B97 family of functionals
   V. Asgeirsson, H. Jonsson                     : NEB implementation
   FAccTs GmbH                                   : IRC, NEB, NEB-TS, Multilevel, MM, QM/MM, CI optimization
   S Lehtola, MJT Oliveira, MAL Marques          : LibXC Library


 Your calculation uses the libint2 library for the computation of 2-el integrals
 For citations please refer to: http://libint.valeyev.net

 Your ORCA version has been built with support for libXC version: 4.2.3
 For citations please refer to: https://tddft.org/programs/libxc/

 This ORCA versions uses:
   CBLAS   interface :  Fast vector & matrix operations
   LAPACKE interface :  Fast linear algebra routines
   SCALAPACK package :  Parallel linear algebra routines




***************************************
The coordinates will be read from file: _o_3_alde1_5_ami3_1_opt_B97-3c.xyz
***************************************


----- Orbital basis set information -----
Your calculation utilizes the basis: cc-pVTZ 
       H, B-Ne : Obtained from the ccRepo (grant-hill.group.shef.ac.uk/ccrepo) Feb. 2017
                 T. H. Dunning, Jr., J. Chem. Phys. 90, 1007 (1989)
            He : Obtained from the ccRepo (grant-hill.group.shef.ac.uk/ccrepo) Feb. 2017
                 D. E. Woon, T. H. Dunning, Jr., J. Chem. Phys. 100, 2975 (1994)
  Li-Be, Na-Mg : Obtained from the ccRepo (grant-hill.group.shef.ac.uk/ccrepo) Feb. 2017
                 B. P. Prascher, D. E. Woon, K. A. Peterson, T. H. Dunning, Jr., A. K. Wilson, Theor. Chem. Acc. 128, 69 (2011)
         Al-Ar : Obtained from the ccRepo (grant-hill.group.shef.ac.uk/ccrepo) Feb. 2017
                 D. E. Woon, T. H. Dunning, Jr., J. Chem. Phys. 98, 1358 (1993)
            Ca : Obtained from the Peterson Research Group Website (tyr0.chem.wsu.edu/~kipeters) Feb. 2017
                 J. Koput, K. A. Peterson, J. Phys. Chem. 106, 9595 (2002)
         Sc-Zn : Obtained from the ccRepo (grant-hill.group.shef.ac.uk/ccrepo) Feb. 2017
                 N. B. Balabanov, K. A. Peterson, J. Chem. Phys. 123, 064107 (2005)
                 N. B. Balabanov, K. A. Peterson, J. Chem. Phys. 125, 074110 (2006)
         Ga-Kr : Obtained from the ccRepo (grant-hill.group.shef.ac.uk/ccrepo) Feb. 2017
                 A. K. Wilson, D. E. Woon, K. A. Peterson, T. H. Dunning, Jr., J. Chem. Phys. 110, 7667 (1999)
             Y : Obtained from the ccRepo (grant-hill.group.shef.ac.uk/ccrepo) Feb. 2017
                 K. A. Peterson, D. Figgen, M. Dolg, H. Stoll, J. Chem. Phys. 126, 124101 (2007)
        Ag, Au : Obtained from the Peterson Research Group Website (tyr0.chem.wsu.edu/~kipeters) Feb. 2017
                 K. A. Peterson, C. Puzzarini, Theor. Chem. Acc. 114, 283 (2005)

----- AuxC basis set information -----
Your calculation utilizes the auxiliary basis: cc-pVTZ/C 
  Obtained from the EMSL Basis Set Exchange (bse.pnl.gov) Feb. 2017
  H-He, B-F, Al-Ar, Ga-Kr : F. Weigend, A. Kohn, C. Hattig, J. Chem. Phys. 116, 3175 (2002)
             Li-Be, Na-Mg : C. Haettig, Phys. Chem. Chem. Phys. 7, 59 (2005)
                       Ne : C. Haettig, Phys. Chem. Chem. Phys. 7, 59 (2005)
                            F. Weigend, A. Kohn, C. Hattig, J. Chem. Phys. 116, 3175 (2002)
                    Sc-Zn : J. G. Hill, J. A. Platts, J. Chem. Phys. 128, 044104 (2008)

================================================================================
                                        WARNINGS
                       Please study these warnings very carefully!
================================================================================


WARNING: No MP2 level density has been requested!
         To caclulate MP2 level properties use
         %mp2 Density relaxed end
         or
         %mp2 Density unrelaxed end

WARNING: Post HF methods need fully converged wavefunctions
  ===> : Setting SCFConvForced true
         You can overwrite this default with %scf ConvForced false 


INFO   : the flag for use of LIBINT has been found!

================================================================================
                                       INPUT FILE
================================================================================
NAME = o_3_alde1_5_ami3_1_opt_MP2.in
|  1> ! RI-MP2 cc-pVTZ cc-pVTZ/C TIGHTSCF printbasis Grid6 NOFINALGRID SlowConv
|  2> 
|  3> %base "_o_3_alde1_5_ami3_1_opt_MP2"
|  4> %maxcore 3000
|  5> %pal
|  6>    nprocs 32
|  7> end
|  8> 
|  9> * xyzfile 0 1 _o_3_alde1_5_ami3_1_opt_B97-3c.xyz
| 10> 
| 11>                          ****END OF INPUT****
================================================================================

                       ****************************
                       * Single Point Calculation *
                       ****************************

---------------------------------
CARTESIAN COORDINATES (ANGSTROEM)
---------------------------------
  C     -2.809283   -1.995845   -0.476480
  C     -2.862245   -1.666166    0.945880
  C     -2.113722   -3.092983   -0.994538
  C     -2.077166   -3.321994   -2.365992
  H     -1.608713   -3.764670   -0.312807
  C     -2.681266   -2.403507   -3.230009
  C     -3.382992   -1.316014   -2.733500
  H     -2.601964   -2.571669   -4.295746
  C     -3.467882   -1.139485   -1.351270
  C     -3.955479   -0.331201   -3.652868
  H     -4.020355   -0.290746   -0.973589
  C     -1.412989   -4.513311   -2.894747
  H     -3.515740   -0.321062   -4.660426
  H     -3.619887   -0.912828    1.194729
  H     -0.981620   -5.187162   -2.144098
  C      2.230897   -2.914159   -0.200626
  C      1.848838   -3.511791    1.124595
  C      2.890832   -1.692718   -0.281574
  C      3.250502   -1.151359   -1.513983
  H      3.082313   -1.141638    0.630016
  C      2.900689   -1.829610   -2.683454
  C      2.253908   -3.054543   -2.615998
  H      3.135348   -1.375765   -3.637208
  C      1.936523   -3.595864   -1.365759
  C      1.804370   -3.731704   -3.830959
  H      1.416957   -4.543107   -1.332950
  C      3.936330    0.136164   -1.552177
  H      1.732789   -3.109735   -4.734585
  H      4.091771    0.610789   -0.573624
  C     -0.620492    1.561473    0.315879
  C     -0.473090    0.750072    1.524755
  C     -1.885628    1.921883   -0.154700
  C     -2.043843    2.504241   -1.404833
  H     -2.748944    1.672637    0.447124
  C     -0.913754    2.764249   -2.184675
  C      0.355414    2.481326   -1.701816
  H     -1.049934    3.176961   -3.175543
  C      0.493551    1.861522   -0.455768
  C      1.530702    2.750952   -2.530353
  H      1.483834    1.582483   -0.123497
  C     -3.396128    2.692072   -1.920653
  H      1.349764    2.793286   -3.614091
  H     -4.198416    2.477084   -1.203001
  C     -1.238047   -0.421027    3.385847
  C     -2.269297   -1.553097    3.171010
  N     -1.426149    0.558583    2.344132
  H     -0.235407   -0.862240    3.341670
  C     -1.439127    0.197565    4.764713
  N     -2.097680   -2.132797    1.850302
  H     -3.257021   -1.079274    3.258661
  C     -2.134678   -2.604287    4.261205
  H     -2.415865    0.684693    4.787988
  C     -1.342356   -0.843333    5.870172
  H     -1.151648   -3.074332    4.182213
  C     -2.312065   -1.993529    5.642856
  H     -1.530237   -0.374234    6.837391
  H     -0.323716   -1.236050    5.911418
  H     -2.181811   -2.759095    6.409571
  H     -3.336772   -1.625513    5.745077
  C      2.569712   -2.796171    3.243335
  C      2.875343   -4.275232    3.051570
  N      1.606513   -2.496671    2.188744
  H      3.494179   -2.247735    3.019000
  C      2.205572   -2.498853    4.675739
  N      2.904579   -4.432660    1.603529
  H      2.010578   -4.839549    3.423136
  C      4.087466   -4.688807    3.845343
  H      1.305705   -3.056821    4.950026
  C      3.380608   -2.929109    5.557660
  H      4.961091   -4.128527    3.498125
  C      3.818230   -4.374881    5.319022
  H      3.128101   -2.791369    6.609663
  H      4.225294   -2.265225    5.356215
  H      4.706242   -4.589897    5.914585
  H      3.037038   -5.048080    5.681538
  C     -0.605204   -5.935914   -4.556793
  C      0.814758   -5.505979   -4.989562
  N     -1.338605   -4.763600   -4.138535
  H     -0.468260   -6.640335   -3.724432
  C     -1.328261   -6.637179   -5.697355
  N      1.451958   -4.950498   -3.826302
  H      0.706358   -4.764308   -5.794909
  C      1.594628   -6.706125   -5.512702
  H     -1.494843   -5.914108   -6.498477
  C     -0.535771   -7.824610   -6.219683
  H      1.757223   -7.399175   -4.685028
  C      0.862112   -7.404325   -6.646697
  H     -1.066648   -8.289182   -7.051990
  H     -0.458532   -8.585349   -5.437596
  H      1.436757   -8.268878   -6.982606
  H      0.787675   -6.728802   -7.503717
  C     -5.221281    1.534568   -4.245964
  C     -5.034372    2.896774   -3.540635
  N     -4.854259    0.496980   -3.311852
  H     -4.566056    1.529060   -5.129185
  C     -6.665793    1.381017   -4.706274
  N     -3.653888    2.994743   -3.127814
  H     -5.710434    2.887014   -2.673146
  C     -5.429939    4.032208   -4.470448
  H     -7.312553    1.345008   -3.827468
  C     -7.078541    2.525074   -5.620294
  H     -4.743337    4.043587   -5.319501
  C     -6.863635    3.876254   -4.954320
  H     -8.122507    2.406237   -5.914416
  H     -6.490408    2.482220   -6.541385
  H     -7.115313    4.684221   -5.643148
  H     -7.546555    3.969901   -4.105072
  C      4.884269    2.022246   -2.520276
  C      3.810370    3.044066   -2.937327
  N      4.320246    0.697238   -2.626098
  H      5.147094    2.262337   -1.479371
  C      6.121267    2.162825   -3.394367
  N      2.690539    2.896931   -2.039282
  H      3.526984    2.824808   -3.977066
  C      4.376026    4.458341   -2.870389
  H      5.853806    1.897348   -4.419251
  C      6.679374    3.576665   -3.345456
  H      4.607185    4.693208   -1.829512
  C      5.621925    4.600306   -3.730898
  H      7.546690    3.658264   -4.002505
  H      7.034987    3.793660   -2.334052
  H      6.019536    5.612624   -3.642571
  H      5.355242    4.462586   -4.782636
  H      0.494590    0.245706    1.640002
  H      3.798334   -4.101797    1.253165
  H      0.928910   -4.085308    0.988279
  H      0.658371   -2.613049    2.521448
  H     -0.696220    0.982822    4.909862
  H     -2.867172   -3.393663    4.089163
  H      1.983850   -1.441643    4.825848
  H      4.312165   -5.746981    3.710425
  H     -2.314494   -6.949329   -5.351564
  H      2.580939   -6.370078   -5.835154
  H     -6.774937    0.422166   -5.214621
  H     -5.297232    4.982187   -3.951357
  H      6.869896    1.438130   -3.072137
  H      3.604679    5.162092   -3.185825

----------------------------
CARTESIAN COORDINATES (A.U.)
----------------------------
  NO LB      ZA    FRAG     MASS         X           Y           Z
   0 C     6.0000    0    12.011   -5.308775   -3.771600   -0.900416
   1 C     6.0000    0    12.011   -5.408859   -3.148597    1.787455
   2 C     6.0000    0    12.011   -3.994356   -5.844891   -1.879405
   3 C     6.0000    0    12.011   -3.925275   -6.277659   -4.471077
   4 H     1.0000    0     1.008   -3.040026   -7.114196   -0.591119
   5 C     6.0000    0    12.011   -5.066859   -4.541969   -6.103832
   6 C     6.0000    0    12.011   -6.392928   -2.486907   -5.165567
   7 H     1.0000    0     1.008   -4.916998   -4.859749   -8.117784
   8 C     6.0000    0    12.011   -6.553347   -2.153314   -2.553531
   9 C     6.0000    0    12.011   -7.474773   -0.625879   -6.902919
  10 H     1.0000    0     1.008   -7.597371   -0.549430   -1.839816
  11 C     6.0000    0    12.011   -2.670163   -8.528921   -5.470279
  12 H     1.0000    0     1.008   -6.643786   -0.606720   -8.806930
  13 H     1.0000    0     1.008   -6.840595   -1.724994    2.257710
  14 H     1.0000    0     1.008   -1.854992   -9.802316   -4.051757
  15 C     6.0000    0    12.011    4.215785   -5.506963   -0.379128
  16 C     6.0000    0    12.011    3.493798   -6.636323    2.125176
  17 C     6.0000    0    12.011    5.462881   -3.198774   -0.532098
  18 C     6.0000    0    12.011    6.142558   -2.175754   -2.861014
  19 H     1.0000    0     1.008    5.824728   -2.157383    1.190558
  20 C     6.0000    0    12.011    5.481507   -3.457463   -5.070993
  21 C     6.0000    0    12.011    4.259269   -5.772249   -4.943519
  22 H     1.0000    0     1.008    5.924949   -2.599820   -6.873327
  23 C     6.0000    0    12.011    3.659498   -6.795198   -2.580910
  24 C     6.0000    0    12.011    3.409766   -7.051899   -7.239463
  25 H     1.0000    0     1.008    2.677661   -8.585228   -2.518910
  26 C     6.0000    0    12.011    7.438586    0.257312   -2.933189
  27 H     1.0000    0     1.008    3.274497   -5.876548   -8.947069
  28 H     1.0000    0     1.008    7.732326    1.154224   -1.083992
  29 C     6.0000    0    12.011   -1.172560    2.950757    0.596925
  30 C     6.0000    0    12.011   -0.894010    1.417430    2.881368
  31 C     6.0000    0    12.011   -3.563321    3.631833   -0.292340
  32 C     6.0000    0    12.011   -3.862304    4.732329   -2.654749
  33 H     1.0000    0     1.008   -5.194751    3.160827    0.844943
  34 C     6.0000    0    12.011   -1.726746    5.223674   -4.128437
  35 C     6.0000    0    12.011    0.671635    4.689027   -3.215966
  36 H     1.0000    0     1.008   -1.984087    6.003586   -6.000907
  37 C     6.0000    0    12.011    0.932676    3.517767   -0.861278
  38 C     6.0000    0    12.011    2.892607    5.198546   -4.781674
  39 H     1.0000    0     1.008    2.804041    2.990460   -0.233376
  40 C     6.0000    0    12.011   -6.417752    5.087278   -3.629508
  41 H     1.0000    0     1.008    2.550684    5.278545   -6.829643
  42 H     1.0000    0     1.008   -7.933857    4.681010   -2.273342
  43 C     6.0000    0    12.011   -2.339569   -0.795627    6.398324
  44 C     6.0000    0    12.011   -4.288351   -2.934928    5.992340
  45 N     7.0000    0    14.007   -2.695032    1.055568    4.429767
  46 H     1.0000    0     1.008   -0.444854   -1.629397    6.314841
  47 C     6.0000    0    12.011   -2.719556    0.373343    9.004002
  48 N     7.0000    0    14.007   -3.964040   -4.030403    3.496565
  49 H     1.0000    0     1.008   -6.154877   -2.039532    6.157976
  50 C     6.0000    0    12.011   -4.033957   -4.921389    8.052510
  51 H     1.0000    0     1.008   -4.565322    1.293882    9.047985
  52 C     6.0000    0    12.011   -2.536686   -1.593668   11.093017
  53 H     1.0000    0     1.008   -2.176300   -5.809646    7.903237
  54 C     6.0000    0    12.011   -4.369170   -3.767224   10.663453
  55 H     1.0000    0     1.008   -2.891728   -0.707200   12.920796
  56 H     1.0000    0     1.008   -0.611734   -2.335796   11.170961
  57 H     1.0000    0     1.008   -4.123026   -5.213934   12.112333
  58 H     1.0000    0     1.008   -6.305584   -3.071775   10.856622
  59 C     6.0000    0    12.011    4.856052   -5.283997    6.129015
  60 C     6.0000    0    12.011    5.433611   -8.079017    5.766631
  61 N     7.0000    0    14.007    3.035870   -4.718025    4.136127
  62 H     1.0000    0     1.008    6.603042   -4.247603    5.705083
  63 C     6.0000    0    12.011    4.167928   -4.722148    8.835866
  64 N     7.0000    0    14.007    5.488858   -8.376513    3.030231
  65 H     1.0000    0     1.008    3.799441   -9.145423    6.468789
  66 C     6.0000    0    12.011    7.724192   -8.860561    7.266645
  67 H     1.0000    0     1.008    2.467425   -5.776555    9.354193
  68 C     6.0000    0    12.011    6.388424   -5.535213   10.502455
  69 H     1.0000    0     1.008    9.375103   -7.801786    6.610499
  70 C     6.0000    0    12.011    7.215409   -8.267327   10.051494
  71 H     1.0000    0     1.008    5.911253   -5.274922   12.490453
  72 H     1.0000    0     1.008    7.984649   -4.280655   10.121780
  73 H     1.0000    0     1.008    8.893509   -8.673649   11.176947
  74 H     1.0000    0     1.008    5.739169   -9.539489   10.736550
  75 C     6.0000    0    12.011   -1.143669  -11.217252   -8.611091
  76 C     6.0000    0    12.011    1.539669  -10.404793   -9.428905
  77 N     7.0000    0    14.007   -2.529597   -9.001900   -7.820698
  78 H     1.0000    0     1.008   -0.884884  -12.548414   -7.038156
  79 C     6.0000    0    12.011   -2.510049  -12.542451  -10.766442
  80 N     7.0000    0    14.007    2.743802   -9.355085   -7.230663
  81 H     1.0000    0     1.008    1.334823   -9.003236  -10.950792
  82 C     6.0000    0    12.011    3.013409  -12.672739  -10.417497
  83 H     1.0000    0     1.008   -2.824844  -11.176044  -12.280342
  84 C     6.0000    0    12.011   -1.012460  -14.786371  -11.753497
  85 H     1.0000    0     1.008    3.320670  -13.982415   -8.853420
  86 C     6.0000    0    12.011    1.629156  -13.992146  -12.560438
  87 H     1.0000    0     1.008   -2.015673  -15.664284  -13.326329
  88 H     1.0000    0     1.008   -0.866500  -16.223959  -10.275567
  89 H     1.0000    0     1.008    2.715077  -15.625915  -13.195213
  90 H     1.0000    0     1.008    1.488490  -12.715592  -14.179970
  91 C     6.0000    0    12.011   -9.866790    2.899914   -8.023710
  92 C     6.0000    0    12.011   -9.513584    5.474110   -6.690830
  93 N     7.0000    0    14.007   -9.173219    0.939156   -6.258493
  94 H     1.0000    0     1.008   -8.628596    2.889504   -9.692756
  95 C     6.0000    0    12.011  -12.596524    2.609744   -8.893568
  96 N     7.0000    0    14.007   -6.904847    5.659244   -5.910711
  97 H     1.0000    0     1.008  -10.791157    5.455665   -5.051514
  98 C     6.0000    0    12.011  -10.261098    7.619768   -8.447922
  99 H     1.0000    0     1.008  -13.818722    2.541697   -7.232866
 100 C     6.0000    0    12.011  -13.376504    4.771698  -10.620816
 101 H     1.0000    0     1.008   -8.963608    7.641272  -10.052399
 102 C     6.0000    0    12.011  -12.970390    7.325058   -9.362309
 103 H     1.0000    0     1.008  -15.349315    4.547130  -11.176627
 104 H     1.0000    0     1.008  -12.265094    4.690717  -12.361426
 105 H     1.0000    0     1.008  -13.445993    8.851896  -10.664004
 106 H     1.0000    0     1.008  -14.260921    7.502027   -7.757463
 107 C     6.0000    0    12.011    9.229931    3.821490   -4.762632
 108 C     6.0000    0    12.011    7.200555    5.752451   -5.550744
 109 N     7.0000    0    14.007    8.164081    1.317590   -4.962606
 110 H     1.0000    0     1.008    9.726597    4.275198   -2.795606
 111 C     6.0000    0    12.011   11.567518    4.087147   -6.414423
 112 N     7.0000    0    14.007    5.084383    5.474405   -3.853684
 113 H     1.0000    0     1.008    6.665035    5.338114   -7.515566
 114 C     6.0000    0    12.011    8.269491    8.425044   -5.424248
 115 H     1.0000    0     1.008   11.062090    3.585468   -8.351174
 116 C     6.0000    0    12.011   12.622189    6.758918   -6.321995
 117 H     1.0000    0     1.008    8.706318    8.868878   -3.457277
 118 C     6.0000    0    12.011   10.623899    8.693319   -7.050375
 119 H     1.0000    0     1.008   14.261177    6.913117   -7.563639
 120 H     1.0000    0     1.008   13.294198    7.168978   -4.410720
 121 H     1.0000    0     1.008   11.375275   10.606322   -6.883461
 122 H     1.0000    0     1.008   10.119941    8.433066   -9.037871
 123 H     1.0000    0     1.008    0.934640    0.464317    3.099154
 124 H     1.0000    0     1.008    7.177811   -7.751272    2.368138
 125 H     1.0000    0     1.008    1.755386   -7.720113    1.867576
 126 H     1.0000    0     1.008    1.244141   -4.937946    4.764846
 127 H     1.0000    0     1.008   -1.315664    1.857265    9.278295
 128 H     1.0000    0     1.008   -5.418170   -6.413093    7.727399
 129 H     1.0000    0     1.008    3.748933   -2.724310    9.119530
 130 H     1.0000    0     1.008    8.148811  -10.860220    7.011686
 131 H     1.0000    0     1.008   -4.373760  -13.132329  -10.112991
 132 H     1.0000    0     1.008    4.877267  -12.037702  -11.026844
 133 H     1.0000    0     1.008  -12.802775    0.797778   -9.854206
 134 H     1.0000    0     1.008  -10.010318    9.414968   -7.466982
 135 H     1.0000    0     1.008   12.982222    2.717673   -5.805498
 136 H     1.0000    0     1.008    6.811855    9.754940   -6.020337

--------------------------------
INTERNAL COORDINATES (ANGSTROEM)
--------------------------------
 C      0   0   0     0.000000000000     0.00000000     0.00000000
 C      1   0   0     1.461027390308     0.00000000     0.00000000
 C      1   2   0     1.398535397913   123.75716237     0.00000000
 C      3   1   2     1.390923350956   120.49609195   181.83839790
 H      3   1   2     1.082107450778   119.05748134     2.17497804
 C      4   3   1     1.398242272254   119.32558078     3.49184408
 C      6   4   3     1.386210205282   120.84467152   356.03683209
 H      6   4   3     1.081833343113   118.35666174   177.06660572
 C      1   2   3     1.390094907330   117.15912856   181.58793653
 C      7   6   4     1.463843181453   120.05333696   177.14787791
 H      9   1   2     1.080845971857   120.39946604   357.86503248
 C      4   3   1     1.462855955393   120.15969448   183.52313396
 H     10   7   6     1.099385294382   115.17393654   340.09114510
 H      2   1   3     1.097025518555   113.62984879   192.54626948
 H     12   4   3     1.097101032271   115.55692564     0.97772257
 C      5   3   1     3.934279860234   109.83040669   260.16446484
 C     16   5   3     1.503110512503    72.00850425   151.78576702
 C     16   5   3     1.390678118551   130.64233764    35.46729631
 C     18  16   5     1.393292465383   121.01411250   272.19375963
 H     18  16   5     1.082289954939   118.82564134    89.37230711
 C     19  18  16     1.396443820260   119.16848743     2.13196142
 C     21  19  18     1.386843368774   120.33712308   357.26906010
 H     21  19  18     1.081983242005   118.69552549   176.66175617
 C     16   5   3     1.381633825846    70.20562897   283.69592522
 C     22  21  19     1.461766905668   120.80784676   175.93574301
 H     24  16   5     1.080876407106   120.61202737   306.81625009
 C     19  18  16     1.459292677121   119.16213859   179.71653824
 H     25  22  21     1.099322377617   116.17600383   342.53361610
 H     27  19  18     1.098634272274   115.10921917   358.00862685
 C      2   1   3     3.979951140094    90.48547144   110.61536944
 C     30   2   1     1.463379760474    58.41988673   217.05010729
 C     30   2   1     1.397107543799    75.66845539    75.97618308
 C     32  30   2     1.388166013566   120.98149056   228.90528773
 H     32  30   2     1.081493953443   118.42261433    44.59160653
 C     33  32  30     1.397446993462   119.23837832   358.26864404
 C     35  33  32     1.387078581551   120.51237040   358.10528848
 H     35  33  32     1.081986997288   118.70117819   177.27187539
 C     30   2   1     1.388005871663   135.67578757   319.03671702
 C     36  35  33     1.463035275079   120.02007404   179.65943184
 H     38  30   2     1.081169689319   120.56424608   280.13048551
 C     33  32  30     1.459460367291   118.54727894   171.74026671
 H     39  36  35     1.099554073657   115.66269342   336.96095928
 H     41  33  32     1.097684539393   114.89413548     8.12836152
 C     31  30   2     2.328153267526   154.98168781   312.84307147
 C     44  31  30     1.546355339468   118.44479684    56.05491889
 N     31  30   2     1.271365150831   122.71116471   300.46257529
 H     44  31  30     1.096315140873    82.51501335   162.55719139
 C     44  31  30     1.524585052609   124.20946934   270.09821653
 N      2   1   3     1.272903970872   125.96000457    15.19773906
 H     45  44  31     1.098994328814   105.82230063   269.16580362
 C     45  44  31     1.520410538236   110.33378927   151.76248899
 H     48  44  31     1.091719439040   108.56178644    83.23038523
 C     48  44  31     1.521470157268   111.78672890   205.10430569
 H     51  45  44     1.092488044772   108.98345800   295.95580706
 C     51  45  44     1.521003374437   111.30879736    57.55460141
 H     53  48  44     1.091267740844   109.81244863   182.24753907
 H     53  48  44     1.092500022687   109.43029418    65.85844516
 H     55  51  45     1.091287566186   110.03485605   181.69645902
 H     55  51  45     1.093575713022   109.22762858    65.24984011
 C     17  16   5     2.349645110615   126.57921562   221.15776468
 C     60  17  16     1.522434127192    69.64237150   235.03060503
 N     60  17  16     1.459319743512    37.66150632    80.71009181
 H     60  17  16     1.098065596181   103.07294981   338.44032412
 C     60  17  16     1.507573275876   147.42923009   137.44806918
 N     61  60  17     1.456866345790   103.54482810    22.58828282
 H     61  60  17     1.097422018620   107.38145464   269.30466045
 C     61  60  17     1.506772350472   111.21057254   150.95443856
 H     64  60  17     1.093765411655   109.65666266    23.44005106
 C     64  60  17     1.530886581595   107.85075108   143.33412678
 H     67  61  60     1.094391600024   109.54289589   298.42354296
 C     69  64  60     1.529287264970   113.29401180   306.90993789
 H     69  64  60     1.090615810172   110.02828370   183.78181950
 H     69  64  60     1.093076148562   108.43750736    67.95515572
 H     71  69  64     1.090639076384   109.52175019   175.31504258
 H     71  69  64     1.093103925437   109.02440866   291.15012388
 C     12   4   3     2.332105266232   155.73329503   184.56012359
 C     76  12   4     1.545452254820   110.37236224    86.19937724
 N     12   4   3     1.270899951095   122.73125980   180.74315892
 H     76  12   4     1.098993536047    83.93733697   191.06401302
 C     76  12   4     1.521665887068   130.59619101   301.43101503
 N     25  22  21     1.268729161802   121.82910130   166.01438684
 H     77  76  12     1.100187578532   107.57739111   271.84643849
 C     77  76  12     1.523883701323   110.31906263   152.73656721
 H     80  76  12     1.091960439456   108.49565974    78.76131963
 C     80  76  12     1.520151065737   111.70401260   200.38520530
 H     83  77  76     1.091696243625   108.41655446   293.99144745
 C     83  77  76     1.519871164159   111.79431045    55.70586021
 H     85  80  76     1.091051276341   109.94142310   181.48816348
 H     85  80  76     1.093777388728   109.53686687    64.81246217
 H     87  83  77     1.091101941410   109.86881500   181.18150210
 H     87  83  77     1.093779880245   109.49304735    64.55023533
 C     10   7   6     2.331332346490   155.57846038   173.51901369
 C     92  10   7     1.545324662215   121.57941523    51.81394310
 N     10   7   6     1.268849436395   123.18463026   163.00941785
 H     92  10   7     1.099740426462    82.92410292   157.91114614
 C     92  10   7     1.523837226041   120.72331273   265.56717266
 N     41  33  32     1.270939630131   123.65991201   192.60683569
 H     93  92  10     1.099860169590   106.13062473   271.36585486
 C     93  92  10     1.519945729017   110.35330156   153.15284430
 H     96  92  10     1.091738860043   108.76825660    84.79043413
 C     96  92  10     1.521400311677   111.27693281   206.55295851
 H     99  93  92     1.091990119208   108.65047755   295.38863128
 C     99  93  92     1.521163146680   111.30241029    56.98700263
 H    101  96  92     1.091098805251   109.85388760   181.47997446
 H    101  96  92     1.093684137486   109.30604194    65.02045553
 H    103  99  93     1.091162833557   110.01585403   181.72849360
 H    103  99  93     1.093787721128   109.43313467    65.13799446
 C     27  19  18     2.322306938400   156.82539048   186.10522930
 C    108  27  19     1.539905111145   111.54022546    78.53878698
 N     27  19  18     1.271024403850   123.61056803   178.89858061
 H    108  27  19     1.100093161786    83.12698342   183.22424162
 C    108  27  19     1.521170433044   130.28049968   292.64840257
 N     39  36  35     1.267944835352   122.46028357   158.51318351
 H    109 108  27     1.099744542706   107.66550780   268.99125900
 C    109 108  27     1.524671791452   110.17534762   150.49525254
 H    112 108  27     1.091971333591   108.52203077    81.12886973
 C    112 108  27     1.520796503849   111.46064837   202.72255667
 H    115 109 108     1.091797048206   108.65984348   294.83079283
 C    115 109 108     1.520820033013   111.44960310    56.49494397
 H    117 112 108     1.091150087809   109.99014124   181.67432857
 H    117 112 108     1.093838653366   109.47971742    65.01382217
 H    119 115 109     1.091184194871   109.83511184   181.52720536
 H    119 115 109     1.093726986572   109.42609874    64.98933386
 H     31  30   2     1.097301670208   115.49601781   115.64237963
 H     65  61  60     1.015393913589   108.99070737    79.17726333
 H     17  16   5     1.092598145224   108.22290499    21.22052167
 H     62  60  17     1.011537823055   110.93848120   116.75317515
 H     48  44  31     1.090692278247   108.82297499   327.60824645
 H     51  45  44     1.090531945238   109.13920382   180.19946436
 H     64  60  17     1.090590255477   111.78119032   264.91853786
 H     67  61  60     1.090148826102   111.53320858   180.09970079
 H     80  76  12     1.090717734817   108.89993402   323.21509515
 H     83  77  76     1.090739391173   108.76067187   178.49955923
 H     96  92  10     1.090745599865   108.91821668   328.89322763
 H     99  93  92     1.090654060930   109.13824476   179.60722458
 H    112 108  27     1.090623487299   109.08742478   325.48723736
 H    115 109 108     1.090753145461   108.87000187   179.03635589

---------------------------
INTERNAL COORDINATES (A.U.)
---------------------------
 C      0   0   0     0.000000000000     0.00000000     0.00000000
 C      1   0   0     2.760941641840     0.00000000     0.00000000
 C      1   2   0     2.642848890651   123.75716237     0.00000000
 C      3   1   2     2.628464206583   120.49609195   181.83839790
 H      3   1   2     2.044886729447   119.05748134     2.17497804
 C      4   3   1     2.642294963431   119.32558078     3.49184408
 C      6   4   3     2.619557652030   120.84467152   356.03683209
 H      6   4   3     2.044368741028   118.35666174   177.06660572
 C      1   2   3     2.626898675012   117.15912856   181.58793653
 C      7   6   4     2.766262715953   120.05333696   177.14787791
 H      9   1   2     2.042502879761   120.39946604   357.86503248
 C      4   3   1     2.764397129069   120.15969448   183.52313396
 H     10   7   6     2.077537122043   115.17393654   340.09114510
 H      2   1   3     2.073077791992   113.62984879   192.54626948
 H     12   4   3     2.073220492234   115.55692564     0.97772257
 C      5   3   1     7.434711470044   109.83040669   260.16446484
 C     16   5   3     2.840467217649    72.00850425   151.78576702
 C     16   5   3     2.628000784499   130.64233764    35.46729631
 C     18  16   5     2.632941184030   121.01411250   272.19375963
 H     18  16   5     2.045231612329   118.82564134    89.37230711
 C     19  18  16     2.638896381698   119.16848743     2.13196142
 C     21  19  18     2.620754157627   120.33712308   357.26906010
 H     21  19  18     2.044652008882   118.69552549   176.66175617
 C     16   5   3     2.610909548211    70.20562897   283.69592522
 C     22  21  19     2.762339123342   120.80784676   175.93574301
 H     24  16   5     2.042560394047   120.61202737   306.81625009
 C     19  18  16     2.757663508995   119.16213859   179.71653824
 H     25  22  21     2.077418226587   116.17600383   342.53361610
 H     27  19  18     2.076117895937   115.10921917   358.00862685
 C      2   1   3     7.521017681164    90.48547144   110.61536944
 C     30   2   1     2.765386977219    58.41988673   217.05010729
 C     30   2   1     2.640150637415    75.66845539    75.97618308
 C     32  30   2     2.623253594056   120.98149056   228.90528773
 H     32  30   2     2.043727387499   118.42261433    44.59160653
 C     33  32  30     2.640792104315   119.23837832   358.26864404
 C     35  33  32     2.621198645360   120.51237040   358.10528848
 H     35  33  32     2.044659105339   118.70117819   177.27187539
 C     30   2   1     2.622950969718   135.67578757   319.03671702
 C     36  35  33     2.764735994165   120.02007404   179.65943184
 H     38  30   2     2.043114617110   120.56424608   280.13048551
 C     33  32  30     2.757980397491   118.54727894   171.74026671
 H     39  36  35     2.077856068650   115.66269342   336.96095928
 H     41  33  32     2.074323160892   114.89413548     8.12836152
 C     31  30   2     4.399572073419   154.98168781   312.84307147
 C     44  31  30     2.922188097321   118.44479684    56.05491889
 N     31  30   2     2.402531951281   122.71116471   300.46257529
 H     44  31  30     2.071735372721    82.51501335   162.55719139
 C     44  31  30     2.881048217301   124.20946934   270.09821653
 N      2   1   3     2.405439899729   125.96000457    15.19773906
 H     45  44  31     2.076798304192   105.82230063   269.16580362
 C     45  44  31     2.873159528393   110.33378927   151.76248899
 H     48  44  31     2.063050754864   108.56178644    83.23038523
 C     48  44  31     2.875161918170   111.78672890   205.10430569
 H     51  45  44     2.064503209203   108.98345800   295.95580706
 C     51  45  44     2.874279826457   111.30879736    57.55460141
 H     53  48  44     2.062197168977   109.81244863   182.24753907
 H     53  48  44     2.064525844181   109.43029418    65.85844516
 H     55  51  45     2.062234633446   110.03485605   181.69645902
 H     55  51  45     2.066558604319   109.22762858    65.24984011
 C     17  16   5     4.440185770969   126.57921562   221.15776468
 C     60  17  16     2.876983557328    69.64237150   235.03060503
 N     60  17  16     2.757714657063    37.66150632    80.71009181
 H     60  17  16     2.075043253863   103.07294981   338.44032412
 C     60  17  16     2.848900618224   147.42923009   137.44806918
 N     61  60  17     2.753078407270   103.54482810    22.58828282
 H     61  60  17     2.073827068527   107.38145464   269.30466045
 C     61  60  17     2.847387088557   111.21057254   150.95443856
 H     64  60  17     2.066917082783   109.65666266    23.44005106
 C     64  60  17     2.892956381309   107.85075108   143.33412678
 H     67  61  60     2.068100407309   109.54289589   298.42354296
 C     69  64  60     2.889934110887   113.29401180   306.90993789
 H     69  64  60     2.060965198550   110.02828370   183.78181950
 H     69  64  60     2.065614564303   108.43750736    67.95515572
 H     71  69  64     2.061009165318   109.52175019   175.31504258
 H     71  69  64     2.065667054990   109.02440866   291.15012388
 C     12   4   3     4.407040268654   155.73329503   184.56012359
 C     76  12   4     2.920481514661   110.37236224    86.19937724
 N     12   4   3     2.401652851184   122.73125980   180.74315892
 H     76  12   4     2.076796806078    83.93733697   191.06401302
 C     76  12   4     2.875531793889   130.59619101   301.43101503
 N     25  22  21     2.397550653926   121.82910130   166.01438684
 H     77  76  12     2.079053219368   107.57739111   271.84643849
 C     77  76  12     2.879722855447   110.31906263   152.73656721
 H     80  76  12     2.063506179648   108.49565974    78.76131963
 C     80  76  12     2.872669196432   111.70401260   200.38520530
 H     83  77  76     2.063006921881   108.41655446   293.99144745
 C     83  77  76     2.872140259104   111.79431045    55.70586021
 H     85  80  76     2.061788110350   109.94142310   181.48816348
 H     85  80  76     2.066939716172   109.53686687    64.81246217
 H     87  83  77     2.061883853455   109.86881500   181.18150210
 H     87  83  77     2.066944424456   109.49304735    64.55023533
 C     10   7   6     4.405579662017   155.57846038   173.51901369
 C     92  10   7     2.920240399580   121.57941523    51.81394310
 N     10   7   6     2.397777939967   123.18463026   163.00941785
 H     92  10   7     2.078208224415    82.92410292   157.91114614
 C     92  10   7     2.879635029891   120.72331273   265.56717266
 N     41  33  32     2.401727833695   123.65991201   192.60683569
 H     93  92  10     2.078434506132   106.13062473   271.36585486
 C     93  92  10     2.872281166265   110.35330156   153.15284430
 H     96  92  10     2.063087455240   108.76825660    84.79043413
 C     96  92  10     2.875029929131   111.27693281   206.55295851
 H     99  93  92     2.063562266252   108.65047755   295.38863128
 C     99  93  92     2.874581752239   111.30241029    56.98700263
 H    101  96  92     2.061877926972   109.85388760   181.47997446
 H    101  96  92     2.066763496862   109.30604194    65.02045553
 H    103  99  93     2.061998922937   110.01585403   181.72849360
 H    103  99  93     2.066959241578   109.43313467    65.13799446
 C     27  19  18     4.388524112482   156.82539048   186.10522930
 C    108  27  19     2.909998932289   111.54022546    78.53878698
 N     27  19  18     2.401888032806   123.61056803   178.89858061
 H    108  27  19     2.078874797575    83.12698342   183.22424162
 C    108  27  19     2.874595521471   130.28049968   292.64840257
 N     39  36  35     2.396068491736   122.46028357   158.51318351
 H    109 108  27     2.078216002988   107.66550780   268.99125900
 C    109 108  27     2.881212129960   110.17534762   150.49525254
 H    112 108  27     2.063526766580   108.52203077    81.12886973
 C    112 108  27     2.873888897700   111.46064837   202.72255667
 H    115 109 108     2.063197414934   108.65984348   294.83079283
 C    115 109 108     2.873933361375   111.44960310    56.49494397
 H    117 112 108     2.061974836964   109.99014124   181.67432857
 H    117 112 108     2.067055489559   109.47971742    65.01382217
 H    119 115 109     2.062039289970   109.83511184   181.52720536
 H    119 115 109     2.066844469900   109.42609874    64.98933386
 H     31  30   2     2.073599642987   115.49601781   115.64237963
 H     65  61  60     1.918816414733   108.99070737    79.17726333
 H     17  16   5     2.064711268904   108.22290499    21.22052167
 H     62  60  17     1.911529459676   110.93848120   116.75317515
 H     48  44  31     2.061109702269   108.82297499   327.60824645
 H     51  45  44     2.060806716793   109.13920382   180.19946436
 H     64  60  17     2.060916907175   111.78119032   264.91853786
 H     67  61  60     2.060082726549   111.53320858   180.09970079
 H     80  76  12     2.061157808216   108.89993402   323.21509515
 H     83  77  76     2.061198732798   108.76067187   178.49955923
 H     96  92  10     2.061210465524   108.91821668   328.89322763
 H     99  93  92     2.061037482007   109.13824476   179.60722458
 H    112 108  27     2.060979706218   109.08742478   325.48723736
 H    115 109 108     2.061224724635   108.87000187   179.03635589

---------------------
BASIS SET INFORMATION
---------------------
There are 3 groups of distinct atoms

 Group   1 Type C   : 18s5p2d1f contracted to 4s3p2d1f pattern {8811/311/11/1}
 Group   2 Type H   : 5s2p1d contracted to 3s2p1d pattern {311/11/1}
 Group   3 Type N   : 18s5p2d1f contracted to 4s3p2d1f pattern {8811/311/11/1}

Atom   0C    basis set group =>   1
Atom   1C    basis set group =>   1
Atom   2C    basis set group =>   1
Atom   3C    basis set group =>   1
Atom   4H    basis set group =>   2
Atom   5C    basis set group =>   1
Atom   6C    basis set group =>   1
Atom   7H    basis set group =>   2
Atom   8C    basis set group =>   1
Atom   9C    basis set group =>   1
Atom  10H    basis set group =>   2
Atom  11C    basis set group =>   1
Atom  12H    basis set group =>   2
Atom  13H    basis set group =>   2
Atom  14H    basis set group =>   2
Atom  15C    basis set group =>   1
Atom  16C    basis set group =>   1
Atom  17C    basis set group =>   1
Atom  18C    basis set group =>   1
Atom  19H    basis set group =>   2
Atom  20C    basis set group =>   1
Atom  21C    basis set group =>   1
Atom  22H    basis set group =>   2
Atom  23C    basis set group =>   1
Atom  24C    basis set group =>   1
Atom  25H    basis set group =>   2
Atom  26C    basis set group =>   1
Atom  27H    basis set group =>   2
Atom  28H    basis set group =>   2
Atom  29C    basis set group =>   1
Atom  30C    basis set group =>   1
Atom  31C    basis set group =>   1
Atom  32C    basis set group =>   1
Atom  33H    basis set group =>   2
Atom  34C    basis set group =>   1
Atom  35C    basis set group =>   1
Atom  36H    basis set group =>   2
Atom  37C    basis set group =>   1
Atom  38C    basis set group =>   1
Atom  39H    basis set group =>   2
Atom  40C    basis set group =>   1
Atom  41H    basis set group =>   2
Atom  42H    basis set group =>   2
Atom  43C    basis set group =>   1
Atom  44C    basis set group =>   1
Atom  45N    basis set group =>   3
Atom  46H    basis set group =>   2
Atom  47C    basis set group =>   1
Atom  48N    basis set group =>   3
Atom  49H    basis set group =>   2
Atom  50C    basis set group =>   1
Atom  51H    basis set group =>   2
Atom  52C    basis set group =>   1
Atom  53H    basis set group =>   2
Atom  54C    basis set group =>   1
Atom  55H    basis set group =>   2
Atom  56H    basis set group =>   2
Atom  57H    basis set group =>   2
Atom  58H    basis set group =>   2
Atom  59C    basis set group =>   1
Atom  60C    basis set group =>   1
Atom  61N    basis set group =>   3
Atom  62H    basis set group =>   2
Atom  63C    basis set group =>   1
Atom  64N    basis set group =>   3
Atom  65H    basis set group =>   2
Atom  66C    basis set group =>   1
Atom  67H    basis set group =>   2
Atom  68C    basis set group =>   1
Atom  69H    basis set group =>   2
Atom  70C    basis set group =>   1
Atom  71H    basis set group =>   2
Atom  72H    basis set group =>   2
Atom  73H    basis set group =>   2
Atom  74H    basis set group =>   2
Atom  75C    basis set group =>   1
Atom  76C    basis set group =>   1
Atom  77N    basis set group =>   3
Atom  78H    basis set group =>   2
Atom  79C    basis set group =>   1
Atom  80N    basis set group =>   3
Atom  81H    basis set group =>   2
Atom  82C    basis set group =>   1
Atom  83H    basis set group =>   2
Atom  84C    basis set group =>   1
Atom  85H    basis set group =>   2
Atom  86C    basis set group =>   1
Atom  87H    basis set group =>   2
Atom  88H    basis set group =>   2
Atom  89H    basis set group =>   2
Atom  90H    basis set group =>   2
Atom  91C    basis set group =>   1
Atom  92C    basis set group =>   1
Atom  93N    basis set group =>   3
Atom  94H    basis set group =>   2
Atom  95C    basis set group =>   1
Atom  96N    basis set group =>   3
Atom  97H    basis set group =>   2
Atom  98C    basis set group =>   1
Atom  99H    basis set group =>   2
Atom 100C    basis set group =>   1
Atom 101H    basis set group =>   2
Atom 102C    basis set group =>   1
Atom 103H    basis set group =>   2
Atom 104H    basis set group =>   2
Atom 105H    basis set group =>   2
Atom 106H    basis set group =>   2
Atom 107C    basis set group =>   1
Atom 108C    basis set group =>   1
Atom 109N    basis set group =>   3
Atom 110H    basis set group =>   2
Atom 111C    basis set group =>   1
Atom 112N    basis set group =>   3
Atom 113H    basis set group =>   2
Atom 114C    basis set group =>   1
Atom 115H    basis set group =>   2
Atom 116C    basis set group =>   1
Atom 117H    basis set group =>   2
Atom 118C    basis set group =>   1
Atom 119H    basis set group =>   2
Atom 120H    basis set group =>   2
Atom 121H    basis set group =>   2
Atom 122H    basis set group =>   2
Atom 123H    basis set group =>   2
Atom 124H    basis set group =>   2
Atom 125H    basis set group =>   2
Atom 126H    basis set group =>   2
Atom 127H    basis set group =>   2
Atom 128H    basis set group =>   2
Atom 129H    basis set group =>   2
Atom 130H    basis set group =>   2
Atom 131H    basis set group =>   2
Atom 132H    basis set group =>   2
Atom 133H    basis set group =>   2
Atom 134H    basis set group =>   2
Atom 135H    basis set group =>   2
Atom 136H    basis set group =>   2

-------------------------
BASIS SET IN INPUT FORMAT
-------------------------

 # Basis set for element : H 
 NewGTO H 
 S 3 
   1      33.8700000000      0.0254948632
   2       5.0950000000      0.1903627659
   3       1.1590000000      0.8521620222
 S 1 
   1       0.3258000000      1.0000000000
 S 1 
   1       0.1027000000      1.0000000000
 P 1 
   1       1.4070000000      1.0000000000
 P 1 
   1       0.3880000000      1.0000000000
 D 1 
   1       1.0570000000      1.0000000000
  end;

 # Basis set for element : C 
 NewGTO C 
 S 8 
   1    8236.0000000000      0.0005424302
   2    1235.0000000000      0.0041964279
   3     280.8000000000      0.0215409141
   4      79.2700000000      0.0836149496
   5      25.5900000000      0.2398716189
   6       8.9970000000      0.4437518201
   7       3.3190000000      0.3535796965
   8       0.3643000000     -0.0091763661
 S 8 
   1    8236.0000000000     -0.0001963922
   2    1235.0000000000     -0.0015259503
   3     280.8000000000     -0.0078904490
   4      79.2700000000     -0.0315148705
   5      25.5900000000     -0.0969100083
   6       8.9970000000     -0.2205415263
   7       3.3190000000     -0.2960691129
   8       0.3643000000      1.0405034329
 S 1 
   1       0.9059000000      1.0000000000
 S 1 
   1       0.1285000000      1.0000000000
 P 3 
   1      18.7100000000      0.0394263872
   2       4.1330000000      0.2440889849
   3       1.2000000000      0.8154920089
 P 1 
   1       0.3827000000      1.0000000000
 P 1 
   1       0.1209000000      1.0000000000
 D 1 
   1       1.0970000000      1.0000000000
 D 1 
   1       0.3180000000      1.0000000000
 F 1 
   1       0.7610000000      1.0000000000
  end;

 # Basis set for element : N 
 NewGTO N 
 S 8 
   1   11420.0000000000      0.0005349809
   2    1712.0000000000      0.0041376631
   3     389.3000000000      0.0212509149
   4     110.0000000000      0.0825762988
   5      35.5700000000      0.2384132727
   6      12.5400000000      0.4434316661
   7       4.6440000000      0.3554319088
   8       0.5118000000     -0.0087029018
 S 8 
   1   11420.0000000000     -0.0001987770
   2    1712.0000000000     -0.0015470035
   3     389.3000000000     -0.0079925633
   4     110.0000000000     -0.0320255651
   5      35.5700000000     -0.0991102048
   6      12.5400000000     -0.2282927747
   7       4.6440000000     -0.2981827627
   8       0.5118000000      1.0370005182
 S 1 
   1       1.2930000000      1.0000000000
 S 1 
   1       0.1787000000      1.0000000000
 P 3 
   1      26.6300000000      0.0398072123
   2       5.9480000000      0.2490026605
   3       1.7420000000      0.8104797267
 P 1 
   1       0.5550000000      1.0000000000
 P 1 
   1       0.1725000000      1.0000000000
 D 1 
   1       1.6540000000      1.0000000000
 D 1 
   1       0.4690000000      1.0000000000
 F 1 
   1       1.0930000000      1.0000000000
  end;

---------------------------------
AUXILIARY/C BASIS SET INFORMATION
---------------------------------
There are 3 groups of distinct atoms

 Group   1 Type C   : 8s6p5d3f1g contracted to 8s6p5d3f1g pattern {11111111/111111/11111/111/1}
 Group   2 Type H   : 4s3p2d1f contracted to 4s3p2d1f pattern {1111/111/11/1}
 Group   3 Type N   : 8s6p5d3f1g contracted to 8s6p5d3f1g pattern {11111111/111111/11111/111/1}

Atom   0C    basis set group =>   1
Atom   1C    basis set group =>   1
Atom   2C    basis set group =>   1
Atom   3C    basis set group =>   1
Atom   4H    basis set group =>   2
Atom   5C    basis set group =>   1
Atom   6C    basis set group =>   1
Atom   7H    basis set group =>   2
Atom   8C    basis set group =>   1
Atom   9C    basis set group =>   1
Atom  10H    basis set group =>   2
Atom  11C    basis set group =>   1
Atom  12H    basis set group =>   2
Atom  13H    basis set group =>   2
Atom  14H    basis set group =>   2
Atom  15C    basis set group =>   1
Atom  16C    basis set group =>   1
Atom  17C    basis set group =>   1
Atom  18C    basis set group =>   1
Atom  19H    basis set group =>   2
Atom  20C    basis set group =>   1
Atom  21C    basis set group =>   1
Atom  22H    basis set group =>   2
Atom  23C    basis set group =>   1
Atom  24C    basis set group =>   1
Atom  25H    basis set group =>   2
Atom  26C    basis set group =>   1
Atom  27H    basis set group =>   2
Atom  28H    basis set group =>   2
Atom  29C    basis set group =>   1
Atom  30C    basis set group =>   1
Atom  31C    basis set group =>   1
Atom  32C    basis set group =>   1
Atom  33H    basis set group =>   2
Atom  34C    basis set group =>   1
Atom  35C    basis set group =>   1
Atom  36H    basis set group =>   2
Atom  37C    basis set group =>   1
Atom  38C    basis set group =>   1
Atom  39H    basis set group =>   2
Atom  40C    basis set group =>   1
Atom  41H    basis set group =>   2
Atom  42H    basis set group =>   2
Atom  43C    basis set group =>   1
Atom  44C    basis set group =>   1
Atom  45N    basis set group =>   3
Atom  46H    basis set group =>   2
Atom  47C    basis set group =>   1
Atom  48N    basis set group =>   3
Atom  49H    basis set group =>   2
Atom  50C    basis set group =>   1
Atom  51H    basis set group =>   2
Atom  52C    basis set group =>   1
Atom  53H    basis set group =>   2
Atom  54C    basis set group =>   1
Atom  55H    basis set group =>   2
Atom  56H    basis set group =>   2
Atom  57H    basis set group =>   2
Atom  58H    basis set group =>   2
Atom  59C    basis set group =>   1
Atom  60C    basis set group =>   1
Atom  61N    basis set group =>   3
Atom  62H    basis set group =>   2
Atom  63C    basis set group =>   1
Atom  64N    basis set group =>   3
Atom  65H    basis set group =>   2
Atom  66C    basis set group =>   1
Atom  67H    basis set group =>   2
Atom  68C    basis set group =>   1
Atom  69H    basis set group =>   2
Atom  70C    basis set group =>   1
Atom  71H    basis set group =>   2
Atom  72H    basis set group =>   2
Atom  73H    basis set group =>   2
Atom  74H    basis set group =>   2
Atom  75C    basis set group =>   1
Atom  76C    basis set group =>   1
Atom  77N    basis set group =>   3
Atom  78H    basis set group =>   2
Atom  79C    basis set group =>   1
Atom  80N    basis set group =>   3
Atom  81H    basis set group =>   2
Atom  82C    basis set group =>   1
Atom  83H    basis set group =>   2
Atom  84C    basis set group =>   1
Atom  85H    basis set group =>   2
Atom  86C    basis set group =>   1
Atom  87H    basis set group =>   2
Atom  88H    basis set group =>   2
Atom  89H    basis set group =>   2
Atom  90H    basis set group =>   2
Atom  91C    basis set group =>   1
Atom  92C    basis set group =>   1
Atom  93N    basis set group =>   3
Atom  94H    basis set group =>   2
Atom  95C    basis set group =>   1
Atom  96N    basis set group =>   3
Atom  97H    basis set group =>   2
Atom  98C    basis set group =>   1
Atom  99H    basis set group =>   2
Atom 100C    basis set group =>   1
Atom 101H    basis set group =>   2
Atom 102C    basis set group =>   1
Atom 103H    basis set group =>   2
Atom 104H    basis set group =>   2
Atom 105H    basis set group =>   2
Atom 106H    basis set group =>   2
Atom 107C    basis set group =>   1
Atom 108C    basis set group =>   1
Atom 109N    basis set group =>   3
Atom 110H    basis set group =>   2
Atom 111C    basis set group =>   1
Atom 112N    basis set group =>   3
Atom 113H    basis set group =>   2
Atom 114C    basis set group =>   1
Atom 115H    basis set group =>   2
Atom 116C    basis set group =>   1
Atom 117H    basis set group =>   2
Atom 118C    basis set group =>   1
Atom 119H    basis set group =>   2
Atom 120H    basis set group =>   2
Atom 121H    basis set group =>   2
Atom 122H    basis set group =>   2
Atom 123H    basis set group =>   2
Atom 124H    basis set group =>   2
Atom 125H    basis set group =>   2
Atom 126H    basis set group =>   2
Atom 127H    basis set group =>   2
Atom 128H    basis set group =>   2
Atom 129H    basis set group =>   2
Atom 130H    basis set group =>   2
Atom 131H    basis set group =>   2
Atom 132H    basis set group =>   2
Atom 133H    basis set group =>   2
Atom 134H    basis set group =>   2
Atom 135H    basis set group =>   2
Atom 136H    basis set group =>   2

-------------------------------------
AUXILIARY/C BASIS SET IN INPUT FORMAT
-------------------------------------

 # Auxiliary/C basis set for element : H 
 NewAuxCGTO H 
 S 1 
   1       8.5128275910      1.0000000000
 S 1 
   1       1.8730891166      1.0000000000
 S 1 
   1       0.5261842694      1.0000000000
 S 1 
   1       0.2897398994      1.0000000000
 P 1 
   1       2.3725491635      1.0000000000
 P 1 
   1       1.1804084468      1.0000000000
 P 1 
   1       0.6038220424      1.0000000000
 D 1 
   1       1.8096373189      1.0000000000
 D 1 
   1       1.1439726055      1.0000000000
 F 1 
   1       1.8063060576      1.0000000000
  end;

 # Auxiliary/C basis set for element : C 
 NewAuxCGTO C 
 S 1 
   1     280.5566118800      1.0000000000
 S 1 
   1      60.2302471910      1.0000000000
 S 1 
   1      22.1166508240      1.0000000000
 S 1 
   1       6.8620932896      1.0000000000
 S 1 
   1       1.5622549539      1.0000000000
 S 1 
   1       0.9124504549      1.0000000000
 S 1 
   1       0.5027491704      1.0000000000
 S 1 
   1       0.2158234875      1.0000000000
 P 1 
   1      24.2318651760      1.0000000000
 P 1 
   1       6.4764514185      1.0000000000
 P 1 
   1       2.1290884677      1.0000000000
 P 1 
   1       1.0375639746      1.0000000000
 P 1 
   1       0.5494127505      1.0000000000
 P 1 
   1       0.2815265223      1.0000000000
 D 1 
   1       9.7189810815      1.0000000000
 D 1 
   1       3.0351475003      1.0000000000
 D 1 
   1       1.4677737562      1.0000000000
 D 1 
   1       0.5737082791      1.0000000000
 D 1 
   1       0.2905558967      1.0000000000
 F 1 
   1       2.2756201303      1.0000000000
 F 1 
   1       1.1968898852      1.0000000000
 F 1 
   1       0.5415748722      1.0000000000
 G 1 
   1       1.2166101638      1.0000000000
  end;

 # Auxiliary/C basis set for element : N 
 NewAuxCGTO N 
 S 1 
   1     287.5092694700      1.0000000000
 S 1 
   1      64.2760308980      1.0000000000
 S 1 
   1      21.6819240160      1.0000000000
 S 1 
   1       7.9068743193      1.0000000000
 S 1 
   1       2.4319673913      1.0000000000
 S 1 
   1       1.2226681474      1.0000000000
 S 1 
   1       0.7667482736      1.0000000000
 S 1 
   1       0.3115884699      1.0000000000
 P 1 
   1      34.9650273710      1.0000000000
 P 1 
   1      10.3238966480      1.0000000000
 P 1 
   1       2.8981582643      1.0000000000
 P 1 
   1       1.4077404555      1.0000000000
 P 1 
   1       0.8508338654      1.0000000000
 P 1 
   1       0.3735327414      1.0000000000
 D 1 
   1      13.9086370890      1.0000000000
 D 1 
   1       4.5847232531      1.0000000000
 D 1 
   1       2.2101848651      1.0000000000
 D 1 
   1       0.8376830121      1.0000000000
 D 1 
   1       0.4194837561      1.0000000000
 F 1 
   1       3.4730665788      1.0000000000
 F 1 
   1       1.5589463548      1.0000000000
 F 1 
   1       0.8467763824      1.0000000000
 G 1 
   1       1.7764066281      1.0000000000
  end;



           ************************************************************
           *        Program running with 32 parallel MPI-processes    *
           *              working on a common directory               *
           ************************************************************
------------------------------------------------------------------------------
                           ORCA GTO INTEGRAL CALCULATION
------------------------------------------------------------------------------

                         BASIS SET STATISTICS AND STARTUP INFO

 # of primitive gaussian shells          ... 2302
 # of primitive gaussian functions       ... 4470
 # of contracted shells                  ... 1090
 # of contracted basis functions         ... 2990
 Highest angular momentum                ...    3
 Maximum contraction depth               ...    8
 Integral package used                   ... LIBINT
 Integral threshhold            Thresh   ...  2.500e-11
 Primitive cut-off              TCut     ...  2.500e-12


------------------------------ INTEGRAL EVALUATION ----------------------------


 * One electron integrals 
 Pre-screening matrix                    ... done
 Shell pair data                         ... done (   0.083 sec)



           ************************************************************
           *        Program running with 32 parallel MPI-processes    *
           *              working on a common directory               *
           ************************************************************
-------------------------------------------------------------------------------
                                 ORCA SCF
-------------------------------------------------------------------------------

------------
SCF SETTINGS
------------
Hamiltonian:
 Ab initio Hamiltonian  Method          .... Hartree-Fock(GTOs)


General Settings:
 Integral files         IntName         .... _o_3_alde1_5_ami3_1_opt_MP2
 Hartree-Fock type      HFTyp           .... RHF
 Total Charge           Charge          ....    0
 Multiplicity           Mult            ....    1
 Number of Electrons    NEL             ....  482
 Basis Dimension        Dim             .... 2990
 Nuclear Repulsion      ENuc            ....  10460.5656316339 Eh

Convergence Acceleration:
 DIIS                   CNVDIIS         .... on
   Start iteration      DIISMaxIt       ....     0
   Startup error        DIISStart       ....  0.200000
   # of expansion vecs  DIISMaxEq       ....     5
   Bias factor          DIISBfac        ....   1.050
   Max. coefficient     DIISMaxC        ....  10.000
 Newton-Raphson         CNVNR           .... off
 SOSCF                  CNVSOSCF        .... on
   Start iteration      SOSCFMaxIt      ....   150
   Startup grad/error   SOSCFStart      ....  0.001000
 Level Shifting         CNVShift        .... on
   Level shift para.    LevelShift      ....    0.2500
   Turn off err/grad.   ShiftErr        ....    0.0000
 Zerner damping         CNVZerner       .... off
 Static damping         CNVDamp         .... on
   Fraction old density DampFac         ....    0.8500
   Max. Damping (<1)    DampMax         ....    0.9800
   Min. Damping (>=0)   DampMin         ....    0.0000
   Turn off err/grad.   DampErr         ....    0.0300
 Fernandez-Rico         CNVRico         .... off

SCF Procedure:
 Maximum # iterations   MaxIter         ....   125
 SCF integral mode      SCFMode         .... Direct
   Integral package                     .... LIBINT
 Reset frequency        DirectResetFreq ....    20
 Integral Threshold     Thresh          ....  2.500e-11 Eh
 Primitive CutOff       TCut            ....  2.500e-12 Eh

Convergence Tolerance:
 Convergence Check Mode ConvCheckMode   .... Total+1el-Energy
 Convergence forced     ConvForced      .... 1
 Energy Change          TolE            ....  1.000e-08 Eh
 1-El. energy change                    ....  1.000e-05 Eh
 Orbital Gradient       TolG            ....  1.000e-05
 Orbital Rotation angle TolX            ....  1.000e-05
 DIIS Error             TolErr          ....  5.000e-07


Diagonalization of the overlap matrix:
Smallest eigenvalue                        ... 1.967e-05
Time for diagonalization                   ...    2.846 sec
Threshold for overlap eigenvalues          ... 1.000e-08
Number of eigenvalues below threshold      ... 0
Time for construction of square roots      ...    1.149 sec
Total time needed                          ...    4.006 sec

-------------------
DFT GRID GENERATION
-------------------

General Integration Accuracy     IntAcc      ...  5.340
Radial Grid Type                 RadialGrid  ... Gauss-Chebyshev
Angular Grid (max. acc.)         AngularGrid ... Lebedev-590
Angular grid pruning method      GridPruning ... 3 (G Style)
Weight generation scheme         WeightScheme... Becke
Basis function cutoff            BFCut       ...    1.0000e-11
Integration weight cutoff        WCut        ...    1.0000e-14
Grids for H and He will be reduced by one unit

# of grid points (after initial pruning)     ... 1875700 (   0.0 sec)
# of grid points (after weights+screening)   ... 1530753 (   4.7 sec)
nearest neighbour list constructed           ...    0.0 sec
Grid point re-assignment to atoms done       ...    0.2 sec
Grid point division into batches done        ...   14.6 sec
Reduced shell lists constructed in   16.3 sec

Total number of grid points                  ...  1530753
Total number of batches                      ...    23981
Average number of points per batch           ...       63
Average number of grid points per atom       ...    11173
Average number of shells per batch           ...   262.13 (24.05%)
Average number of basis functions per batch  ...   607.21 (20.31%)
Average number of large shells per batch     ...   128.10 (48.87%)
Average number of large basis fcns per batch ...   317.45 (52.28%)
Maximum spatial batch extension              ...  16.05, 11.10, 11.25 au
Average spatial batch extension              ...   0.04,  0.04,  0.03 au

Time for grid setup =   21.684 sec

------------------------------
INITIAL GUESS: MODEL POTENTIAL
------------------------------
Loading Hartree-Fock densities                     ... done
Calculating cut-offs                               ... done
Setting up the integral package                    ... done
Initializing the effective Hamiltonian             ... done
Starting the Coulomb interaction                   ... done (   1.7 sec)
Reading the grid                                   ... done
Mapping shells                                     ... done
Starting the XC term evaluation                    ... done (   1.2 sec)
Transforming the Hamiltonian                       ... done (   0.9 sec)
Diagonalizing the Hamiltonian                      ... done (   1.3 sec)
Back transforming the eigenvectors                 ... done (   0.5 sec)
Now organizing SCF variables                       ... done
                      ------------------
                      INITIAL GUESS DONE (  28.8 sec)
                      ------------------
--------------
SCF ITERATIONS
--------------
ITER       Energy         Delta-E        Max-DP      RMS-DP      [F,P]     Damp
               ***  Starting incremental Fock matrix formation  ***
  0  -2741.7360839520   0.000000000000 0.02867690  0.00013944  0.2388431 0.8500
  1  -2742.2333342771  -0.497250325161 0.03694919  0.00015238  0.1962096 0.8500
                               ***Turning on DIIS***
  2  -2742.6333740088  -0.400039731683 0.03093075  0.00012993  0.1569333 0.8500
  3  -2752.6059908190  -9.972616810155 0.01731255  0.00009124  0.1254636 0.8500
  4  -2756.8756995647  -4.269708745702 0.00834769  0.00006646  0.1038815 0.8500
  5  -2756.8243705779   0.051328986741 0.00712842  0.00005326  0.0882954 0.8500
  6  -2755.6218748897   1.202495688281 0.00611265  0.00004481  0.0756952 0.8500
  7  -2753.6636823439   1.958192545761 0.00522736  0.00003864  0.0649645 0.8500
  8  -2752.0780117915   1.585670552366 0.00445541  0.00003331  0.0554414 0.8500
  9  -2750.8669472334   1.211064558174 0.00379017  0.00002857  0.0471752 0.8500
 10  -2749.8973623014   0.969584931934 0.00322282  0.00002445  0.0401443 0.8500
 11  -2749.0886939288   0.808668372665 0.00274091  0.00002091  0.0341874 0.8500
 12  -2748.3999481529   0.688745775855 0.01554531  0.00011932  0.0291226 0.0000
 13  -2744.5790930823   3.820855070573 0.00237418  0.00000812  0.0010865 0.0000
                      *** Initiating the SOSCF procedure ***
                           *** Shutting down DIIS ***
                      *** Re-Reading the Fockian *** 
                      *** Removing any level shift *** 
ITER      Energy       Delta-E        Grad      Rot      Max-DP    RMS-DP
 14  -2744.59409382  -0.0150007409  0.000258  0.000258  0.001328  0.000005
               *** Restarting incremental Fock matrix formation ***
 15  -2744.57577374   0.0183200847  0.000141  0.000353  0.001064  0.000004
 16  -2744.57578050  -0.0000067606  0.000089  0.000466  0.001002  0.000003
 17  -2744.57578294  -0.0000024377  0.000023  0.000077  0.000111  0.000000
 18  -2744.57578299  -0.0000000492  0.000019  0.000045  0.000077  0.000000
 19  -2744.57578311  -0.0000001200  0.000009  0.000050  0.000018  0.000000
 20  -2744.57578295   0.0000001518  0.000003  0.000014  0.000012  0.000000
                  ***Gradient check signals convergence***
              ***Rediagonalizing the Fockian in SOSCF/NRSCF***

               *****************************************************
               *                     SUCCESS                       *
               *           SCF CONVERGED AFTER  21 CYCLES          *
               *****************************************************


----------------
TOTAL SCF ENERGY
----------------

Total Energy       :        -2744.57578269 Eh          -74683.70389 eV

Components:
Nuclear Repulsion  :        10460.56563163 Eh          284646.46198 eV
Electronic Energy  :       -13205.14141432 Eh         -359330.16588 eV
One Electron Energy:       -24579.16828416 Eh         -668833.17183 eV
Two Electron Energy:        11374.02686984 Eh          309503.00596 eV

Virial components:
Potential Energy   :        -5486.77920774 Eh         -149302.85265 eV
Kinetic Energy     :         2742.20342505 Eh           74619.14876 eV
Virial Ratio       :            2.00086513


---------------
SCF CONVERGENCE
---------------

  Last Energy change         ...    2.6730e-07  Tolerance :   1.0000e-08
  Last MAX-Density change    ...    1.4300e-05  Tolerance :   1.0000e-07
  Last RMS-Density change    ...    5.4594e-08  Tolerance :   5.0000e-09
  Last Orbital Gradient      ...    1.1834e-06  Tolerance :   1.0000e-05
  Last Orbital Rotation      ...    2.5503e-06  Tolerance :   1.0000e-05

             **** THE GBW FILE WAS UPDATED (_o_3_alde1_5_ami3_1_opt_MP2.gbw) ****
             **** DENSITY FILE WAS UPDATED (_o_3_alde1_5_ami3_1_opt_MP2.scfp) ****
             **** ENERGY FILE WAS UPDATED (_o_3_alde1_5_ami3_1_opt_MP2.en.tmp) ****
             **** THE GBW FILE WAS UPDATED (_o_3_alde1_5_ami3_1_opt_MP2.gbw) ****
             **** DENSITY FILE WAS UPDATED (_o_3_alde1_5_ami3_1_opt_MP2.scfp) ****
----------------
ORBITAL ENERGIES
----------------

  NO   OCC          E(Eh)            E(eV) 
   0   2.0000     -15.551189      -423.1694 
   1   2.0000     -15.550850      -423.1601 
   2   2.0000     -15.549482      -423.1229 
   3   2.0000     -15.547162      -423.0598 
   4   2.0000     -15.546831      -423.0508 
   5   2.0000     -15.546277      -423.0357 
   6   2.0000     -15.545402      -423.0119 
   7   2.0000     -15.544826      -422.9962 
   8   2.0000     -15.541927      -422.9173 
   9   2.0000     -15.539911      -422.8625 
  10   2.0000     -11.284013      -307.0536 
  11   2.0000     -11.278664      -306.9081 
  12   2.0000     -11.278447      -306.9021 
  13   2.0000     -11.276400      -306.8464 
  14   2.0000     -11.275738      -306.8284 
  15   2.0000     -11.274926      -306.8063 
  16   2.0000     -11.274620      -306.7980 
  17   2.0000     -11.274049      -306.7825 
  18   2.0000     -11.272964      -306.7530 
  19   2.0000     -11.250737      -306.1481 
  20   2.0000     -11.249715      -306.1203 
  21   2.0000     -11.249024      -306.1015 
  22   2.0000     -11.247986      -306.0733 
  23   2.0000     -11.247932      -306.0718 
  24   2.0000     -11.247422      -306.0579 
  25   2.0000     -11.247341      -306.0557 
  26   2.0000     -11.246096      -306.0218 
  27   2.0000     -11.246035      -306.0202 
  28   2.0000     -11.245482      -306.0051 
  29   2.0000     -11.245475      -306.0049 
  30   2.0000     -11.244650      -305.9825 
  31   2.0000     -11.244249      -305.9716 
  32   2.0000     -11.243985      -305.9644 
  33   2.0000     -11.243596      -305.9538 
  34   2.0000     -11.243457      -305.9500 
  35   2.0000     -11.243448      -305.9498 
  36   2.0000     -11.243294      -305.9456 
  37   2.0000     -11.242709      -305.9297 
  38   2.0000     -11.241789      -305.9046 
  39   2.0000     -11.241109      -305.8861 
  40   2.0000     -11.240713      -305.8753 
  41   2.0000     -11.238232      -305.8078 
  42   2.0000     -11.237274      -305.7818 
  43   2.0000     -11.236525      -305.7614 
  44   2.0000     -11.234585      -305.7086 
  45   2.0000     -11.233647      -305.6831 
  46   2.0000     -11.231497      -305.6246 
  47   2.0000     -11.225209      -305.4535 
  48   2.0000     -11.224505      -305.4343 
  49   2.0000     -11.223908      -305.4181 
  50   2.0000     -11.221632      -305.3561 
  51   2.0000     -11.218056      -305.2588 
  52   2.0000     -11.216950      -305.2287 
  53   2.0000     -11.216490      -305.2162 
  54   2.0000     -11.215301      -305.1838 
  55   2.0000     -11.214506      -305.1622 
  56   2.0000     -11.214462      -305.1610 
  57   2.0000     -11.214359      -305.1582 
  58   2.0000     -11.213864      -305.1448 
  59   2.0000     -11.213477      -305.1342 
  60   2.0000     -11.213083      -305.1235 
  61   2.0000     -11.212926      -305.1192 
  62   2.0000     -11.212180      -305.0989 
  63   2.0000     -11.211046      -305.0681 
  64   2.0000     -11.210768      -305.0605 
  65   2.0000     -11.209895      -305.0367 
  66   2.0000     -11.209393      -305.0231 
  67   2.0000      -1.273863       -34.6636 
  68   2.0000      -1.254349       -34.1326 
  69   2.0000      -1.252004       -34.0688 
  70   2.0000      -1.251412       -34.0527 
  71   2.0000      -1.250903       -34.0388 
  72   2.0000      -1.225024       -33.3346 
  73   2.0000      -1.221859       -33.2485 
  74   2.0000      -1.219155       -33.1749 
  75   2.0000      -1.218400       -33.1544 
  76   2.0000      -1.170382       -31.8477 
  77   2.0000      -1.161251       -31.5992 
  78   2.0000      -1.160640       -31.5826 
  79   2.0000      -1.143814       -31.1247 
  80   2.0000      -1.116900       -30.3924 
  81   2.0000      -1.115258       -30.3477 
  82   2.0000      -1.111097       -30.2345 
  83   2.0000      -1.110521       -30.2188 
  84   2.0000      -1.104969       -30.0677 
  85   2.0000      -1.054507       -28.6946 
  86   2.0000      -1.053845       -28.6766 
  87   2.0000      -1.052174       -28.6311 
  88   2.0000      -1.051268       -28.6065 
  89   2.0000      -1.047724       -28.5100 
  90   2.0000      -1.047101       -28.4931 
  91   2.0000      -1.006723       -27.3943 
  92   2.0000      -1.005051       -27.3488 
  93   2.0000      -1.003119       -27.2963 
  94   2.0000      -1.000951       -27.2373 
  95   2.0000      -0.998691       -27.1758 
  96   2.0000      -0.998124       -27.1603 
  97   2.0000      -0.989043       -26.9132 
  98   2.0000      -0.986042       -26.8316 
  99   2.0000      -0.985183       -26.8082 
 100   2.0000      -0.979374       -26.6501 
 101   2.0000      -0.896385       -24.3919 
 102   2.0000      -0.893104       -24.3026 
 103   2.0000      -0.891746       -24.2656 
 104   2.0000      -0.886405       -24.1203 
 105   2.0000      -0.880629       -23.9631 
 106   2.0000      -0.879290       -23.9267 
 107   2.0000      -0.871730       -23.7210 
 108   2.0000      -0.868241       -23.6260 
 109   2.0000      -0.859667       -23.3927 
 110   2.0000      -0.832775       -22.6609 
 111   2.0000      -0.830204       -22.5910 
 112   2.0000      -0.827331       -22.5128 
 113   2.0000      -0.825410       -22.4605 
 114   2.0000      -0.823047       -22.3963 
 115   2.0000      -0.821108       -22.3435 
 116   2.0000      -0.818926       -22.2841 
 117   2.0000      -0.812134       -22.0993 
 118   2.0000      -0.804866       -21.9015 
 119   2.0000      -0.799406       -21.7530 
 120   2.0000      -0.783803       -21.3284 
 121   2.0000      -0.768872       -20.9221 
 122   2.0000      -0.765442       -20.8287 
 123   2.0000      -0.764001       -20.7895 
 124   2.0000      -0.763736       -20.7823 
 125   2.0000      -0.754905       -20.5420 
 126   2.0000      -0.748143       -20.3580 
 127   2.0000      -0.746920       -20.3247 
 128   2.0000      -0.742795       -20.2125 
 129   2.0000      -0.740630       -20.1536 
 130   2.0000      -0.739640       -20.1266 
 131   2.0000      -0.701113       -19.0783 
 132   2.0000      -0.696452       -18.9514 
 133   2.0000      -0.695060       -18.9136 
 134   2.0000      -0.689734       -18.7686 
 135   2.0000      -0.685541       -18.6545 
 136   2.0000      -0.684532       -18.6271 
 137   2.0000      -0.672171       -18.2907 
 138   2.0000      -0.667398       -18.1608 
 139   2.0000      -0.664639       -18.0857 
 140   2.0000      -0.661358       -17.9965 
 141   2.0000      -0.657704       -17.8970 
 142   2.0000      -0.653214       -17.7749 
 143   2.0000      -0.651837       -17.7374 
 144   2.0000      -0.650983       -17.7142 
 145   2.0000      -0.647282       -17.6134 
 146   2.0000      -0.638882       -17.3849 
 147   2.0000      -0.632101       -17.2003 
 148   2.0000      -0.627744       -17.0818 
 149   2.0000      -0.626310       -17.0427 
 150   2.0000      -0.624267       -16.9872 
 151   2.0000      -0.622870       -16.9491 
 152   2.0000      -0.622710       -16.9448 
 153   2.0000      -0.622098       -16.9282 
 154   2.0000      -0.621251       -16.9051 
 155   2.0000      -0.613212       -16.6863 
 156   2.0000      -0.609824       -16.5942 
 157   2.0000      -0.604314       -16.4442 
 158   2.0000      -0.600616       -16.3436 
 159   2.0000      -0.598520       -16.2866 
 160   2.0000      -0.594434       -16.1754 
 161   2.0000      -0.594056       -16.1651 
 162   2.0000      -0.591051       -16.0833 
 163   2.0000      -0.590193       -16.0600 
 164   2.0000      -0.588497       -16.0138 
 165   2.0000      -0.587619       -15.9899 
 166   2.0000      -0.584773       -15.9125 
 167   2.0000      -0.576635       -15.6910 
 168   2.0000      -0.572933       -15.5903 
 169   2.0000      -0.572599       -15.5812 
 170   2.0000      -0.568759       -15.4767 
 171   2.0000      -0.560190       -15.2436 
 172   2.0000      -0.559539       -15.2258 
 173   2.0000      -0.559363       -15.2210 
 174   2.0000      -0.558639       -15.2013 
 175   2.0000      -0.557256       -15.1637 
 176   2.0000      -0.553320       -15.0566 
 177   2.0000      -0.540387       -14.7047 
 178   2.0000      -0.539118       -14.6702 
 179   2.0000      -0.537491       -14.6259 
 180   2.0000      -0.535173       -14.5628 
 181   2.0000      -0.534314       -14.5394 
 182   2.0000      -0.532455       -14.4888 
 183   2.0000      -0.530602       -14.4384 
 184   2.0000      -0.524545       -14.2736 
 185   2.0000      -0.522163       -14.2088 
[...]
 36 H      0.8433     1.0000     0.1567     1.0164     1.0164    -0.0000
 37 C      6.2105     6.0000    -0.2105     3.9607     3.9607    -0.0000
 38 C      6.1072     6.0000    -0.1072     4.0178     4.0178    -0.0000
 39 H      0.8464     1.0000     0.1536     1.0120     1.0120    -0.0000
 40 C      6.1093     6.0000    -0.1093     4.0364     4.0364    -0.0000
 41 H      0.9116     1.0000     0.0884     0.9969     0.9969    -0.0000
 42 H      0.8985     1.0000     0.1015     0.9981     0.9981    -0.0000
 43 C      5.9066     6.0000     0.0934     3.8292     3.8292    -0.0000
 44 C      5.9437     6.0000     0.0563     3.8319     3.8319    -0.0000
 45 N      7.3073     7.0000    -0.3073     2.9706     2.9706    -0.0000
 46 H      0.9103     1.0000     0.0897     0.9770     0.9770    -0.0000
 47 C      6.2028     6.0000    -0.2028     3.8897     3.8897    -0.0000
 48 N      7.2886     7.0000    -0.2886     2.9588     2.9588    -0.0000
 49 H      0.9041     1.0000     0.0959     1.0004     1.0004    -0.0000
 50 C      6.2123     6.0000    -0.2123     3.8786     3.8786    -0.0000
 51 H      0.8982     1.0000     0.1018     0.9950     0.9950    -0.0000
 52 C      6.2202     6.0000    -0.2202     3.8580     3.8580    -0.0000
 53 H      0.9078     1.0000     0.0922     0.9903     0.9903     0.0000
 54 C      6.2043     6.0000    -0.2043     3.8640     3.8640    -0.0000
 55 H      0.8826     1.0000     0.1174     0.9785     0.9785    -0.0000
 56 H      0.9037     1.0000     0.0963     0.9723     0.9723     0.0000
 57 H      0.8875     1.0000     0.1125     0.9788     0.9788    -0.0000
 58 H      0.9076     1.0000     0.0924     0.9864     0.9864    -0.0000
 59 C      5.9288     6.0000     0.0712     3.8551     3.8551    -0.0000
 60 C      5.9482     6.0000     0.0518     3.8726     3.8726    -0.0000
 61 N      7.3254     7.0000    -0.3254     2.9841     2.9841    -0.0000
 62 H      0.9241     1.0000     0.0759     0.9915     0.9915    -0.0000
 63 C      6.2859     6.0000    -0.2859     3.8912     3.8912    -0.0000
 64 N      7.2828     7.0000    -0.2828     3.0076     3.0076    -0.0000
 65 H      0.9082     1.0000     0.0918     0.9978     0.9978    -0.0000
 66 C      6.2201     6.0000    -0.2201     3.8802     3.8802    -0.0000
 67 H      0.9003     1.0000     0.0997     0.9831     0.9831    -0.0000
 68 C      6.1960     6.0000    -0.1960     3.8798     3.8798    -0.0000
 69 H      0.9111     1.0000     0.0889     0.9909     0.9909    -0.0000
 70 C      6.2028     6.0000    -0.2028     3.8578     3.8578    -0.0000
 71 H      0.8850     1.0000     0.1150     0.9794     0.9794    -0.0000
 72 H      0.9058     1.0000     0.0942     0.9845     0.9845    -0.0000
 73 H      0.8853     1.0000     0.1147     0.9793     0.9793    -0.0000
 74 H      0.9063     1.0000     0.0937     0.9844     0.9844    -0.0000
 75 C      5.9078     6.0000     0.0922     3.8337     3.8337    -0.0000
 76 C      5.9162     6.0000     0.0838     3.8416     3.8416    -0.0000
 77 N      7.2816     7.0000    -0.2816     2.9828     2.9828    -0.0000
 78 H      0.9182     1.0000     0.0818     1.0009     1.0009    -0.0000
 79 C      6.2005     6.0000    -0.2005     3.8812     3.8812    -0.0000
 80 N      7.2850     7.0000    -0.2850     2.9765     2.9765    -0.0000
 81 H      0.9215     1.0000     0.0785     1.0018     1.0018    -0.0000
 82 C      6.2036     6.0000    -0.2036     3.8795     3.8795    -0.0000
 83 H      0.9056     1.0000     0.0944     0.9947     0.9947    -0.0000
 84 C      6.2045     6.0000    -0.2045     3.8633     3.8633    -0.0000
 85 H      0.8998     1.0000     0.1002     0.9936     0.9936    -0.0000
 86 C      6.2051     6.0000    -0.2051     3.8609     3.8609    -0.0000
 87 H      0.8884     1.0000     0.1116     0.9789     0.9789    -0.0000
 88 H      0.9124     1.0000     0.0876     0.9858     0.9858    -0.0000
 89 H      0.8876     1.0000     0.1124     0.9786     0.9786     0.0000
 90 H      0.9130     1.0000     0.0870     0.9853     0.9853    -0.0000
 91 C      5.9094     6.0000     0.0906     3.8354     3.8354    -0.0000
 92 C      5.9022     6.0000     0.0978     3.8335     3.8335    -0.0000
 93 N      7.2935     7.0000    -0.2935     2.9739     2.9739    -0.0000
 94 H      0.9226     1.0000     0.0774     1.0016     1.0016    -0.0000
 95 C      6.2036     6.0000    -0.2036     3.8796     3.8796    -0.0000
 96 N      7.2902     7.0000    -0.2902     2.9811     2.9811    -0.0000
 97 H      0.9222     1.0000     0.0778     1.0000     1.0000    -0.0000
 98 C      6.2043     6.0000    -0.2043     3.8813     3.8813    -0.0000
 99 H      0.9007     1.0000     0.0993     0.9931     0.9931    -0.0000
100 C      6.2066     6.0000    -0.2066     3.8629     3.8629    -0.0000
101 H      0.9049     1.0000     0.0951     0.9945     0.9945    -0.0000
102 C      6.2046     6.0000    -0.2046     3.8634     3.8634    -0.0000
103 H      0.8873     1.0000     0.1127     0.9787     0.9787    -0.0000
104 H      0.9117     1.0000     0.0883     0.9848     0.9848    -0.0000
105 H      0.8880     1.0000     0.1120     0.9790     0.9790    -0.0000
106 H      0.9119     1.0000     0.0881     0.9854     0.9854     0.0000
107 C      5.8994     6.0000     0.1006     3.8373     3.8373    -0.0000
108 C      5.9180     6.0000     0.0820     3.8486     3.8486    -0.0000
109 N      7.2821     7.0000    -0.2821     2.9885     2.9885    -0.0000
110 H      0.9244     1.0000     0.0756     1.0007     1.0007    -0.0000
111 C      6.2032     6.0000    -0.2032     3.8801     3.8801    -0.0000
112 N      7.2863     7.0000    -0.2863     2.9733     2.9733    -0.0000
113 H      0.9210     1.0000     0.0790     1.0027     1.0027    -0.0000
114 C      6.2022     6.0000    -0.2022     3.8797     3.8797    -0.0000
115 H      0.9047     1.0000     0.0953     0.9948     0.9948    -0.0000
116 C      6.2045     6.0000    -0.2045     3.8634     3.8634    -0.0000
117 H      0.9005     1.0000     0.0995     0.9932     0.9932    -0.0000
118 C      6.2058     6.0000    -0.2058     3.8624     3.8624    -0.0000
119 H      0.8881     1.0000     0.1119     0.9790     0.9790    -0.0000
120 H      0.9127     1.0000     0.0873     0.9855     0.9855    -0.0000
121 H      0.8877     1.0000     0.1123     0.9787     0.9787    -0.0000
122 H      0.9118     1.0000     0.0882     0.9849     0.9849    -0.0000
123 H      0.8968     1.0000     0.1032     1.0109     1.0109    -0.0000
124 H      0.9024     1.0000     0.0976     1.0507     1.0507    -0.0000
125 H      0.8895     1.0000     0.1105     0.9936     0.9936    -0.0000
126 H      0.8619     1.0000     0.1381     1.0156     1.0156    -0.0000
127 H      0.8910     1.0000     0.1090     0.9896     0.9896    -0.0000
128 H      0.8828     1.0000     0.1172     0.9889     0.9889     0.0000
129 H      0.8742     1.0000     0.1258     0.9769     0.9769    -0.0000
130 H      0.8769     1.0000     0.1231     0.9813     0.9813    -0.0000
131 H      0.8908     1.0000     0.1092     0.9887     0.9887    -0.0000
132 H      0.8918     1.0000     0.1082     0.9890     0.9890    -0.0000
133 H      0.8918     1.0000     0.1082     0.9891     0.9891    -0.0000
134 H      0.8900     1.0000     0.1100     0.9886     0.9886    -0.0000
135 H      0.8910     1.0000     0.1090     0.9891     0.9891    -0.0000
136 H      0.8922     1.0000     0.1078     0.9888     0.9888    -0.0000

  Mayer bond orders larger than 0.100000
B(  0-C ,  1-C ) :   1.0051 B(  0-C ,  2-C ) :   1.3166 B(  0-C ,  8-C ) :   1.3631 
B(  1-C , 13-H ) :   0.9895 B(  1-C , 48-N ) :   1.9759 B(  2-C ,  3-C ) :   1.3866 
B(  2-C ,  4-H ) :   0.9612 B(  3-C ,  5-C ) :   1.2984 B(  3-C , 11-C ) :   0.9937 
B(  5-C ,  6-C ) :   1.3770 B(  5-C ,  7-H ) :   0.9651 B(  6-C ,  8-C ) :   1.2953 
B(  6-C ,  9-C ) :   0.9817 B(  8-C , 10-H ) :   0.9648 B(  9-C , 12-H ) :   0.9852 
B(  9-C , 93-N ) :   1.9793 B( 11-C , 14-H ) :   0.9914 B( 11-C , 77-N ) :   1.9706 
B( 15-C , 16-C ) :   1.0286 B( 15-C , 17-C ) :   1.3165 B( 15-C , 23-C ) :   1.4004 
B( 16-C , 61-N ) :   1.0023 B( 16-C , 64-N ) :   1.0190 B( 16-C ,125-H ) :   0.9893 
B( 17-C , 18-C ) :   1.3795 B( 17-C , 19-H ) :   0.9630 B( 18-C , 20-C ) :   1.3109 
B( 18-C , 26-C ) :   0.9984 B( 20-C , 21-C ) :   1.3702 B( 20-C , 22-H ) :   0.9663 
B( 21-C , 23-C ) :   1.2902 B( 21-C , 24-C ) :   0.9810 B( 23-C , 25-H ) :   0.9604 
B( 24-C , 27-H ) :   0.9874 B( 24-C , 80-N ) :   1.9792 B( 26-C , 28-H ) :   0.9927 
B( 26-C ,109-N ) :   1.9777 B( 29-C , 30-C ) :   0.9874 B( 29-C , 31-C ) :   1.2901 
B( 29-C , 37-C ) :   1.3860 B( 30-C , 45-N ) :   1.9587 B( 30-C ,123-H ) :   0.9815 
B( 31-C , 32-C ) :   1.3707 B( 31-C , 33-H ) :   0.9614 B( 32-C , 34-C ) :   1.2975 
B( 32-C , 40-C ) :   1.0035 B( 34-C , 35-C ) :   1.3736 B( 34-C , 36-H ) :   0.9665 
B( 35-C , 37-C ) :   1.3096 B( 35-C , 38-C ) :   0.9745 B( 37-C , 39-H ) :   0.9654 
B( 38-C , 41-H ) :   0.9841 B( 38-C ,112-N ) :   1.9828 B( 40-C , 42-H ) :   0.9905 
B( 40-C , 96-N ) :   1.9657 B( 43-C , 44-C ) :   0.9309 B( 43-C , 45-N ) :   0.9380 
B( 43-C , 46-H ) :   0.9723 B( 43-C , 47-C ) :   0.9592 B( 44-C , 48-N ) :   0.9164 
B( 44-C , 49-H ) :   0.9813 B( 44-C , 50-C ) :   0.9541 B( 47-C , 51-H ) :   0.9848 
B( 47-C , 52-C ) :   0.9410 B( 47-C ,127-H ) :   0.9907 B( 50-C , 53-H ) :   0.9839 
B( 50-C , 54-C ) :   0.9460 B( 50-C ,128-H ) :   0.9905 B( 52-C , 54-C ) :   0.9432 
B( 52-C , 55-H ) :   0.9945 B( 52-C , 56-H ) :   0.9840 B( 54-C , 57-H ) :   0.9955 
B( 54-C , 58-H ) :   0.9860 B( 59-C , 60-C ) :   0.9410 B( 59-C , 61-N ) :   1.0222 
B( 59-C , 62-H ) :   0.9689 B( 59-C , 63-C ) :   0.9470 B( 60-C , 64-N ) :   1.0099 
B( 60-C , 65-H ) :   0.9750 B( 60-C , 66-C ) :   0.9612 B( 61-N ,126-H ) :   0.9624 
B( 63-C , 67-H ) :   0.9803 B( 63-C , 68-C ) :   0.9672 B( 63-C ,129-H ) :   0.9903 
B( 64-N ,124-H ) :   1.0003 B( 66-C , 69-H ) :   0.9813 B( 66-C , 70-C ) :   0.9475 
B( 66-C ,130-H ) :   0.9904 B( 68-C , 70-C ) :   0.9444 B( 68-C , 71-H ) :   0.9950 
B( 68-C , 72-H ) :   0.9866 B( 70-C , 73-H ) :   0.9942 B( 70-C , 74-H ) :   0.9854 
B( 75-C , 76-C ) :   0.9312 B( 75-C , 77-N ) :   0.9342 B( 75-C , 78-H ) :   0.9718 
B( 75-C , 79-C ) :   0.9559 B( 76-C , 80-N ) :   0.9425 B( 76-C , 81-H ) :   0.9700 
B( 76-C , 82-C ) :   0.9524 B( 79-C , 83-H ) :   0.9842 B( 79-C , 84-C ) :   0.9439 
B( 79-C ,131-H ) :   0.9916 B( 82-C , 85-H ) :   0.9833 B( 82-C , 86-C ) :   0.9410 
B( 82-C ,132-H ) :   0.9914 B( 84-C , 86-C ) :   0.9434 B( 84-C , 87-H ) :   0.9960 
B( 84-C , 88-H ) :   0.9847 B( 86-C , 89-H ) :   0.9954 B( 86-C , 90-H ) :   0.9850 
B( 91-C , 92-C ) :   0.9307 B( 91-C , 93-N ) :   0.9367 B( 91-C , 94-H ) :   0.9723 
B( 91-C , 95-C ) :   0.9501 B( 92-C , 96-N ) :   0.9358 B( 92-C , 97-H ) :   0.9737 
B( 92-C , 98-C ) :   0.9554 B( 95-C , 99-H ) :   0.9832 B( 95-C ,100-C ) :   0.9414 
B( 95-C ,133-H ) :   0.9914 B( 98-C ,101-H ) :   0.9847 B( 98-C ,102-C ) :   0.9442 
B( 98-C ,134-H ) :   0.9914 B(100-C ,102-C ) :   0.9438 B(100-C ,103-H ) :   0.9950 
B(100-C ,104-H ) :   0.9850 B(102-C ,105-H ) :   0.9957 B(102-C ,106-H ) :   0.9848 
B(107-C ,108-C ) :   0.9364 B(107-C ,109-N ) :   0.9330 B(107-C ,110-H ) :   0.9732 
B(107-C ,111-C ) :   0.9550 B(108-C ,112-N ) :   0.9416 B(108-C ,113-H ) :   0.9727 
B(108-C ,114-C ) :   0.9502 B(111-C ,115-H ) :   0.9843 B(111-C ,116-C ) :   0.9437 
B(111-C ,135-H ) :   0.9916 B(114-C ,117-H ) :   0.9827 B(114-C ,118-C ) :   0.9411 
B(114-C ,136-H ) :   0.9914 B(116-C ,118-C ) :   0.9437 B(116-C ,119-H ) :   0.9958 
B(116-C ,120-H ) :   0.9849 B(118-C ,121-H ) :   0.9950 B(118-C ,122-H ) :   0.9850 


-------
TIMINGS
-------

Total SCF time: 0 days 1 hours 39 min 18 sec 

Total time                  ....    5958.206 sec
Sum of individual times     ....    5913.758 sec  ( 99.3%)

Fock matrix formation       ....    5627.879 sec  ( 94.5%)
Diagonalization             ....      37.607 sec  (  0.6%)
Density matrix formation    ....       2.558 sec  (  0.0%)
Population analysis         ....      22.355 sec  (  0.4%)
Initial guess               ....       7.108 sec  (  0.1%)
Orbital Transformation      ....       0.000 sec  (  0.0%)
Orbital Orthonormalization  ....       0.000 sec  (  0.0%)
DIIS solution               ....     175.677 sec  (  2.9%)
SOSCF solution              ....      18.889 sec  (  0.3%)


           ************************************************************
           *        Program running with 32 parallel MPI-processes    *
           *              working on a common directory               *
           ************************************************************

------------------------------------------------------------------------------
                                ORCA  MP2 
------------------------------------------------------------------------------

Freezing NCore=134 chemical core electrons

-------------
RI-MP2 ENERGY
-------------
Dimension of the basis                    ... 2990
Memory devoted to MP2                     ... 3000 MB   
Data format for buffers                   ... DOUBLE
Compression type for matrix containers    ... UNCOMPRESSED
Overall scaling of the MP2 energy         ...   1.000e+00
Calculating two index integrals           ... done (    0.550 sec)
Cholesky decomposition of V**-1           ... done (    7.773 sec)

-----------------
RI-TRANSFORMATION (AUX index driven)
-----------------

Dimension of the orbital-basis         ... 2990
Dimension of the aux-basis             ... 7527
Transformation of internal/external MOs...   67- 240 to  241-2989
Number Format for Storage              ... Double (8 Byte)
Integral mode                          ... Direct

First Phase: integral generation and transformation of MO indices
  Aux angular momentum 0               ... done (   17.810 sec)
  Aux angular momentum 1               ... done (   38.923 sec)
  Aux angular momentum 2               ... done (   48.410 sec)
  Aux angular momentum 3               ... done (   40.306 sec)
  Aux angular momentum 4               ... done (   19.323 sec)
Closing buffer VIA (26.82 GB; CompressionRatio= 1.00)
  Phase 1 completed in   165.824 sec
Second Phase: sorting and transformation of aux index

IA-Transformation
Memory available                       ... 1855 MB 
Max. # MO pairs treated in a batch     ... 6    
# of internal orbitals                 ... 174
# batches for internal orbitals        ... 1
Closing buffer IAV ( 0.92 GB; CompressionRatio= 1.00)
(ia|v) transformation done in   194.778 sec

  Phase 2 completed in   232.394 sec
RI-Integral transformation completed in   398.242 sec
Opening buffers                              ... done

Starting loop over batches of integrals:

Operator 0  - window                       ... ( 67-240)x(241-2989)
Operator 0  - Memory available             ...  3000 MB
Operator 0  - Memory needed per MO         ... 157.9 MB
Operator 0  - Number of orbitals per batch ... 6
Operator 0  - Number of batches            ... 1

OPERATOR  0   PASS   0:  MOs    67 ...   72 +   73 ...   78 +   79 ...   84 +   85 ...   90
                            +   91 ...   96 +   97 ...  102 +  103 ...  108 +  109 ...  114
                            +  115 ...  120 +  121 ...  126 +  127 ...  132 +  133 ...  138
                            +  139 ...  144 +  145 ...  150 +  151 ...  156 +  157 ...  162
                            +  163 ...  168 +  169 ...  174 +  175 ...  180 +  181 ...  186
                            +  187 ...  192 +  193 ...  198 +  199 ...  204 +  205 ...  210
                            +  211 ...  216 +  217 ...  222 +  223 ...  228 +  229 ...  234
                            +  235 ...  240
  Reading integrals       ... ok
  Internal MO  69
  Internal MO  72
Time spent in pair loops =   240.485 sec
Deleting buffer (Ka|jb)[aa] ...done

-----------------------------------------------
 RI-MP2 CORRELATION ENERGY:    -11.357379973 Eh
-----------------------------------------------


-------
TIMINGS
-------

Total time                : 12226.701 sec
Integral trafo            :  398.248 sec (  3.3%)
I/O of integrals          :    0.551 sec (  0.0%)
K(i,j) Operators          :  238.203 sec (  1.9%)
T(i,j) pair energies      :    1.217 sec (  0.0%)
V-calculation             :    0.550 sec (  0.0%)
V**(-1/2)                 :    7.773 sec (  0.1%)
Gamma(ia|P)               :    0.000 sec (  0.0%)
Gamma-Trafo               :    0.000 sec (  0.0%)
D(virtual)                :    0.000 sec (  0.0%)
D(internal)               :    0.000 sec (  0.0%)
W(virtual)                :    0.000 sec (  0.0%)
W(internal)               :    0.000 sec (  0.0%)
L(virtual)                :    0.000 sec (  0.0%)
L(internal)               :    0.000 sec (  0.0%)
G(D)                      :    0.000 sec (  0.0%)
G(Z)                      :    0.000 sec (  0.0%)
Z-Vector Solution         :    0.000 sec (  0.0%)
3-Index Derivative        :    0.000 sec (  0.0%)
2-Index Derivative        :    0.000 sec (  0.0%)
Separable Gradient        :    0.000 sec (  0.0%)


---------------------------------------
MP2 TOTAL ENERGY:    -2755.933162660 Eh
---------------------------------------

-------------------------   --------------------
FINAL SINGLE POINT ENERGY     -2755.933162660336
-------------------------   --------------------


                            ***************************************
                            *     ORCA property calculations      *
                            ***************************************


  WARNING: The energy has been calculated at the MP2 level but the densities
           used in the property calculations are still SCF densities
           MP2 response densities have not been calculated 
           use %mp2 Density relaxed end
           or  %mp2 Density unrelaxed end

                                    ---------------------
                                    Active property flags
                                    ---------------------
   (+) Dipole Moment


------------------------------------------------------------------------------
                       ORCA ELECTRIC PROPERTIES CALCULATION
------------------------------------------------------------------------------

Dipole Moment Calculation                       ... on
Quadrupole Moment Calculation                   ... off
Polarizability Calculation                      ... off
GBWName                                         ... _o_3_alde1_5_ami3_1_opt_MP2.gbw
Electron density file                           ... _o_3_alde1_5_ami3_1_opt_MP2.scfp
The origin for moment calculation is the CENTER OF MASS  = (-0.111299, -1.872523 -2.124158)

-------------
DIPOLE MOMENT
-------------
                                X             Y             Z
Electronic contribution:     -9.70776       5.99395     -11.76641
Nuclear contribution   :      9.82520      -5.95704      12.31855
                        -----------------------------------------
Total Dipole Moment    :      0.11743       0.03691       0.55214
                        -----------------------------------------
Magnitude (a.u.)       :      0.56570
Magnitude (Debye)      :      1.43788



--------------------
Rotational spectrum 
--------------------
 
Rotational constants in cm-1:     0.000990     0.000813     0.000789 
Rotational constants in MHz :    29.679612    24.367016    23.656747 

 Dipole components along the rotational axes: 
x,y,z [a.u.] :    -0.404581     0.361959     0.159094 
x,y,z [Debye]:    -1.028364     0.920028     0.404385 

 

Timings for individual modules:

Sum of individual times         ...    18477.488 sec (= 307.958 min)
GTO integral calculation        ...       41.948 sec (=   0.699 min)   0.2 %
SCF iterations                  ...     6027.796 sec (= 100.463 min)  32.6 %
MP2 module                      ...    12407.744 sec (= 206.796 min)  67.2 %
                             ****ORCA TERMINATED NORMALLY****
TOTAL RUN TIME: 0 days 5 hours 9 minutes 51 seconds 594 msec
