Job execution start: Thu Mar 10 22:15:54 GMT 2022
Shared library path: /work/e05/e05/atarzia/orca_4_2_1_linux_x86-64_openmpi314:/work/e05/e05/atarzia/openmpi-3.1.4/lib:/opt/cray/pe/papi/6.0.0.6/lib64:/opt/cray/libfabric/1.11.0.4.71/lib64
Slurm Job ID is: 1234934
Slurm Job name is: o_3_alde1_6_ami4_2_opt_MP2
nid002915

                                 *****************
                                 * O   R   C   A *
                                 *****************

           --- An Ab Initio, DFT and Semiempirical electronic structure package ---

                  #######################################################
                  #                        -***-                        #
                  #          Department of theory and spectroscopy      #
                  #               Directorship: Frank Neese             #
                  #        Max Planck Institute fuer Kohlenforschung    #
                  #                Kaiser Wilhelm Platz 1               #
                  #                 D-45470 Muelheim/Ruhr               #
                  #                      Germany                        #
                  #                                                     #
                  #                  All rights reserved                #
                  #                        -***-                        #
                  #######################################################


                         Program Version 4.2.1 -  RELEASE  -


 With contributions from (in alphabetic order):
   Daniel Aravena         : Magnetic Suceptibility
   Michael Atanasov       : Ab Initio Ligand Field Theory (pilot matlab implementation)
   Alexander A. Auer      : GIAO ZORA, VPT2
   Ute Becker             : Parallelization
   Giovanni Bistoni       : ED, misc. LED, open-shell LED, HFLD
   Martin Brehm           : Molecular dynamics
   Dmytro Bykov           : SCF Hessian
   Vijay G. Chilkuri      : MRCI spin determinant printing, contributions to CSF-ICE
   Dipayan Datta          : RHF DLPNO-CCSD density
   Achintya Kumar Dutta   : EOM-CC, STEOM-CC
   Dmitry Ganyushin       : Spin-Orbit,Spin-Spin,Magnetic field MRCI
   Miquel Garcia          : C-PCM Hessian, Gaussian charge scheme
   Yang Guo               : DLPNO-NEVPT2, CIM, IAO-localization
   Andreas Hansen         : Spin unrestricted coupled pair/coupled cluster methods
   Benjamin Helmich-Paris : CASSCF linear response (MC-RPA)
   Lee Huntington         : MR-EOM, pCC
   Robert Izsak           : Overlap fitted RIJCOSX, COSX-SCS-MP3, EOM
   Christian Kollmar      : KDIIS, OOCD, Brueckner-CCSD(T), CCSD density
   Simone Kossmann        : Meta GGA functionals, TD-DFT gradient, OOMP2, MP2 Hessian
   Martin Krupicka        : AUTO-CI
   Lucas Lang             : DCDCAS
   Dagmar Lenk            : GEPOL surface, SMD
   Dimitrios Liakos       : Extrapolation schemes; Compound Job, initial MDCI parallelization
   Dimitrios Manganas     : Further ROCIS development; embedding schemes
   Dimitrios Pantazis     : SARC Basis sets
   Taras Petrenko         : DFT Hessian,TD-DFT gradient, ASA, ECA, R-Raman, ABS, FL, XAS/XES, NRVS
   Peter Pinski           : DLPNO-MP2, DLPNO-MP2 Gradient
   Christoph Reimann      : Effective Core Potentials
   Marius Retegan         : Local ZFS, SOC
   Christoph Riplinger    : Optimizer, TS searches, QM/MM, DLPNO-CCSD(T), (RO)-DLPNO pert. Triples
   Tobias Risthaus        : Range-separated hybrids, TD-DFT gradient, RPA, STAB
   Michael Roemelt        : Original ROCIS implementation
   Masaaki Saitow         : Open-shell DLPNO-CCSD energy and density
   Barbara Sandhoefer     : DKH picture change effects
   Avijit Sen             : IP-ROCIS
   Kantharuban Sivalingam : CASSCF convergence, NEVPT2, FIC-MRCI
   Bernardo de Souza      : ESD, SOC TD-DFT
   Georgi Stoychev        : AutoAux, RI-MP2 NMR
   Willem Van den Heuvel  : Paramagnetic NMR
   Boris Wezisla          : Elementary symmetry handling
   Frank Wennmohs         : Technical directorship


 We gratefully acknowledge several colleagues who have allowed us to
 interface, adapt or use parts of their codes:
   Stefan Grimme, W. Hujo, H. Kruse,             : VdW corrections, initial TS optimization,
                  C. Bannwarth                     DFT functionals, gCP, sTDA/sTD-DF
   Ed Valeev, F. Pavosevic, A. Kumar             : LibInt (2-el integral package), F12 methods
   Garnet Chan, S. Sharma, J. Yang, R. Olivares  : DMRG
   Ulf Ekstrom                                   : XCFun DFT Library
   Mihaly Kallay                                 : mrcc  (arbitrary order and MRCC methods)
   Andreas Klamt, Michael Diedenhofen            : otool_cosmo (COSMO solvation model)
   Jiri Pittner, Ondrej Demel                    : Mk-CCSD
   Frank Weinhold                                : gennbo (NPA and NBO analysis)
   Christopher J. Cramer and Donald G. Truhlar   : smd solvation model
   Lars Goerigk                                  : TD-DFT with DH, B97 family of functionals
   V. Asgeirsson, H. Jonsson                     : NEB implementation
   FAccTs GmbH                                   : IRC, NEB, NEB-TS, Multilevel, MM, QM/MM, CI optimization
   S Lehtola, MJT Oliveira, MAL Marques          : LibXC Library


 Your calculation uses the libint2 library for the computation of 2-el integrals
 For citations please refer to: http://libint.valeyev.net

 Your ORCA version has been built with support for libXC version: 4.2.3
 For citations please refer to: https://tddft.org/programs/libxc/

 This ORCA versions uses:
   CBLAS   interface :  Fast vector & matrix operations
   LAPACKE interface :  Fast linear algebra routines
   SCALAPACK package :  Parallel linear algebra routines




***************************************
The coordinates will be read from file: _o_3_alde1_6_ami4_2_opt_B97-3c.xyz
***************************************


----- Orbital basis set information -----
Your calculation utilizes the basis: cc-pVTZ 
       H, B-Ne : Obtained from the ccRepo (grant-hill.group.shef.ac.uk/ccrepo) Feb. 2017
                 T. H. Dunning, Jr., J. Chem. Phys. 90, 1007 (1989)
            He : Obtained from the ccRepo (grant-hill.group.shef.ac.uk/ccrepo) Feb. 2017
                 D. E. Woon, T. H. Dunning, Jr., J. Chem. Phys. 100, 2975 (1994)
  Li-Be, Na-Mg : Obtained from the ccRepo (grant-hill.group.shef.ac.uk/ccrepo) Feb. 2017
                 B. P. Prascher, D. E. Woon, K. A. Peterson, T. H. Dunning, Jr., A. K. Wilson, Theor. Chem. Acc. 128, 69 (2011)
         Al-Ar : Obtained from the ccRepo (grant-hill.group.shef.ac.uk/ccrepo) Feb. 2017
                 D. E. Woon, T. H. Dunning, Jr., J. Chem. Phys. 98, 1358 (1993)
            Ca : Obtained from the Peterson Research Group Website (tyr0.chem.wsu.edu/~kipeters) Feb. 2017
                 J. Koput, K. A. Peterson, J. Phys. Chem. 106, 9595 (2002)
         Sc-Zn : Obtained from the ccRepo (grant-hill.group.shef.ac.uk/ccrepo) Feb. 2017
                 N. B. Balabanov, K. A. Peterson, J. Chem. Phys. 123, 064107 (2005)
                 N. B. Balabanov, K. A. Peterson, J. Chem. Phys. 125, 074110 (2006)
         Ga-Kr : Obtained from the ccRepo (grant-hill.group.shef.ac.uk/ccrepo) Feb. 2017
                 A. K. Wilson, D. E. Woon, K. A. Peterson, T. H. Dunning, Jr., J. Chem. Phys. 110, 7667 (1999)
             Y : Obtained from the ccRepo (grant-hill.group.shef.ac.uk/ccrepo) Feb. 2017
                 K. A. Peterson, D. Figgen, M. Dolg, H. Stoll, J. Chem. Phys. 126, 124101 (2007)
        Ag, Au : Obtained from the Peterson Research Group Website (tyr0.chem.wsu.edu/~kipeters) Feb. 2017
                 K. A. Peterson, C. Puzzarini, Theor. Chem. Acc. 114, 283 (2005)

----- AuxC basis set information -----
Your calculation utilizes the auxiliary basis: cc-pVTZ/C 
  Obtained from the EMSL Basis Set Exchange (bse.pnl.gov) Feb. 2017
  H-He, B-F, Al-Ar, Ga-Kr : F. Weigend, A. Kohn, C. Hattig, J. Chem. Phys. 116, 3175 (2002)
             Li-Be, Na-Mg : C. Haettig, Phys. Chem. Chem. Phys. 7, 59 (2005)
                       Ne : C. Haettig, Phys. Chem. Chem. Phys. 7, 59 (2005)
                            F. Weigend, A. Kohn, C. Hattig, J. Chem. Phys. 116, 3175 (2002)
                    Sc-Zn : J. G. Hill, J. A. Platts, J. Chem. Phys. 128, 044104 (2008)

================================================================================
                                        WARNINGS
                       Please study these warnings very carefully!
================================================================================


WARNING: No MP2 level density has been requested!
         To caclulate MP2 level properties use
         %mp2 Density relaxed end
         or
         %mp2 Density unrelaxed end

WARNING: Post HF methods need fully converged wavefunctions
  ===> : Setting SCFConvForced true
         You can overwrite this default with %scf ConvForced false 


INFO   : the flag for use of LIBINT has been found!

================================================================================
                                       INPUT FILE
================================================================================
NAME = o_3_alde1_6_ami4_2_opt_MP2.in
|  1> ! RI-MP2 cc-pVTZ cc-pVTZ/C TIGHTSCF printbasis Grid6 NOFINALGRID SlowConv
|  2> 
|  3> %base "_o_3_alde1_6_ami4_2_opt_MP2"
|  4> %maxcore 3000
|  5> %pal
|  6>    nprocs 32
|  7> end
|  8> 
|  9> * xyzfile 0 1 _o_3_alde1_6_ami4_2_opt_B97-3c.xyz
| 10> 
| 11>                          ****END OF INPUT****
================================================================================

                       ****************************
                       * Single Point Calculation *
                       ****************************

---------------------------------
CARTESIAN COORDINATES (ANGSTROEM)
---------------------------------
  C     -3.009830   -0.891308    0.345565
  C     -3.207811   -0.527531    1.746536
  C     -2.293601   -2.031791   -0.041147
  C     -2.130986   -2.343423   -1.384394
  H     -1.877638   -2.674248    0.723933
  C     -2.673131   -1.492473   -2.352483
  C     -3.400674   -0.370489   -1.988939
  H     -2.524774   -1.741207   -3.394720
  C     -3.567918   -0.078030   -0.632477
  C     -3.941558    0.497534   -3.033371
  H     -4.133379    0.802687   -0.358591
  C     -1.420073   -3.559829   -1.783263
  H     -3.547797    0.315615   -4.043040
  H     -3.822597    0.368772    1.907246
  H     -0.989356   -4.154847   -0.966544
  C      3.419484   -1.636255   -0.168894
  C      3.326423   -1.929479    1.262611
  C      4.052592   -0.471039   -0.604055
  C      4.049275   -0.110728   -1.950218
  H      4.535019    0.177276    0.119272
  C      3.389154   -0.928269   -2.868453
  C      2.767551   -2.100370   -2.450498
  H      3.360971   -0.623515   -3.906562
  C      2.793594   -2.451190   -1.102790
  C      2.015737   -2.920619   -3.401805
  H      2.286200   -3.345640   -0.775573
  C      4.683915    1.142377   -2.351686
  H      1.834855   -2.471888   -4.388770
  H      3.785738   -1.197580    1.938577
  H      5.105012    1.734995   -1.526464
  C      0.244755    3.226997   -0.109391
  C      0.605265    2.897148    1.269577
  C     -1.090023    3.335042   -0.506135
  C     -1.421838    3.570640   -1.832566
  H     -1.861043    3.210011    0.242291
  C     -0.402061    3.682238   -2.783915
  C      0.929550    3.610083   -2.400326
  H     -0.671887    3.833843   -3.820964
  C      1.245222    3.391734   -1.055105
  C      1.985676    3.703517   -3.407500
  H      2.287969    3.319189   -0.775321
  C     -2.833916    3.661702   -2.189955
  H      1.660122    3.577048   -4.450191
  H      1.677743    2.965233    1.484696
  H     -3.525221    3.622447   -1.337885
  C     -3.623593   -1.869326    4.894894
  C     -3.039248   -0.722511    4.065572
  N     -2.765577   -3.025988    5.088311
  N     -2.725399   -1.173310    2.729422
  C      0.979670   -3.054482    3.396267
  C      2.480440   -3.053422    3.124747
  N      0.381613   -1.819904    2.898947
  N      2.683077   -2.934188    1.701185
  C      1.618777    1.899184    3.771080
  C      0.145876    2.186833    3.477821
  N      2.199532    0.756697    3.078065
  N     -0.257701    2.546135    2.131629
  C     -0.588712   -5.118120   -3.304593
  C      0.721444   -4.770401   -4.011514
  N     -1.322503   -3.916091   -2.998371
  N      1.568476   -4.065095   -3.089184
  C     -5.137222    2.290257   -3.898526
  C     -4.696622    3.717344   -3.551508
  N     -4.789010    1.414866   -2.808052
  N     -3.262167    3.758957   -3.382928
  C      5.296549    2.864870   -3.773302
  C      4.185016    3.841081   -4.162135
  N      4.739671    1.551788   -3.552898
  N      3.204400    3.887967   -3.107343
  H      2.197519    0.924769    2.079969
  H      1.597373   -0.057877    3.206465
  H     -1.930513   -2.760541    5.596355
  H     -2.456481   -3.366143    4.186697
  H     -0.626070   -1.823042    3.024477
  H      0.518262   -1.782267    1.895046
  H      3.756583    3.553159   -5.130621
  H      4.634563    4.831124   -4.270741
  H      5.813020    3.256780   -2.887234
  H      6.012115    2.815775   -4.595657
  H      2.893506   -4.006507    3.462309
  H      2.960752   -2.245145    3.690330
  H      0.823181   -3.114145    4.474472
  H      0.549320   -3.960953    2.951529
  H      0.510786   -4.207384   -4.930031
  H      1.208562   -5.708114   -4.288211
  H     -0.356461   -5.714829   -2.413820
  H     -1.193122   -5.724939   -3.980843
  H     -4.546708   -2.204007    4.419021
  H     -3.905336   -1.476499    5.873268
  H     -2.110262   -0.392544    4.540833
  H     -3.730835    0.132431    4.066858
  H      1.698984    1.719969    4.845509
  H      2.232155    2.782547    3.580838
  H     -0.213219    2.982595    4.140344
  H     -0.439959    1.303267    3.743483
  H     -5.233466    4.032537   -2.648939
  H     -4.983076    4.376096   -4.371342
  H     -4.685423    1.987125   -4.851676
  H     -6.222139    2.295421   -4.018032

----------------------------
CARTESIAN COORDINATES (A.U.)
----------------------------
  NO LB      ZA    FRAG     MASS         X           Y           Z
   0 C     6.0000    0    12.011   -5.687755   -1.684328    0.653023
   1 C     6.0000    0    12.011   -6.061885   -0.996889    3.300476
   2 C     6.0000    0    12.011   -4.334278   -3.839529   -0.077756
   3 C     6.0000    0    12.011   -4.026981   -4.428428   -2.616126
   4 H     1.0000    0     1.008   -3.548222   -5.053597    1.368035
   5 C     6.0000    0    12.011   -5.051485   -2.820366   -4.445548
   6 C     6.0000    0    12.011   -6.426342   -0.700123   -3.758549
   7 H     1.0000    0     1.008   -4.771131   -3.290405   -6.415092
   8 C     6.0000    0    12.011   -6.742389   -0.147456   -1.195208
   9 C     6.0000    0    12.011   -7.448465    0.940204   -5.732240
  10 H     1.0000    0     1.008   -7.810955    1.516860   -0.677638
  11 C     6.0000    0    12.011   -2.683550   -6.727101   -3.369879
  12 H     1.0000    0     1.008   -6.704365    0.596426   -7.640238
  13 H     1.0000    0     1.008   -7.223661    0.696878    3.604173
  14 H     1.0000    0     1.008   -1.869612   -7.851523   -1.826504
  15 C     6.0000    0    12.011    6.461888   -3.092073   -0.319163
  16 C     6.0000    0    12.011    6.286029   -3.646187    2.385988
  17 C     6.0000    0    12.011    7.658289   -0.890134   -1.141499
  18 C     6.0000    0    12.011    7.652021   -0.209246   -3.685378
  19 H     1.0000    0     1.008    8.569944    0.335003    0.225391
  20 C     6.0000    0    12.011    6.404574   -1.754175   -5.420590
  21 C     6.0000    0    12.011    5.229914   -3.969124   -4.630771
  22 H     1.0000    0     1.008    6.351316   -1.178272   -7.382332
  23 C     6.0000    0    12.011    5.279127   -4.632078   -2.083971
  24 C     6.0000    0    12.011    3.809191   -5.519170   -6.428480
  25 H     1.0000    0     1.008    4.320292   -6.322344   -1.465620
  26 C     6.0000    0    12.011    8.851316    2.158781   -4.444043
  27 H     1.0000    0     1.008    3.467373   -4.671192   -8.293574
  28 H     1.0000    0     1.008    7.154009   -2.263098    3.663380
  29 H     1.0000    0     1.008    9.647075    3.278665   -2.884599
  30 C     6.0000    0    12.011    0.462519    6.098140   -0.206719
  31 C     6.0000    0    12.011    1.143784    5.474816    2.399153
  32 C     6.0000    0    12.011   -2.059844    6.302317   -0.956456
  33 C     6.0000    0    12.011   -2.686885    6.747532   -3.463047
  34 H     1.0000    0     1.008   -3.516862    6.066042    0.457865
  35 C     6.0000    0    12.011   -0.759785    6.958422   -5.260836
  36 C     6.0000    0    12.011    1.756594    6.822068   -4.535958
  37 H     1.0000    0     1.008   -1.269683    7.244914   -7.220576
  38 C     6.0000    0    12.011    2.353128    6.409448   -1.993860
  39 C     6.0000    0    12.011    3.752383    6.998633   -6.439242
  40 H     1.0000    0     1.008    4.323635    6.272359   -1.465144
  41 C     6.0000    0    12.011   -5.355325    6.919613   -4.138415
  42 H     1.0000    0     1.008    3.137177    6.759640   -8.409642
  43 H     1.0000    0     1.008    3.170474    5.603478    2.805670
  44 H     1.0000    0     1.008   -6.661702    6.845432   -2.528237
  45 C     6.0000    0    12.011   -6.847598   -3.532515    9.250008
  46 C     6.0000    0    12.011   -5.743347   -1.365348    7.682818
  47 N     7.0000    0    14.007   -5.226184   -5.718288    9.615514
  48 N     7.0000    0    14.007   -5.150258   -2.217235    5.157861
  49 C     6.0000    0    12.011    1.851308   -5.772135    6.418014
  50 C     6.0000    0    12.011    4.687353   -5.770131    5.904915
  51 N     7.0000    0    14.007    0.721144   -3.439120    5.478216
  52 N     7.0000    0    14.007    5.070281   -5.544812    3.214774
  53 C     6.0000    0    12.011    3.059046    3.588937    7.126308
  54 C     6.0000    0    12.011    0.275666    4.132516    6.572129
  55 N     7.0000    0    14.007    4.156513    1.429951    5.816700
  56 N     7.0000    0    14.007   -0.486985    4.811498    4.028196
  57 C     6.0000    0    12.011   -1.112504   -9.671845   -6.244777
  58 C     6.0000    0    12.011    1.363332   -9.014751   -7.580663
  59 N     7.0000    0    14.007   -2.499169   -7.400340   -5.666100
  60 N     7.0000    0    14.007    2.963991   -7.681916   -5.837712
  61 C     6.0000    0    12.011   -9.707943    4.327958   -7.367147
  62 C     6.0000    0    12.011   -8.875329    7.024763   -6.711378
  63 N     7.0000    0    14.007   -9.049918    2.673710   -5.306449
  64 N     7.0000    0    14.007   -6.164602    7.103399   -6.392808
  65 C     6.0000    0    12.011   10.009027    5.413819   -7.130508
  66 C     6.0000    0    12.011    7.908534    7.258591   -7.865295
  67 N     7.0000    0    14.007    8.956679    2.932454   -6.714004
  68 N     7.0000    0    14.007    6.055439    7.347192   -5.872026
  69 H     1.0000    0     1.008    4.152709    1.747559    3.930571
  70 H     1.0000    0     1.008    3.018597   -0.109372    6.059341
  71 H     1.0000    0     1.008   -3.648141   -5.216666   10.575578
  72 H     1.0000    0     1.008   -4.642077   -6.361088    7.911710
  73 H     1.0000    0     1.008   -1.183101   -3.445050    5.715433
  74 H     1.0000    0     1.008    0.979373   -3.367996    3.581119
  75 H     1.0000    0     1.008    7.098913    6.714497   -9.695468
  76 H     1.0000    0     1.008    8.758055    9.129501   -8.070530
  77 H     1.0000    0     1.008   10.985015    6.154421   -5.456082
  78 H     1.0000    0     1.008   11.361251    5.321044   -8.684533
  79 H     1.0000    0     1.008    5.467934   -7.571201    6.542816
  80 H     1.0000    0     1.008    5.595010   -4.242710    6.973714
  81 H     1.0000    0     1.008    1.555586   -5.884881    8.455526
  82 H     1.0000    0     1.008    1.038065   -7.485116    5.577582
  83 H     1.0000    0     1.008    0.965246   -7.950804   -9.316409
  84 H     1.0000    0     1.008    2.283852  -10.786773   -8.103545
  85 H     1.0000    0     1.008   -0.673614  -10.799462   -4.561458
  86 H     1.0000    0     1.008   -2.254675  -10.818566   -7.522702
  87 H     1.0000    0     1.008   -8.592034   -4.164970    8.350740
  88 H     1.0000    0     1.008   -7.380015   -2.790179   11.098868
  89 H     1.0000    0     1.008   -3.987818   -0.741802    8.580931
  90 H     1.0000    0     1.008   -7.050257    0.250258    7.685248
  91 H     1.0000    0     1.008    3.210614    3.250270    9.156684
  92 H     1.0000    0     1.008    4.218162    5.258252    6.766804
  93 H     1.0000    0     1.008   -0.402926    5.636288    7.824116
  94 H     1.0000    0     1.008   -0.831402    2.462817    7.074157
  95 H     1.0000    0     1.008   -9.889817    7.620391   -5.005769
  96 H     1.0000    0     1.008   -9.416649    8.269623   -8.260639
  97 H     1.0000    0     1.008   -8.854166    3.755122   -9.168340
  98 H     1.0000    0     1.008  -11.758138    4.337718   -7.592981

--------------------------------
INTERNAL COORDINATES (ANGSTROEM)
--------------------------------
 C      0   0   0     0.000000000000     0.00000000     0.00000000
 C      1   0   0     1.460907843331     0.00000000     0.00000000
 C      1   2   0     1.401154152795   122.45434240     0.00000000
 C      3   1   2     1.388478059940   120.63435379   179.85541840
 H      3   1   2     1.082184663735   118.98490781     0.55896732
 C      4   3   1     1.398295958244   119.19519157     1.02340689
 C      6   4   3     1.385760090475   120.97419095   358.05017037
 H      6   4   3     1.081728855060   118.29106287   179.08056066
 C      1   2   3     1.389045577598   118.35820777   179.31034933
 C      7   6   4     1.461799904553   119.18278963   179.55889944
 H      9   1   2     1.081861294846   120.55608310     0.07491999
 C      4   3   1     1.464287080366   120.45302459   182.04262466
 H     10   7   6     1.098896540093   115.18752152   347.29562802
 H      2   1   3     1.098702787480   114.78646086   182.35016677
 H     12   4   3     1.098450791927   115.96533202   356.64710799
 C     15  12   4     5.139788052405   100.73692605   277.44468964
 C     16  15  12     1.464187781793    89.94699561   145.59854143
 C     16  15  12     1.395678833191   138.57527824     6.48984442
 C     18  16  15     1.393552643672   121.06234591   316.65184061
 H     18  16  15     1.084550607161   119.53120052   135.18694016
 C     19  18  16     1.395452721516   119.03152811     0.59152730
 C     21  19  18     1.391005321368   120.48695856   358.65920252
 H     21  19  18     1.082284419755   118.58811541   177.85429152
 C     16  15  12     1.388531827333    38.86510488   290.29588792
 C     22  21  19     1.463905019769   120.42300682   176.77080766
 H     24  16  15     1.079148226162   119.63371245   313.78661648
 C     19  18  16     1.460896257006   119.09177954   177.82587717
 H     25  22  21     1.099171810574   116.05744605   349.91691867
 H     17  16  15     1.097076805314   116.24340301   209.31420176
 H     27  19  18     1.099777327188   114.98240223   358.39147419
 C     11   9   1     5.010731745189    87.12096632    84.84593117
 C     31  11   9     1.462983264133    98.80682931   273.83598976
 C     31  11   9     1.396678250949    35.73509874   140.45539246
 C     33  31  11     1.387453546385   120.88120472   241.09555552
 H     33  31  11     1.081779345241   118.40338885    59.83514626
 C     34  33  31     1.399094010096   119.29441294     0.88502118
 C     36  34  33     1.387636030837   120.48680204   357.52747497
 H     36  34  33     1.082248739186   118.75236774   178.03174873
 C     31  11   9     1.386523775410   130.84623029    56.20390392
 C     37  36  34     1.462372179662   119.95585886   178.87604166
 H     39  31  11     1.082065172949   120.73176042   221.33954097
 C     34  33  31     1.459446047959   118.43079565   179.44372708
 H     40  37  36     1.099628932713   115.58842002   345.31519425
 H     32  31  11     1.095956808083   114.33982837   157.48545882
 H     42  34  33     1.097937472521   114.64096318     5.28098077
 C      2   1   3     3.447526939229   142.67268749   327.14495315
 C     46   2   1     1.531149511469    33.67782627   145.49785260
 N     46   2   1     1.453088602350   111.10949838    39.42324374
 N      2   1   3     1.271147661570   124.30310136     2.21892123
 C     17  16  15     3.365318690390   136.98110744   346.32675857
 C     50  17  16     1.525134551977    36.93665600   147.99244093
 N     50  17  16     1.459171605146    77.69500495   298.76760689
 N     17  16  15     1.271094595425   121.85681750    25.37163881
 C     44  32  31     2.523387770442    97.39658855   189.75284972
 C     54  44  32     1.529111083943    76.65966702   346.65325423
 N     54  44  32     1.456990283119    83.74154076   105.41450276
 N     32  31  11     1.269273141354   122.34248104   338.34592030
 C     12   4   3     2.331068333997   154.99217742   176.81952056
 C     58  12   4     1.528775115029   117.08933529    80.88836070
 N     12   4   3     1.270011674562   122.06985797   175.71421803
 N     25  22  21     1.267910983371   121.78294169   171.85086339
 C     10   7   6     2.322059509700   156.22974822   177.05582682
 C     62  10   7     1.533339367061   119.09516801    62.91317726
 N     10   7   6     1.269031759051   123.33079469   168.38597395
 N     42  34  33     1.271236868887   124.09183310   186.30499881
 C     27  19  18     2.315878276535   157.16067246   187.11445773
 C     66  27  19     1.529602985942   116.00809278    72.91130965
 N     27  19  18     1.270289390993   123.73744321   179.53218392
 N     40  37  36     1.268623560316   122.69251868   166.84475598
 H     56  54  44     1.012150426349   109.75757119   352.14762881
 H     56  54  44     1.021084382027   109.30983864   237.73574987
 H     48  46   2     1.012868976727   110.18027867    98.69596222
 H     48  46   2     1.012004652386   109.22710628   342.10126993
 H     52  50  17     1.015476571657   111.22117954   158.69490546
 H     52  50  17     1.013857000637   108.27897226    44.00076950
 H     67  66  27     1.097459972707   109.91218323   263.61520715
 H     67  66  27     1.092736316710   107.73085761   146.05789884
 H     66  27  19     1.097931006870    83.94567272   180.69237257
 H     66  27  19     1.091197860061   127.05831127   289.22471741
 H     51  50  17     1.092219220295   108.45252224   213.21078300
 H     51  50  17     1.097221619452   109.84653973    94.73498631
 H     50  17  16     1.091134613782   138.14109921   194.05875464
 H     50  17  16     1.097579712784   107.01387029    49.95099543
 H     59  58  12     1.097742277564   109.82271331   271.34392148
 H     59  58  12     1.092315387310   107.70132038   153.61276499
 H     58  12   4     1.097032606907    84.78966538   189.05283548
 H     58  12   4     1.091262597091   125.35398453   298.12714376
 H     46   2   1     1.091149719532    79.81275045   293.64001718
 H     46   2   1     1.091287520665   135.21609931   190.51358759
 H     47  46   2     1.094424893328   108.33416416   213.56184946
 H     47  46   2     1.099645466852   109.97834347    96.46113132
 H     54  44  32     1.092221976137   163.52025157   242.17597309
 H     54  44  32     1.092133242136    59.15848365   222.10944358
 H     55  54  44     1.095957520575   109.64931003   249.14462460
 H     55  54  44     1.092917386032   108.51935067   134.58019509
 H     63  62  10     1.096439639259   108.24951490   268.95909672
 H     63  62  10     1.090016925030   108.46586645   151.46062350
 H     62  10   7     1.097500455535    84.16676348   172.11465542
 H     62  10   7     1.091490806854   123.79758483   280.36266598

---------------------------
INTERNAL COORDINATES (A.U.)
---------------------------
 C      0   0   0     0.000000000000     0.00000000     0.00000000
 C      1   0   0     2.760715730793     0.00000000     0.00000000
 C      1   2   0     2.647797620189   122.45434240     0.00000000
 C      3   1   2     2.623843276244   120.63435379   179.85541840
 H      3   1   2     2.045032640789   118.98490781     0.55896732
 C      4   3   1     2.642396415250   119.19519157     1.02340689
 C      6   4   3     2.618707058315   120.97419095   358.05017037
 H      6   4   3     2.044171287224   118.29106287   179.08056066
 C      1   2   3     2.624915729195   118.35820777   179.31034933
 C      7   6   4     2.762401482197   119.18278963   179.55889944
 H      9   1   2     2.044421562148   120.55608310     0.07491999
 C      4   3   1     2.767101563332   120.45302459   182.04262466
 H     10   7   6     2.076613510289   115.18752152   347.29562802
 H      2   1   3     2.076247370913   114.78646086   182.35016677
 H     12   4   3     2.075771168331   115.96533202   356.64710799
 C     15  12   4     9.712791805447   100.73692605   277.44468964
 C     16  15  12     2.766913916222    89.94699561   145.59854143
 C     16  15  12     2.637450765641   138.57527824     6.48984442
 C     18  16  15     2.633432849742   121.06234591   316.65184061
 H     18  16  15     2.049503625912   119.53120052   135.18694016
 C     19  18  16     2.637023476500   119.03152811     0.59152730
 C     21  19  18     2.628619108212   120.48695856   358.65920252
 H     21  19  18     2.045221152347   118.58811541   177.85429152
 C     16  15  12     2.623944881892    38.86510488   290.29588792
 C     22  21  19     2.766379573437   120.42300682   176.77080766
 H     24  16  15     2.039294605353   119.63371245   313.78661648
 C     19  18  16     2.760693835811   119.09177954   177.82587717
 H     25  22  21     2.077133696111   116.05744605   349.91691867
 H     17  16  15     2.073174709921   116.24340301   209.31420176
 H     27  19  18     2.078277956680   114.98240223   358.39147419
 C     11   9   1     9.468910728953    87.12096632    84.84593117
 C     31  11   9     2.764637707722    98.80682931   273.83598976
 C     31  11   9     2.639339391498    35.73509874   140.45539246
 C     33  31  11     2.621907226205   120.88120472   241.09555552
 H     33  31  11     2.044266699838   118.40338885    59.83514626
 C     34  33  31     2.643904514692   119.29441294     0.88502118
 C     36  34  33     2.622252071843   120.48680204   357.52747497
 H     36  34  33     2.045153725843   118.75236774   178.03174873
 C     31  11   9     2.620150213695   130.84623029    56.20390392
 C     37  36  34     2.763482925426   119.95585886   178.87604166
 H     39  31  11     2.044806835927   120.73176042   221.33954097
 C     34  33  31     2.757953337877   118.43079565   179.44372708
 H     40  37  36     2.077997531763   115.58842002   345.31519425
 H     32  31  11     2.071058221883   114.33982837   157.48545882
 H     42  34  33     2.074801135234   114.64096318     5.28098077
 C      2   1   3     6.514881754458   142.67268749   327.14495315
 C     46   2   1     2.893453246763    33.67782627   145.49785260
 N     46   2   1     2.745939506764   111.10949838    39.42324374
 N      2   1   3     2.402120956142   124.30310136     2.21892123
 C     17  16  15     6.359530678203   136.98110744   346.32675857
 C     50  17  16     2.882086620617    36.93665600   147.99244093
 N     50  17  16     2.757434716120    77.69500495   298.76760689
 N     17  16  15     2.402020675660   121.85681750    25.37163881
 C     44  32  31     4.768511815822    97.39658855   189.75284972
 C     54  44  32     2.889601176995    76.65966702   346.65325423
 N     54  44  32     2.753312614879    83.74154076   105.41450276
 N     32  31  11     2.398578626301   122.34248104   338.34592030
 C     12   4   3     4.405080750711   154.99217742   176.81952056
 C     58  12   4     2.888966287758   117.08933529    80.88836070
 N     12   4   3     2.399974251806   122.06985797   175.71421803
 N     25  22  21     2.396004520762   121.78294169   171.85086339
 C     10   7   6     4.388056540001   156.22974822   177.05582682
 C     62  10   7     2.897591474106   119.09516801    62.91317726
 N     10   7   6     2.398122479855   123.33079469   168.38597395
 N     42  34  33     2.402289533540   124.09183310   186.30499881
 C     27  19  18     4.376375702149   157.16067246   187.11445773
 C     66  27  19     2.890530737059   116.00809278    72.91130965
 N     27  19  18     2.400499059802   123.73744321   179.53218392
 N     40  37  36     2.397351096038   122.69251868   166.84475598
 H     56  54  44     1.912687112131   109.75757119   352.14762881
 H     56  54  44     1.929569841656   109.30983864   237.73574987
 H     48  46   2     1.914044975559   110.18027867    98.69596222
 H     48  46   2     1.912411639265   109.22710628   342.10126993
 H     52  50  17     1.918972615845   111.22117954   158.69490546
 H     52  50  17     1.915912070163   108.27897226    44.00076950
 H     67  66  27     2.073898791357   109.91218323   263.61520715
 H     67  66  27     2.064972375171   107.73085761   146.05789884
 H     66  27  19     2.074788916925    83.94567272   180.69237257
 H     66  27  19     2.062065113436   127.05831127   289.22471741
 H     51  50  17     2.063995204563   108.45252224   213.21078300
 H     51  50  17     2.073448368982   109.84653973    94.73498631
 H     50  17  16     2.061945595289   138.14109921   194.05875464
 H     50  17  16     2.074125067311   107.01387029    49.95099543
 H     59  58  12     2.074432270224   109.82271331   271.34392148
 H     59  58  12     2.064176933884   107.70132038   153.61276499
 H     58  12   4     2.073091187037    84.78966538   189.05283548
 H     58  12   4     2.062187448693   125.35398453   298.12714376
 H     46   2   1     2.061974141020    79.81275045   293.64001718
 H     46   2   1     2.062234547423   135.21609931   190.51358759
 H     47  46   2     2.068163322535   108.33416416   213.56184946
 H     47  46   2     2.078028776759   109.97834347    96.46113132
 H     54  44  32     2.064000412349   163.52025157   242.17597309
 H     54  44  32     2.063832729388    59.15848365   222.10944358
 H     55  54  44     2.071059568298   109.64931003   249.14462460
 H     55  54  44     2.065314546601   108.51935067   134.58019509
 H     63  62  10     2.071970640576   108.24951490   268.95909672
 H     63  62  10     2.059833469645   108.46586645   151.46062350
 H     62  10   7     2.073975292816    84.16676348   172.11465542
 H     62  10   7     2.062618702647   123.79758483   280.36266598

---------------------
BASIS SET INFORMATION
---------------------
There are 3 groups of distinct atoms

 Group   1 Type C   : 18s5p2d1f contracted to 4s3p2d1f pattern {8811/311/11/1}
 Group   2 Type H   : 5s2p1d contracted to 3s2p1d pattern {311/11/1}
 Group   3 Type N   : 18s5p2d1f contracted to 4s3p2d1f pattern {8811/311/11/1}

Atom   0C    basis set group =>   1
Atom   1C    basis set group =>   1
Atom   2C    basis set group =>   1
Atom   3C    basis set group =>   1
Atom   4H    basis set group =>   2
Atom   5C    basis set group =>   1
Atom   6C    basis set group =>   1
Atom   7H    basis set group =>   2
Atom   8C    basis set group =>   1
Atom   9C    basis set group =>   1
Atom  10H    basis set group =>   2
Atom  11C    basis set group =>   1
Atom  12H    basis set group =>   2
Atom  13H    basis set group =>   2
Atom  14H    basis set group =>   2
Atom  15C    basis set group =>   1
Atom  16C    basis set group =>   1
Atom  17C    basis set group =>   1
Atom  18C    basis set group =>   1
Atom  19H    basis set group =>   2
Atom  20C    basis set group =>   1
Atom  21C    basis set group =>   1
Atom  22H    basis set group =>   2
Atom  23C    basis set group =>   1
Atom  24C    basis set group =>   1
Atom  25H    basis set group =>   2
Atom  26C    basis set group =>   1
Atom  27H    basis set group =>   2
Atom  28H    basis set group =>   2
Atom  29H    basis set group =>   2
Atom  30C    basis set group =>   1
Atom  31C    basis set group =>   1
Atom  32C    basis set group =>   1
Atom  33C    basis set group =>   1
Atom  34H    basis set group =>   2
Atom  35C    basis set group =>   1
Atom  36C    basis set group =>   1
Atom  37H    basis set group =>   2
Atom  38C    basis set group =>   1
Atom  39C    basis set group =>   1
Atom  40H    basis set group =>   2
Atom  41C    basis set group =>   1
Atom  42H    basis set group =>   2
Atom  43H    basis set group =>   2
Atom  44H    basis set group =>   2
Atom  45C    basis set group =>   1
Atom  46C    basis set group =>   1
Atom  47N    basis set group =>   3
Atom  48N    basis set group =>   3
Atom  49C    basis set group =>   1
Atom  50C    basis set group =>   1
Atom  51N    basis set group =>   3
Atom  52N    basis set group =>   3
Atom  53C    basis set group =>   1
Atom  54C    basis set group =>   1
Atom  55N    basis set group =>   3
Atom  56N    basis set group =>   3
Atom  57C    basis set group =>   1
Atom  58C    basis set group =>   1
Atom  59N    basis set group =>   3
Atom  60N    basis set group =>   3
Atom  61C    basis set group =>   1
Atom  62C    basis set group =>   1
Atom  63N    basis set group =>   3
Atom  64N    basis set group =>   3
Atom  65C    basis set group =>   1
Atom  66C    basis set group =>   1
Atom  67N    basis set group =>   3
Atom  68N    basis set group =>   3
Atom  69H    basis set group =>   2
Atom  70H    basis set group =>   2
Atom  71H    basis set group =>   2
Atom  72H    basis set group =>   2
Atom  73H    basis set group =>   2
Atom  74H    basis set group =>   2
Atom  75H    basis set group =>   2
Atom  76H    basis set group =>   2
Atom  77H    basis set group =>   2
Atom  78H    basis set group =>   2
Atom  79H    basis set group =>   2
Atom  80H    basis set group =>   2
Atom  81H    basis set group =>   2
Atom  82H    basis set group =>   2
Atom  83H    basis set group =>   2
Atom  84H    basis set group =>   2
Atom  85H    basis set group =>   2
Atom  86H    basis set group =>   2
Atom  87H    basis set group =>   2
Atom  88H    basis set group =>   2
Atom  89H    basis set group =>   2
Atom  90H    basis set group =>   2
Atom  91H    basis set group =>   2
Atom  92H    basis set group =>   2
Atom  93H    basis set group =>   2
Atom  94H    basis set group =>   2
Atom  95H    basis set group =>   2
Atom  96H    basis set group =>   2
Atom  97H    basis set group =>   2
Atom  98H    basis set group =>   2

-------------------------
BASIS SET IN INPUT FORMAT
-------------------------

 # Basis set for element : H 
 NewGTO H 
 S 3 
   1      33.8700000000      0.0254948632
   2       5.0950000000      0.1903627659
   3       1.1590000000      0.8521620222
 S 1 
   1       0.3258000000      1.0000000000
 S 1 
   1       0.1027000000      1.0000000000
 P 1 
   1       1.4070000000      1.0000000000
 P 1 
   1       0.3880000000      1.0000000000
 D 1 
   1       1.0570000000      1.0000000000
  end;

 # Basis set for element : C 
 NewGTO C 
 S 8 
   1    8236.0000000000      0.0005424302
   2    1235.0000000000      0.0041964279
   3     280.8000000000      0.0215409141
   4      79.2700000000      0.0836149496
   5      25.5900000000      0.2398716189
   6       8.9970000000      0.4437518201
   7       3.3190000000      0.3535796965
   8       0.3643000000     -0.0091763661
 S 8 
   1    8236.0000000000     -0.0001963922
   2    1235.0000000000     -0.0015259503
   3     280.8000000000     -0.0078904490
   4      79.2700000000     -0.0315148705
   5      25.5900000000     -0.0969100083
   6       8.9970000000     -0.2205415263
   7       3.3190000000     -0.2960691129
   8       0.3643000000      1.0405034329
 S 1 
   1       0.9059000000      1.0000000000
 S 1 
   1       0.1285000000      1.0000000000
 P 3 
   1      18.7100000000      0.0394263872
   2       4.1330000000      0.2440889849
   3       1.2000000000      0.8154920089
 P 1 
   1       0.3827000000      1.0000000000
 P 1 
   1       0.1209000000      1.0000000000
 D 1 
   1       1.0970000000      1.0000000000
 D 1 
   1       0.3180000000      1.0000000000
 F 1 
   1       0.7610000000      1.0000000000
  end;

 # Basis set for element : N 
 NewGTO N 
 S 8 
   1   11420.0000000000      0.0005349809
   2    1712.0000000000      0.0041376631
   3     389.3000000000      0.0212509149
   4     110.0000000000      0.0825762988
   5      35.5700000000      0.2384132727
   6      12.5400000000      0.4434316661
   7       4.6440000000      0.3554319088
   8       0.5118000000     -0.0087029018
 S 8 
   1   11420.0000000000     -0.0001987770
   2    1712.0000000000     -0.0015470035
   3     389.3000000000     -0.0079925633
   4     110.0000000000     -0.0320255651
   5      35.5700000000     -0.0991102048
   6      12.5400000000     -0.2282927747
   7       4.6440000000     -0.2981827627
   8       0.5118000000      1.0370005182
 S 1 
   1       1.2930000000      1.0000000000
 S 1 
   1       0.1787000000      1.0000000000
 P 3 
   1      26.6300000000      0.0398072123
   2       5.9480000000      0.2490026605
   3       1.7420000000      0.8104797267
 P 1 
   1       0.5550000000      1.0000000000
 P 1 
   1       0.1725000000      1.0000000000
 D 1 
   1       1.6540000000      1.0000000000
 D 1 
   1       0.4690000000      1.0000000000
 F 1 
   1       1.0930000000      1.0000000000
  end;

---------------------------------
AUXILIARY/C BASIS SET INFORMATION
---------------------------------
There are 3 groups of distinct atoms

 Group   1 Type C   : 8s6p5d3f1g contracted to 8s6p5d3f1g pattern {11111111/111111/11111/111/1}
 Group   2 Type H   : 4s3p2d1f contracted to 4s3p2d1f pattern {1111/111/11/1}
 Group   3 Type N   : 8s6p5d3f1g contracted to 8s6p5d3f1g pattern {11111111/111111/11111/111/1}

Atom   0C    basis set group =>   1
Atom   1C    basis set group =>   1
Atom   2C    basis set group =>   1
Atom   3C    basis set group =>   1
Atom   4H    basis set group =>   2
Atom   5C    basis set group =>   1
Atom   6C    basis set group =>   1
Atom   7H    basis set group =>   2
Atom   8C    basis set group =>   1
Atom   9C    basis set group =>   1
Atom  10H    basis set group =>   2
Atom  11C    basis set group =>   1
Atom  12H    basis set group =>   2
Atom  13H    basis set group =>   2
Atom  14H    basis set group =>   2
Atom  15C    basis set group =>   1
Atom  16C    basis set group =>   1
Atom  17C    basis set group =>   1
Atom  18C    basis set group =>   1
Atom  19H    basis set group =>   2
Atom  20C    basis set group =>   1
Atom  21C    basis set group =>   1
Atom  22H    basis set group =>   2
Atom  23C    basis set group =>   1
Atom  24C    basis set group =>   1
Atom  25H    basis set group =>   2
Atom  26C    basis set group =>   1
Atom  27H    basis set group =>   2
Atom  28H    basis set group =>   2
Atom  29H    basis set group =>   2
Atom  30C    basis set group =>   1
Atom  31C    basis set group =>   1
Atom  32C    basis set group =>   1
Atom  33C    basis set group =>   1
Atom  34H    basis set group =>   2
Atom  35C    basis set group =>   1
Atom  36C    basis set group =>   1
Atom  37H    basis set group =>   2
Atom  38C    basis set group =>   1
Atom  39C    basis set group =>   1
Atom  40H    basis set group =>   2
Atom  41C    basis set group =>   1
Atom  42H    basis set group =>   2
Atom  43H    basis set group =>   2
Atom  44H    basis set group =>   2
Atom  45C    basis set group =>   1
Atom  46C    basis set group =>   1
Atom  47N    basis set group =>   3
Atom  48N    basis set group =>   3
Atom  49C    basis set group =>   1
Atom  50C    basis set group =>   1
Atom  51N    basis set group =>   3
Atom  52N    basis set group =>   3
Atom  53C    basis set group =>   1
Atom  54C    basis set group =>   1
Atom  55N    basis set group =>   3
Atom  56N    basis set group =>   3
Atom  57C    basis set group =>   1
Atom  58C    basis set group =>   1
Atom  59N    basis set group =>   3
Atom  60N    basis set group =>   3
Atom  61C    basis set group =>   1
Atom  62C    basis set group =>   1
Atom  63N    basis set group =>   3
Atom  64N    basis set group =>   3
Atom  65C    basis set group =>   1
Atom  66C    basis set group =>   1
Atom  67N    basis set group =>   3
Atom  68N    basis set group =>   3
Atom  69H    basis set group =>   2
Atom  70H    basis set group =>   2
Atom  71H    basis set group =>   2
Atom  72H    basis set group =>   2
Atom  73H    basis set group =>   2
Atom  74H    basis set group =>   2
Atom  75H    basis set group =>   2
Atom  76H    basis set group =>   2
Atom  77H    basis set group =>   2
Atom  78H    basis set group =>   2
Atom  79H    basis set group =>   2
Atom  80H    basis set group =>   2
Atom  81H    basis set group =>   2
Atom  82H    basis set group =>   2
Atom  83H    basis set group =>   2
Atom  84H    basis set group =>   2
Atom  85H    basis set group =>   2
Atom  86H    basis set group =>   2
Atom  87H    basis set group =>   2
Atom  88H    basis set group =>   2
Atom  89H    basis set group =>   2
Atom  90H    basis set group =>   2
Atom  91H    basis set group =>   2
Atom  92H    basis set group =>   2
Atom  93H    basis set group =>   2
Atom  94H    basis set group =>   2
Atom  95H    basis set group =>   2
Atom  96H    basis set group =>   2
Atom  97H    basis set group =>   2
Atom  98H    basis set group =>   2

-------------------------------------
AUXILIARY/C BASIS SET IN INPUT FORMAT
-------------------------------------

 # Auxiliary/C basis set for element : H 
 NewAuxCGTO H 
 S 1 
   1       8.5128275910      1.0000000000
 S 1 
   1       1.8730891166      1.0000000000
 S 1 
   1       0.5261842694      1.0000000000
 S 1 
   1       0.2897398994      1.0000000000
 P 1 
   1       2.3725491635      1.0000000000
 P 1 
   1       1.1804084468      1.0000000000
 P 1 
   1       0.6038220424      1.0000000000
 D 1 
   1       1.8096373189      1.0000000000
 D 1 
   1       1.1439726055      1.0000000000
 F 1 
   1       1.8063060576      1.0000000000
  end;

 # Auxiliary/C basis set for element : C 
 NewAuxCGTO C 
 S 1 
   1     280.5566118800      1.0000000000
 S 1 
   1      60.2302471910      1.0000000000
 S 1 
   1      22.1166508240      1.0000000000
 S 1 
   1       6.8620932896      1.0000000000
 S 1 
   1       1.5622549539      1.0000000000
 S 1 
   1       0.9124504549      1.0000000000
 S 1 
   1       0.5027491704      1.0000000000
 S 1 
   1       0.2158234875      1.0000000000
 P 1 
   1      24.2318651760      1.0000000000
 P 1 
   1       6.4764514185      1.0000000000
 P 1 
   1       2.1290884677      1.0000000000
 P 1 
   1       1.0375639746      1.0000000000
 P 1 
   1       0.5494127505      1.0000000000
 P 1 
   1       0.2815265223      1.0000000000
 D 1 
   1       9.7189810815      1.0000000000
 D 1 
   1       3.0351475003      1.0000000000
 D 1 
   1       1.4677737562      1.0000000000
 D 1 
   1       0.5737082791      1.0000000000
 D 1 
   1       0.2905558967      1.0000000000
 F 1 
   1       2.2756201303      1.0000000000
 F 1 
   1       1.1968898852      1.0000000000
 F 1 
   1       0.5415748722      1.0000000000
 G 1 
   1       1.2166101638      1.0000000000
  end;

 # Auxiliary/C basis set for element : N 
 NewAuxCGTO N 
 S 1 
   1     287.5092694700      1.0000000000
 S 1 
   1      64.2760308980      1.0000000000
 S 1 
   1      21.6819240160      1.0000000000
 S 1 
   1       7.9068743193      1.0000000000
 S 1 
   1       2.4319673913      1.0000000000
 S 1 
   1       1.2226681474      1.0000000000
 S 1 
   1       0.7667482736      1.0000000000
 S 1 
   1       0.3115884699      1.0000000000
 P 1 
   1      34.9650273710      1.0000000000
 P 1 
   1      10.3238966480      1.0000000000
 P 1 
   1       2.8981582643      1.0000000000
 P 1 
   1       1.4077404555      1.0000000000
 P 1 
   1       0.8508338654      1.0000000000
 P 1 
   1       0.3735327414      1.0000000000
 D 1 
   1      13.9086370890      1.0000000000
 D 1 
   1       4.5847232531      1.0000000000
 D 1 
   1       2.2101848651      1.0000000000
 D 1 
   1       0.8376830121      1.0000000000
 D 1 
   1       0.4194837561      1.0000000000
 F 1 
   1       3.4730665788      1.0000000000
 F 1 
   1       1.5589463548      1.0000000000
 F 1 
   1       0.8467763824      1.0000000000
 G 1 
   1       1.7764066281      1.0000000000
  end;



           ************************************************************
           *        Program running with 32 parallel MPI-processes    *
           *              working on a common directory               *
           ************************************************************
------------------------------------------------------------------------------
                           ORCA GTO INTEGRAL CALCULATION
------------------------------------------------------------------------------

                         BASIS SET STATISTICS AND STARTUP INFO

 # of primitive gaussian shells          ... 1710
 # of primitive gaussian functions       ... 3318
 # of contracted shells                  ...  798
 # of contracted basis functions         ... 2202
 Highest angular momentum                ...    3
 Maximum contraction depth               ...    8
 Integral package used                   ... LIBINT
 Integral threshhold            Thresh   ...  2.500e-11
 Primitive cut-off              TCut     ...  2.500e-12


------------------------------ INTEGRAL EVALUATION ----------------------------


 * One electron integrals 
 Pre-screening matrix                    ... done
 Shell pair data                         ... done (   0.056 sec)



           ************************************************************
           *        Program running with 32 parallel MPI-processes    *
           *              working on a common directory               *
           ************************************************************
-------------------------------------------------------------------------------
                                 ORCA SCF
-------------------------------------------------------------------------------

------------
SCF SETTINGS
------------
Hamiltonian:
 Ab initio Hamiltonian  Method          .... Hartree-Fock(GTOs)


General Settings:
 Integral files         IntName         .... _o_3_alde1_6_ami4_2_opt_MP2
 Hartree-Fock type      HFTyp           .... RHF
 Total Charge           Charge          ....    0
 Multiplicity           Mult            ....    1
 Number of Electrons    NEL             ....  366
 Basis Dimension        Dim             .... 2202
 Nuclear Repulsion      ENuc            ....   6714.5581885939 Eh

Convergence Acceleration:
 DIIS                   CNVDIIS         .... on
   Start iteration      DIISMaxIt       ....     0
   Startup error        DIISStart       ....  0.200000
   # of expansion vecs  DIISMaxEq       ....     5
   Bias factor          DIISBfac        ....   1.050
   Max. coefficient     DIISMaxC        ....  10.000
 Newton-Raphson         CNVNR           .... off
 SOSCF                  CNVSOSCF        .... on
   Start iteration      SOSCFMaxIt      ....   150
   Startup grad/error   SOSCFStart      ....  0.001000
 Level Shifting         CNVShift        .... on
   Level shift para.    LevelShift      ....    0.2500
   Turn off err/grad.   ShiftErr        ....    0.0000
 Zerner damping         CNVZerner       .... off
 Static damping         CNVDamp         .... on
   Fraction old density DampFac         ....    0.8500
   Max. Damping (<1)    DampMax         ....    0.9800
   Min. Damping (>=0)   DampMin         ....    0.0000
   Turn off err/grad.   DampErr         ....    0.0300
 Fernandez-Rico         CNVRico         .... off

SCF Procedure:
 Maximum # iterations   MaxIter         ....   125
 SCF integral mode      SCFMode         .... Direct
   Integral package                     .... LIBINT
 Reset frequency        DirectResetFreq ....    20
 Integral Threshold     Thresh          ....  2.500e-11 Eh
 Primitive CutOff       TCut            ....  2.500e-12 Eh

Convergence Tolerance:
 Convergence Check Mode ConvCheckMode   .... Total+1el-Energy
 Convergence forced     ConvForced      .... 1
 Energy Change          TolE            ....  1.000e-08 Eh
 1-El. energy change                    ....  1.000e-05 Eh
 Orbital Gradient       TolG            ....  1.000e-05
 Orbital Rotation angle TolX            ....  1.000e-05
 DIIS Error             TolErr          ....  5.000e-07


Diagonalization of the overlap matrix:
Smallest eigenvalue                        ... 2.221e-05
Time for diagonalization                   ...    2.289 sec
Threshold for overlap eigenvalues          ... 1.000e-08
Number of eigenvalues below threshold      ... 0
Time for construction of square roots      ...    0.562 sec
Total time needed                          ...    2.860 sec

-------------------
DFT GRID GENERATION
-------------------

General Integration Accuracy     IntAcc      ...  5.340
Radial Grid Type                 RadialGrid  ... Gauss-Chebyshev
Angular Grid (max. acc.)         AngularGrid ... Lebedev-590
Angular grid pruning method      GridPruning ... 3 (G Style)
Weight generation scheme         WeightScheme... Becke
Basis function cutoff            BFCut       ...    1.0000e-11
Integration weight cutoff        WCut        ...    1.0000e-14
Grids for H and He will be reduced by one unit

# of grid points (after initial pruning)     ... 1368240 (   0.0 sec)
# of grid points (after weights+screening)   ... 1135537 (   2.3 sec)
nearest neighbour list constructed           ...    0.0 sec
Grid point re-assignment to atoms done       ...    0.2 sec
Grid point division into batches done        ...   11.2 sec
Reduced shell lists constructed in   12.2 sec

Total number of grid points                  ...  1135537
Total number of batches                      ...    17793
Average number of points per batch           ...       63
Average number of grid points per atom       ...    11470
Average number of shells per batch           ...   236.96 (29.69%)
Average number of basis functions per batch  ...   546.53 (24.82%)
Average number of large shells per batch     ...   121.28 (51.18%)
Average number of large basis fcns per batch ...   297.21 (54.38%)
Maximum spatial batch extension              ...  20.91, 12.73,  5.14 au
Average spatial batch extension              ...   0.03,  0.03,  0.03 au

Time for grid setup =   14.908 sec

------------------------------
INITIAL GUESS: MODEL POTENTIAL
------------------------------
Loading Hartree-Fock densities                     ... done
Calculating cut-offs                               ... done
Setting up the integral package                    ... done
Initializing the effective Hamiltonian             ... done
Starting the Coulomb interaction                   ... done (   0.9 sec)
Reading the grid                                   ... done
Mapping shells                                     ... done
Starting the XC term evaluation                    ... done (   0.8 sec)
Transforming the Hamiltonian                       ... done (   0.4 sec)
Diagonalizing the Hamiltonian                      ... done (   0.7 sec)
Back transforming the eigenvectors                 ... done (   0.2 sec)
Now organizing SCF variables                       ... done
                      ------------------
                      INITIAL GUESS DONE (  18.1 sec)
                      ------------------
--------------
SCF ITERATIONS
--------------
ITER       Energy         Delta-E        Max-DP      RMS-DP      [F,P]     Damp
               ***  Starting incremental Fock matrix formation  ***
  0  -2156.6477309361   0.000000000000 0.03044043  0.00017830  0.3234104 0.8500
  1  -2157.0232056798  -0.375474743705 0.03893112  0.00020010  0.2605436 0.8500
                               ***Turning on DIIS***
  2  -2157.3243539555  -0.301148275705 0.03257336  0.00017041  0.2029978 0.8500
  3  -2164.4538998180  -7.129545862439 0.01855400  0.00011653  0.1573208 0.8500
  4  -2167.5845740498  -3.130674231877 0.00935315  0.00008193  0.1271211 0.8500
  5  -2167.5977892089  -0.013215159008 0.00699297  0.00006407  0.1064808 0.8500
  6  -2166.7474593391   0.850329869798 0.00599810  0.00005323  0.0905305 0.8500
  7  -2165.3386949781   1.408764360960 0.00511907  0.00004564  0.0773052 0.8500
  8  -2164.1845948882   1.154100089872 0.00435942  0.00003918  0.0656725 0.8500
  9  -2163.3011239768   0.883470911380 0.00370907  0.00003346  0.0555840 0.8500
 10  -2162.5980353499   0.703088626908 0.00315521  0.00002852  0.0470125 0.8500
 11  -2162.0159134784   0.582121871510 0.00268436  0.00002433  0.0397867 0.8500
 12  -2161.5221725570   0.493740921460 0.00228414  0.00002078  0.0336926 0.8500
 13  -2161.1014701694   0.420702387550 0.01295776  0.00011842  0.0285359 0.0000
                      *** Initiating the SOSCF procedure ***
                           *** Shutting down DIIS ***
                      *** Re-Reading the Fockian *** 
                      *** Removing any level shift *** 
ITER      Energy       Delta-E        Grad      Rot      Max-DP    RMS-DP
 14  -2158.78535702   2.3161131486  0.000206  0.000206  0.002009  0.000009
               *** Restarting incremental Fock matrix formation ***
 15  -2158.78372179   0.0016352343  0.000192  0.000478  0.001178  0.000006
 16  -2158.78373674  -0.0000149509  0.000082  0.000458  0.001720  0.000007
 17  -2158.78374107  -0.0000043375  0.000057  0.000106  0.000224  0.000001
 18  -2158.78374163  -0.0000005564  0.000022  0.000082  0.000040  0.000000
 19  -2158.78374172  -0.0000000881  0.000012  0.000082  0.000063  0.000000
 20  -2158.78374166   0.0000000617  0.000004  0.000017  0.000025  0.000000
                  ***Gradient check signals convergence***
              ***Rediagonalizing the Fockian in SOSCF/NRSCF***

               *****************************************************
               *                     SUCCESS                       *
               *           SCF CONVERGED AFTER  21 CYCLES          *
               *****************************************************


----------------
TOTAL SCF ENERGY
----------------

Total Energy       :        -2158.78374166 Eh          -58743.49207 eV

Components:
Nuclear Repulsion  :         6714.55818859 Eh          182712.41723 eV
Electronic Energy  :        -8873.34193025 Eh         -241455.90930 eV
One Electron Energy:       -16310.45427730 Eh         -443830.02477 eV
Two Electron Energy:         7437.11234705 Eh          202374.11546 eV

Virial components:
Potential Energy   :        -4315.26657468 Eh         -117424.37324 eV
Kinetic Energy     :         2156.48283302 Eh           58680.88116 eV
Virial Ratio       :            2.00106697


---------------
SCF CONVERGENCE
---------------

  Last Energy change         ...    1.0950e-09  Tolerance :   1.0000e-08
  Last MAX-Density change    ...    8.2177e-06  Tolerance :   1.0000e-07
  Last RMS-Density change    ...    5.1833e-08  Tolerance :   5.0000e-09
  Last Orbital Gradient      ...    2.2195e-06  Tolerance :   1.0000e-05
  Last Orbital Rotation      ...    6.3217e-06  Tolerance :   1.0000e-05

             **** THE GBW FILE WAS UPDATED (_o_3_alde1_6_ami4_2_opt_MP2.gbw) ****
             **** DENSITY FILE WAS UPDATED (_o_3_alde1_6_ami4_2_opt_MP2.scfp) ****
             **** ENERGY FILE WAS UPDATED (_o_3_alde1_6_ami4_2_opt_MP2.en.tmp) ****
             **** THE GBW FILE WAS UPDATED (_o_3_alde1_6_ami4_2_opt_MP2.gbw) ****
             **** DENSITY FILE WAS UPDATED (_o_3_alde1_6_ami4_2_opt_MP2.scfp) ****
----------------
ORBITAL ENERGIES
----------------

  NO   OCC          E(Eh)            E(eV) 
   0   2.0000     -15.563977      -423.5173 
   1   2.0000     -15.557897      -423.3519 
   2   2.0000     -15.557481      -423.3406 
   3   2.0000     -15.556803      -423.3221 
   4   2.0000     -15.556013      -423.3006 
   5   2.0000     -15.554754      -423.2664 
   6   2.0000     -15.554159      -423.2502 
   7   2.0000     -15.553117      -423.2218 
   8   2.0000     -15.552505      -423.2052 
   9   2.0000     -15.535161      -422.7332 
  10   2.0000     -15.531384      -422.6304 
  11   2.0000     -15.521678      -422.3663 
  12   2.0000     -11.291337      -307.2529 
  13   2.0000     -11.284066      -307.0550 
  14   2.0000     -11.282420      -307.0103 
  15   2.0000     -11.282360      -307.0086 
  16   2.0000     -11.281482      -306.9847 
  17   2.0000     -11.280535      -306.9590 
  18   2.0000     -11.279968      -306.9435 
  19   2.0000     -11.279892      -306.9415 
  20   2.0000     -11.277432      -306.8745 
  21   2.0000     -11.254836      -306.2597 
  22   2.0000     -11.254742      -306.2571 
  23   2.0000     -11.254459      -306.2494 
  24   2.0000     -11.253988      -306.2366 
  25   2.0000     -11.253883      -306.2337 
  26   2.0000     -11.253274      -306.2172 
  27   2.0000     -11.252396      -306.1933 
  28   2.0000     -11.252341      -306.1918 
  29   2.0000     -11.252138      -306.1863 
  30   2.0000     -11.251770      -306.1762 
  31   2.0000     -11.251295      -306.1633 
  32   2.0000     -11.250987      -306.1549 
  33   2.0000     -11.250297      -306.1361 
  34   2.0000     -11.249402      -306.1118 
  35   2.0000     -11.249173      -306.1056 
  36   2.0000     -11.248651      -306.0913 
  37   2.0000     -11.248476      -306.0866 
  38   2.0000     -11.248370      -306.0837 
  39   2.0000     -11.247762      -306.0672 
  40   2.0000     -11.247096      -306.0490 
  41   2.0000     -11.247036      -306.0474 
  42   2.0000     -11.246322      -306.0280 
  43   2.0000     -11.246209      -306.0249 
  44   2.0000     -11.245977      -306.0186 
  45   2.0000     -11.245745      -306.0123 
  46   2.0000     -11.245307      -306.0004 
  47   2.0000     -11.245128      -305.9955 
  48   2.0000     -11.244991      -305.9918 
  49   2.0000     -11.243053      -305.9390 
  50   2.0000     -11.240416      -305.8673 
  51   2.0000      -1.255231       -34.1566 
  52   2.0000      -1.252856       -34.0919 
  53   2.0000      -1.251973       -34.0679 
  54   2.0000      -1.248617       -33.9766 
  55   2.0000      -1.240901       -33.7666 
  56   2.0000      -1.239029       -33.7157 
  57   2.0000      -1.228592       -33.4317 
  58   2.0000      -1.227862       -33.4118 
  59   2.0000      -1.224691       -33.3255 
  60   2.0000      -1.180329       -32.1184 
  61   2.0000      -1.176819       -32.0229 
  62   2.0000      -1.171200       -31.8700 
  63   2.0000      -1.168337       -31.7921 
  64   2.0000      -1.163560       -31.6621 
  65   2.0000      -1.159379       -31.5483 
  66   2.0000      -1.071673       -29.1617 
  67   2.0000      -1.070629       -29.1333 
  68   2.0000      -1.065182       -28.9851 
  69   2.0000      -1.058419       -28.8011 
  70   2.0000      -1.055546       -28.7229 
  71   2.0000      -1.051512       -28.6131 
  72   2.0000      -1.011241       -27.5173 
  73   2.0000      -0.999372       -27.1943 
  74   2.0000      -0.998849       -27.1801 
  75   2.0000      -0.985259       -26.8103 
  76   2.0000      -0.981473       -26.7072 
  77   2.0000      -0.978788       -26.6342 
  78   2.0000      -0.912448       -24.8290 
  79   2.0000      -0.909797       -24.7568 
  80   2.0000      -0.909529       -24.7495 
  81   2.0000      -0.889501       -24.2045 
  82   2.0000      -0.888166       -24.1682 
  83   2.0000      -0.883945       -24.0534 
  84   2.0000      -0.870931       -23.6992 
  85   2.0000      -0.864404       -23.5216 
  86   2.0000      -0.850901       -23.1542 
  87   2.0000      -0.829978       -22.5849 
  88   2.0000      -0.827194       -22.5091 
  89   2.0000      -0.824043       -22.4234 
  90   2.0000      -0.811073       -22.0704 
  91   2.0000      -0.802315       -21.8321 
  92   2.0000      -0.790020       -21.4975 
  93   2.0000      -0.766239       -20.8504 
  94   2.0000      -0.755301       -20.5528 
  95   2.0000      -0.751888       -20.4599 
  96   2.0000      -0.748580       -20.3699 
  97   2.0000      -0.742412       -20.2021 
  98   2.0000      -0.737926       -20.0800 
  99   2.0000      -0.710522       -19.3343 
 100   2.0000      -0.709494       -19.3063 
 101   2.0000      -0.703052       -19.1310 
 102   2.0000      -0.692924       -18.8554 
 103   2.0000      -0.687883       -18.7183 
 104   2.0000      -0.685195       -18.6451 
 105   2.0000      -0.677033       -18.4230 
 106   2.0000      -0.673976       -18.3398 
 107   2.0000      -0.671780       -18.2801 
 108   2.0000      -0.667881       -18.1740 
 109   2.0000      -0.666242       -18.1294 
 110   2.0000      -0.661017       -17.9872 
 111   2.0000      -0.657823       -17.9003 
 112   2.0000      -0.654052       -17.7977 
 113   2.0000      -0.647154       -17.6100 
 114   2.0000      -0.644796       -17.5458 
 115   2.0000      -0.642007       -17.4699 
 116   2.0000      -0.634549       -17.2669 
 117   2.0000      -0.632410       -17.2088 
 118   2.0000      -0.626660       -17.0523 
 119   2.0000      -0.619757       -16.8644 
 120   2.0000      -0.617568       -16.8049 
 121   2.0000      -0.614967       -16.7341 
 122   2.0000      -0.614567       -16.7232 
 123   2.0000      -0.611005       -16.6263 
 124   2.0000      -0.606492       -16.5035 
 125   2.0000      -0.602658       -16.3992 
 126   2.0000      -0.600895       -16.3512 
 127   2.0000      -0.599006       -16.2998 
 128   2.0000      -0.597934       -16.2706 
 129   2.0000      -0.587815       -15.9952 
 130   2.0000      -0.585627       -15.9357 
 131   2.0000      -0.582222       -15.8431 
 132   2.0000      -0.567356       -15.4385 
 133   2.0000      -0.559709       -15.2304 
 134   2.0000      -0.554003       -15.0752 
 135   2.0000      -0.550734       -14.9862 
 136   2.0000      -0.548446       -14.9240 
 137   2.0000      -0.547415       -14.8959 
 138   2.0000      -0.544823       -14.8254 
 139   2.0000      -0.542166       -14.7531 
 140   2.0000      -0.538476       -14.6527 
 141   2.0000      -0.537649       -14.6302 
 142   2.0000      -0.535684       -14.5767 
 143   2.0000      -0.532907       -14.5011 
 144   2.0000      -0.531774       -14.4703 
 145   2.0000      -0.530287       -14.4298 
 146   2.0000      -0.528794       -14.3892 
 147   2.0000      -0.517313       -14.0768 
 148   2.0000      -0.512593       -13.9484 
 149   2.0000      -0.508065       -13.8252 
 150   2.0000      -0.503014       -13.6877 
 151   2.0000      -0.501817       -13.6551 
 152   2.0000      -0.499044       -13.5797 
 153   2.0000      -0.497045       -13.5253 
 154   2.0000      -0.491289       -13.3687 
 155   2.0000      -0.490348       -13.3430 
 156   2.0000      -0.463045       -12.6001 
 157   2.0000      -0.460578       -12.5330 
 158   2.0000      -0.457231       -12.4419 
 159   2.0000      -0.454178       -12.3588 
 160   2.0000      -0.451443       -12.2844 
 161   2.0000      -0.451015       -12.2727 
 162   2.0000      -0.427209       -11.6250 
 163   2.0000      -0.421116       -11.4591 
 164   2.0000      -0.414268       -11.2728 
 165   2.0000      -0.414034       -11.2664 
 166   2.0000      -0.412194       -11.2164 
 167   2.0000      -0.411285       -11.1916 
 168   2.0000      -0.409909       -11.1542 
 169   2.0000      -0.407833       -11.0977 
 170   2.0000      -0.406814       -11.0700 
 171   2.0000      -0.404666       -11.0115 
 172   2.0000      -0.400738       -10.9046 
 173   2.0000      -0.398714       -10.8496 
 174   2.0000      -0.388186       -10.5631 
 175   2.0000      -0.387390       -10.5414 
 176   2.0000      -0.367275        -9.9941 
 177   2.0000      -0.329784        -8.9739 
 178   2.0000      -0.329179        -8.9574 
 179   2.0000      -0.327115        -8.9012 
 180   2.0000      -0.324429        -8.8281 
 181   2.0000      -0.324062        -8.8182 
 182   2.0000      -0.319372        -8.6906 
 183   0.0000       0.064541         1.7562 
 184   0.0000       0.067717         1.8427 
 185   0.0000       0.069639         1.8950 
 186   0.0000       0.074248         2.0204 
 187   0.0000       0.076969         2.0944 
 188   0.0000       0.082029         2.2321 
 189   0.0000       0.120829         3.2879 
 190   0.0000       0.126287         3.4365 
 191   0.0000       0.127985         3.4827 
 192   0.0000       0.131470         3.5775 
 193   0.0000       0.133537         3.6337 
 194   0.0000       0.135370         3.6836 
 195   0.0000       0.142858         3.8874 
 196   0.0000       0.146165         3.9774 
 197   0.0000       0.156552         4.2600 
 198   0.0000       0.157772         4.2932 
 199   0.0000       0.159046         4.3279 
 200   0.0000       0.159569         4.3421 
 201   0.0000       0.164866         4.4862 
 202   0.0000       0.166616         4.5339 
 203   0.0000       0.166988         4.5440 
 204   0.0000       0.175588         4.7780 
 205   0.0000       0.178129         4.8471 
 206   0.0000       0.181949         4.9511 
 207   0.0000       0.186123         5.0647 
 208   0.0000       0.187494         5.1020 
 209   0.0000       0.189079         5.1451 
 210   0.0000       0.195929         5.3315 
 211   0.0000       0.197437         5.3725 
 212   0.0000       0.197782         5.3819 
 213   0.0000       0.203062         5.5256 
 214   0.0000       0.204832         5.5738 
 215   0.0000       0.205895         5.6027 
 216   0.0000       0.206728         5.6254 
 217   0.0000       0.209347         5.6966 
 218   0.0000       0.213038         5.7971 
 219   0.0000       0.215014         5.8508 
 220   0.0000       0.218752         5.9525 
 221   0.0000       0.219875         5.9831 
 222   0.0000       0.225698         6.1416 
 223   0.0000       0.227637         6.1943 
 224   0.0000       0.228201         6.2097 
 225   0.0000       0.233028         6.3410 
 226   0.0000       0.234523         6.3817 
 227   0.0000       0.239973         6.5300 
 228   0.0000       0.241100         6.5607 
 229   0.0000       0.243477         6.6253 
 230   0.0000       0.248914         6.7733 
 231   0.0000       0.250269         6.8102 
 232   0.0000       0.254154         6.9159 
 233   0.0000       0.257305         7.0016 
 234   0.0000       0.259809         7.0698 
 235   0.0000       0.264877         7.2077 
 236   0.0000       0.266147         7.2422 
 237   0.0000       0.269921         7.3449 
 238   0.0000       0.278099         7.5675 
 239   0.0000       0.281692         7.6652 
 240   0.0000       0.284258         7.7351 
 241   0.0000       0.285815         7.7774 
 242   0.0000       0.294372         8.0103 
 243   0.0000       0.295273         8.0348 
 244   0.0000       0.299728         8.1560 
 245   0.0000       0.303008         8.2453 
 246   0.0000       0.304427         8.2839 
 247   0.0000       0.309671         8.4266 
 248   0.0000       0.313049         8.5185 
 249   0.0000       0.316043         8.6000 
 250   0.0000       0.319838         8.7032 
 251   0.0000       0.322100         8.7648 
 252   0.0000       0.323501         8.8029 
 253   0.0000       0.325276         8.8512 
 254   0.0000       0.327219         8.9041 
 255   0.0000       0.328681         8.9439 
 256   0.0000       0.333214         9.0672 
 257   0.0000       0.336350         9.1525 
 258   0.0000       0.340006         9.2520 
 259   0.0000       0.341216         9.2849 
 260   0.0000       0.343854         9.3568 
 261   0.0000       0.346922         9.4402 
 262   0.0000       0.348894         9.4939 
 263   0.0000       0.353873         9.6294 
 264   0.0000       0.356669         9.7054 
 265   0.0000       0.363467         9.8904 
 266   0.0000       0.365524         9.9464 
 267   0.0000       0.367648        10.0042 
 268   0.0000       0.371469        10.1082 
 269   0.0000       0.373923        10.1750 
 270   0.0000       0.380532        10.3548 
 271   0.0000       0.383809        10.4440 
 272   0.0000       0.386415        10.5149 
 273   0.0000       0.390375        10.6226 
 274   0.0000       0.391588        10.6556 
 275   0.0000       0.395073        10.7505 
 276   0.0000       0.396178        10.7806 
 277   0.0000       0.399238        10.8638 
 278   0.0000       0.402866        10.9625 
 279   0.0000       0.405972        11.0471 
 280   0.0000       0.410212        11.1624 
 281   0.0000       0.413230        11.2446 
 282   0.0000       0.417347        11.3566 
 283   0.0000       0.419727        11.4213 
 284   0.0000       0.420601        11.4451 
 285   0.0000       0.423307        11.5188 
 286   0.0000       0.424722        11.5573 
 287   0.0000       0.425167        11.5694 
 288   0.0000       0.427097        11.6219 
 289   0.0000       0.429579        11.6894 
 290   0.0000       0.430526        11.7152 
 291   0.0000       0.436395        11.8749 
 292   0.0000       0.437849        11.9145 
 293   0.0000       0.441631        12.0174 
 294   0.0000       0.442527        12.0418 
 295   0.0000       0.443806        12.0766 
 296   0.0000       0.447684        12.1821 
 297   0.0000       0.453522        12.3410 
 298   0.0000       0.454545        12.3688 
 299   0.0000       0.455509        12.3950 
 300   0.0000       0.456450        12.4206 
 301   0.0000       0.458172        12.4675 
 302   0.0000       0.460603        12.5336 
 303   0.0000       0.463710        12.6182 
 304   0.0000       0.465524        12.6675 
 305   0.0000       0.469507        12.7759 
 306   0.0000       0.473719        12.8906 
 307   0.0000       0.475546        12.9403 
 308   0.0000       0.477833        13.0025 
 309   0.0000       0.479976        13.0608 
 310   0.0000       0.484559        13.1855 
 311   0.0000       0.485265        13.2047 
 312   0.0000       0.488775        13.3002 
 313   0.0000       0.492652        13.4057 
 314   0.0000       0.494413        13.4536 
 315   0.0000       0.496328        13.5058 
 316   0.0000       0.497418        13.5354 
 317   0.0000       0.498666        13.5694 
 318   0.0000       0.504036        13.7155 
 319   0.0000       0.508209        13.8291 
 320   0.0000       0.511775        13.9261 
 321   0.0000       0.513778        13.9806 
 322   0.0000       0.515524        14.0281 
 323   0.0000       0.516688        14.0598 
 324   0.0000       0.518047        14.0968 
 325   0.0000       0.520760        14.1706 
 326   0.0000       0.521767        14.1980 
 327   0.0000       0.524697        14.2777 
 328   0.0000       0.526278        14.3207 
 329   0.0000       0.527237        14.3468 
 330   0.0000       0.530625        14.4391 
 331   0.0000       0.532341        14.4857 
 332   0.0000       0.534779        14.5521 
 333   0.0000       0.536437        14.5972 
 334   0.0000       0.539390        14.6776 
 335   0.0000       0.542697        14.7675 
 336   0.0000       0.543932        14.8011 
 337   0.0000       0.545807        14.8522 
 338   0.0000       0.546830        14.8800 
 339   0.0000       0.548561        14.9271 
 340   0.0000       0.553178        15.0527 
 341   0.0000       0.555591        15.1184 
 342   0.0000       0.558859        15.2073 
 343   0.0000       0.559001        15.2112 
 344   0.0000       0.559738        15.2312 
 345   0.0000       0.562729        15.3126 
 346   0.0000       0.566271        15.4090 
 347   0.0000       0.568227        15.4622 
 348   0.0000       0.569077        15.4854 
 349   0.0000       0.569673        15.5016 
 350   0.0000       0.572800        15.5867 
 351   0.0000       0.575303        15.6548 
 352   0.0000       0.578286        15.7360 
 353   0.0000       0.580330        15.7916 
 354   0.0000       0.583812        15.8863 
 355   0.0000       0.586197        15.9512 
 356   0.0000       0.587298        15.9812 
 357   0.0000       0.588181        16.0052 
 358   0.0000       0.589354        16.0371 
 359   0.0000       0.592321        16.1179 
 360   0.0000       0.592763        16.1299 
 361   0.0000       0.595200        16.1962 
 362   0.0000       0.597283        16.2529 
 363   0.0000       0.600379        16.3371 
 364   0.0000       0.601651        16.3718 
 365   0.0000       0.602763        16.4020 
 366   0.0000       0.603140        16.4123 
 367   0.0000       0.606280        16.4977 
 368   0.0000       0.606849        16.5132 
 369   0.0000       0.608422        16.5560 
 370   0.0000       0.610052        16.6004 
 371   0.0000       0.611789        16.6476 
 372   0.0000       0.612220        16.6594 
 373   0.0000       0.614130        16.7113 
 374   0.0000       0.615984        16.7618 
 375   0.0000       0.616682        16.7808 
 376   0.0000       0.617644        16.8069 
 377   0.0000       0.618796        16.8383 
 378   0.0000       0.621237        16.9047 
 379   0.0000       0.624775        17.0010 
 380   0.0000       0.626232        17.0406 
 381   0.0000       0.627106        17.0644 
 382   0.0000       0.630505        17.1569 
 383   0.0000       0.631954        17.1963 
 384   0.0000       0.635301        17.2874 
 385   0.0000       0.636940        17.3320 
 386   0.0000       0.638059        17.3625 
 387   0.0000       0.641253        17.4494 
 388   0.0000       0.644252        17.5310 
 389   0.0000       0.644988        17.5510 
 390   0.0000       0.646281        17.5862 
 391   0.0000       0.648084        17.6353 
 392   0.0000       0.650222        17.6934 
 393   0.0000       0.653158        17.7733 
 394   0.0000       0.654523        17.8105 
 395   0.0000       0.655846        17.8465 
 396   0.0000       0.658662        17.9231 
 397   0.0000       0.661414        17.9980 
 398   0.0000       0.662998        18.0411 
 399   0.0000       0.667556        18.1651 
 400   0.0000       0.669104        18.2072 
 401   0.0000       0.671361        18.2687 
 402   0.0000       0.673501        18.3269 
 403   0.0000       0.676597        18.4111 
 404   0.0000       0.680418        18.5151 
 405   0.0000       0.681498        18.5445 
 406   0.0000       0.682150        18.5623 
 407   0.0000       0.683597        18.6016 
 408   0.0000       0.683998        18.6125 
 409   0.0000       0.687493        18.7076 
 410   0.0000       0.690976        18.8024 
 411   0.0000       0.692387        18.8408 
 412   0.0000       0.692965        18.8565 
 413   0.0000       0.696796        18.9608 
 414   0.0000       0.697151        18.9704 
 415   0.0000       0.699437        19.0327 
 416   0.0000       0.703123        19.1330 
 417   0.0000       0.705703        19.2031 
 418   0.0000       0.707678        19.2569 
 419   0.0000       0.709668        19.3110 
 420   0.0000       0.711301        19.3555 
 421   0.0000       0.712821        19.3968 
 422   0.0000       0.715804        19.4780 
 423   0.0000       0.717609        19.5271 
 424   0.0000       0.719407        19.5761 
 425   0.0000       0.722195        19.6519 
 426   0.0000       0.722716        19.6661 
 427   0.0000       0.726915        19.7804 
 428   0.0000       0.728550        19.8248 
 429   0.0000       0.730458        19.8768 
 430   0.0000       0.732480        19.9318 
 431   0.0000       0.736228        20.0338 
 432   0.0000       0.737088        20.0572 
 433   0.0000       0.738607        20.0985 
 434   0.0000       0.742102        20.1936 
 435   0.0000       0.743940        20.2436 
 436   0.0000       0.745955        20.2985 
 437   0.0000       0.748917        20.3791 
 438   0.0000       0.752457        20.4754 
 439   0.0000       0.753077        20.4923 
 440   0.0000       0.757296        20.6071 
 441   0.0000       0.759069        20.6553 
 442   0.0000       0.763539        20.7769 
 443   0.0000       0.764629        20.8066 
 444   0.0000       0.767192        20.8763 
 445   0.0000       0.767695        20.8901 
 446   0.0000       0.772140        21.0110 
 447   0.0000       0.774041        21.0627 
 448   0.0000       0.776993        21.1431 
 449   0.0000       0.777718        21.1628 
 450   0.0000       0.779147        21.2017 
 451   0.0000       0.782508        21.2931 
 452   0.0000       0.784117        21.3369 
 453   0.0000       0.787082        21.4176 
[...]
      dz2     :     0.008018  d :     0.028284
      dxz     :     0.007276
      dyz     :     0.007234
      dx2y2   :     0.003310
      dxy     :     0.002447
 96 H s       :     0.852974  s :     0.852974
      pz      :     0.060766  p :     0.148000
      px      :     0.032607
      py      :     0.054628
      dz2     :     0.008417  d :     0.028207
      dxz     :     0.005170
      dyz     :     0.006911
      dx2y2   :     0.004556
      dxy     :     0.003153
 97 H s       :     0.863310  s :     0.863310
      pz      :     0.066139  p :     0.146926
      px      :     0.043771
      py      :     0.037016
      dz2     :     0.009337  d :     0.028072
      dxz     :     0.006923
      dyz     :     0.007168
      dx2y2   :     0.003003
      dxy     :     0.001641
 98 H s       :     0.850614  s :     0.850614
      pz      :     0.033980  p :     0.148878
      px      :     0.076684
      py      :     0.038214
      dz2     :     0.002543  d :     0.028222
      dxz     :     0.008823
      dyz     :     0.000325
      dx2y2   :     0.007426
      dxy     :     0.009105


                      *****************************
                      * MAYER POPULATION ANALYSIS *
                      *****************************

  NA   - Mulliken gross atomic population
  ZA   - Total nuclear charge
  QA   - Mulliken gross atomic charge
  VA   - Mayer's total valence
  BVA  - Mayer's bonded valence
  FA   - Mayer's free valence

  ATOM       NA         ZA         QA         VA         BVA        FA
  0 C      5.8322     6.0000     0.1678     3.6111     3.6111    -0.0000
  1 C      6.0735     6.0000    -0.0735     4.0184     4.0184    -0.0000
  2 C      6.2133     6.0000    -0.2133     3.9483     3.9483    -0.0000
  3 C      5.8528     6.0000     0.1472     3.6284     3.6284    -0.0000
  4 H      0.8333     1.0000     0.1667     1.0037     1.0037    -0.0000
  5 C      6.1968     6.0000    -0.1968     3.9176     3.9176    -0.0000
  6 C      5.8035     6.0000     0.1965     3.5623     3.5623    -0.0000
  7 H      0.8419     1.0000     0.1581     1.0210     1.0210    -0.0000
  8 C      6.2269     6.0000    -0.2269     3.9232     3.9232    -0.0000
  9 C      6.0878     6.0000    -0.0878     4.0211     4.0211    -0.0000
 10 H      0.8388     1.0000     0.1612     1.0108     1.0108    -0.0000
 11 C      6.0890     6.0000    -0.0890     4.0070     4.0070    -0.0000
 12 H      0.9076     1.0000     0.0924     0.9995     0.9995    -0.0000
 13 H      0.9049     1.0000     0.0951     1.0020     1.0020    -0.0000
 14 H      0.8970     1.0000     0.1030     0.9965     0.9965    -0.0000
 15 C      5.8265     6.0000     0.1735     3.5793     3.5793    -0.0000
 16 C      6.1212     6.0000    -0.1212     3.9657     3.9657    -0.0000
 17 C      6.2435     6.0000    -0.2435     3.9461     3.9461    -0.0000
 18 C      5.8344     6.0000     0.1656     3.6185     3.6185    -0.0000
 19 H      0.8507     1.0000     0.1493     0.9904     0.9904    -0.0000
 20 C      6.2109     6.0000    -0.2109     3.9337     3.9337    -0.0000
 21 C      5.8159     6.0000     0.1841     3.5363     3.5363    -0.0000
 22 H      0.8429     1.0000     0.1571     1.0166     1.0166    -0.0000
 23 C      6.1872     6.0000    -0.1872     3.8908     3.8908    -0.0000
 24 C      6.0963     6.0000    -0.0963     4.0229     4.0229     0.0000
 25 H      0.8201     1.0000     0.1799     1.0347     1.0347    -0.0000
 26 C      6.0901     6.0000    -0.0901     4.0201     4.0201    -0.0000
 27 H      0.9075     1.0000     0.0925     0.9985     0.9985     0.0000
 28 H      0.8765     1.0000     0.1235     1.0070     1.0070    -0.0000
 29 H      0.9125     1.0000     0.0875     1.0005     1.0005    -0.0000
 30 C      5.8400     6.0000     0.1600     3.6185     3.6185    -0.0000
 31 C      6.1094     6.0000    -0.1094     4.0109     4.0109     0.0000
 32 C      6.1937     6.0000    -0.1937     3.9164     3.9164     0.0000
 33 C      5.8291     6.0000     0.1709     3.5935     3.5935    -0.0000
 34 H      0.8459     1.0000     0.1541     1.0189     1.0189    -0.0000
 35 C      6.2161     6.0000    -0.2161     3.9229     3.9229    -0.0000
 36 C      5.8158     6.0000     0.1842     3.5774     3.5774    -0.0000
 37 H      0.8418     1.0000     0.1582     1.0149     1.0149    -0.0000
 38 C      6.2106     6.0000    -0.2106     3.9333     3.9333    -0.0000
 39 C      6.0861     6.0000    -0.0861     4.0142     4.0142    -0.0000
 40 H      0.8468     1.0000     0.1532     1.0160     1.0160    -0.0000
 41 C      6.1046     6.0000    -0.1046     4.0270     4.0270    -0.0000
 42 H      0.9106     1.0000     0.0894     0.9980     0.9980    -0.0000
 43 H      0.8991     1.0000     0.1009     0.9859     0.9859    -0.0000
 44 H      0.8989     1.0000     0.1011     0.9954     0.9954    -0.0000
 45 C      6.0365     6.0000    -0.0365     3.9236     3.9236    -0.0000
 46 C      6.0855     6.0000    -0.0855     3.8036     3.8036    -0.0000
 47 N      7.3731     7.0000    -0.3731     3.0063     3.0063    -0.0000
 48 N      7.2814     7.0000    -0.2814     2.9660     2.9660    -0.0000
 49 C      6.0651     6.0000    -0.0651     3.9021     3.9021    -0.0000
 50 C      6.0607     6.0000    -0.0607     3.8985     3.8985    -0.0000
 51 N      7.4225     7.0000    -0.4225     2.9609     2.9609    -0.0000
 52 N      7.2638     7.0000    -0.2638     2.9689     2.9689    -0.0000
 53 C      6.1238     6.0000    -0.1238     3.9391     3.9391     0.0000
 54 C      6.0457     6.0000    -0.0457     3.8764     3.8764    -0.0000
 55 N      7.4187     7.0000    -0.4187     2.9590     2.9590    -0.0000
 56 N      7.2536     7.0000    -0.2536     2.9988     2.9988     0.0000
 57 C      6.0382     6.0000    -0.0382     3.8830     3.8830    -0.0000
 58 C      6.0386     6.0000    -0.0386     3.8822     3.8822    -0.0000
 59 N      7.2552     7.0000    -0.2552     2.9880     2.9880    -0.0000
 60 N      7.2459     7.0000    -0.2459     2.9845     2.9845    -0.0000
 61 C      6.0392     6.0000    -0.0392     3.8806     3.8806    -0.0000
 62 C      6.0409     6.0000    -0.0409     3.8768     3.8768    -0.0000
 63 N      7.2592     7.0000    -0.2592     2.9780     2.9780    -0.0000
 64 N      7.2566     7.0000    -0.2566     2.9872     2.9872    -0.0000
 65 C      6.0352     6.0000    -0.0352     3.8835     3.8835     0.0000
 66 C      6.0330     6.0000    -0.0330     3.8765     3.8765     0.0000
 67 N      7.2524     7.0000    -0.2524     2.9938     2.9938    -0.0000
 68 N      7.2573     7.0000    -0.2573     2.9845     2.9845    -0.0000
 69 H      0.8605     1.0000     0.1395     1.0103     1.0103     0.0000
 70 H      0.8124     1.0000     0.1876     1.0207     1.0207    -0.0000
 71 H      0.8669     1.0000     0.1331     1.0208     1.0208    -0.0000
 72 H      0.8508     1.0000     0.1492     1.0247     1.0247    -0.0000
 73 H      0.8116     1.0000     0.1884     1.0013     1.0013    -0.0000
 74 H      0.8448     1.0000     0.1552     1.0115     1.0115    -0.0000
 75 H      0.9388     1.0000     0.0612     0.9921     0.9921    -0.0000
 76 H      0.8992     1.0000     0.1008     0.9808     0.9808    -0.0000
 77 H      0.9390     1.0000     0.0610     0.9899     0.9899     0.0000
 78 H      0.8940     1.0000     0.1060     0.9818     0.9818    -0.0000
 79 H      0.8872     1.0000     0.1128     0.9809     0.9809    -0.0000
 80 H      0.9252     1.0000     0.0748     0.9931     0.9931    -0.0000
 81 H      0.9100     1.0000     0.0900     0.9819     0.9819     0.0000
 82 H      0.9236     1.0000     0.0764     0.9765     0.9765    -0.0000
 83 H      0.9379     1.0000     0.0621     0.9933     0.9933    -0.0000
 84 H      0.8969     1.0000     0.1031     0.9806     0.9806    -0.0000
 85 H      0.9333     1.0000     0.0667     0.9918     0.9918    -0.0000
 86 H      0.8938     1.0000     0.1062     0.9811     0.9811     0.0000
 87 H      0.9098     1.0000     0.0902     0.9893     0.9893    -0.0000
 88 H      0.9045     1.0000     0.0955     0.9848     0.9848    -0.0000
 89 H      0.9177     1.0000     0.0823     0.9778     0.9778    -0.0000
 90 H      0.9124     1.0000     0.0876     0.9867     0.9867     0.0000
 91 H      0.8897     1.0000     0.1103     0.9807     0.9807     0.0000
 92 H      0.9096     1.0000     0.0904     0.9788     0.9788    -0.0000
 93 H      0.9054     1.0000     0.0946     0.9797     0.9797    -0.0000
 94 H      0.9023     1.0000     0.0977     0.9559     0.9559    -0.0000
 95 H      0.9325     1.0000     0.0675     0.9889     0.9889    -0.0000
 96 H      0.8908     1.0000     0.1092     0.9816     0.9816    -0.0000
 97 H      0.9381     1.0000     0.0619     0.9908     0.9908    -0.0000
 98 H      0.8957     1.0000     0.1043     0.9814     0.9814    -0.0000

  Mayer bond orders larger than 0.100000
B(  0-C ,  1-C ) :   0.9958 B(  0-C ,  2-C ) :   1.3019 B(  0-C ,  8-C ) :   1.3876 
B(  1-C , 13-H ) :   0.9924 B(  1-C , 48-N ) :   1.9789 B(  2-C ,  3-C ) :   1.4097 
B(  2-C ,  4-H ) :   0.9598 B(  3-C ,  5-C ) :   1.3000 B(  3-C , 11-C ) :   0.9890 
B(  5-C ,  6-C ) :   1.3887 B(  5-C ,  7-H ) :   0.9620 B(  6-C ,  8-C ) :   1.2878 
B(  6-C ,  9-C ) :   0.9833 B(  8-C , 10-H ) :   0.9638 B(  9-C , 12-H ) :   0.9924 
B(  9-C , 63-N ) :   1.9820 B( 11-C , 14-H ) :   0.9906 B( 11-C , 59-N ) :   1.9800 
B( 15-C , 16-C ) :   0.9781 B( 15-C , 17-C ) :   1.3408 B( 15-C , 23-C ) :   1.3431 
B( 16-C , 28-H ) :   0.9831 B( 16-C , 52-N ) :   1.9654 B( 17-C , 18-C ) :   1.3736 
B( 17-C , 19-H ) :   0.9736 B( 18-C , 20-C ) :   1.3347 B( 18-C , 26-C ) :   0.9886 
B( 20-C , 21-C ) :   1.3537 B( 20-C , 22-H ) :   0.9649 B( 21-C , 23-C ) :   1.3106 
B( 21-C , 24-C ) :   0.9819 B( 23-C , 25-H ) :   0.9469 B( 24-C , 27-H ) :   0.9903 
B( 24-C , 60-N ) :   1.9939 B( 26-C , 29-H ) :   0.9949 B( 26-C , 67-N ) :   1.9860 
B( 30-C , 31-C ) :   0.9973 B( 30-C , 32-C ) :   1.3077 B( 30-C , 38-C ) :   1.3866 
B( 31-C , 43-H ) :   0.9829 B( 31-C , 56-N ) :   1.9832 B( 32-C , 33-C ) :   1.3868 
B( 32-C , 34-H ) :   0.9619 B( 33-C , 35-C ) :   1.2953 B( 33-C , 41-C ) :   0.9928 
B( 35-C , 36-C ) :   1.3876 B( 35-C , 37-H ) :   0.9659 B( 36-C , 38-C ) :   1.3050 
B( 36-C , 39-C ) :   0.9783 B( 38-C , 40-H ) :   0.9668 B( 39-C , 42-H ) :   0.9891 
B( 39-C , 68-N ) :   1.9928 B( 41-C , 44-H ) :   0.9928 B( 41-C , 64-N ) :   1.9790 
B( 45-C , 46-C ) :   0.9484 B( 45-C , 47-N ) :   1.0026 B( 45-C , 87-H ) :   0.9860 
B( 45-C , 88-H ) :   0.9904 B( 46-C , 48-N ) :   0.9342 B( 46-C , 89-H ) :   0.9681 
B( 46-C , 90-H ) :   0.9789 B( 47-N , 71-H ) :   1.0038 B( 47-N , 72-H ) :   0.9998 
B( 49-C , 50-C ) :   0.9591 B( 49-C , 51-N ) :   0.9767 B( 49-C , 81-H ) :   0.9824 
B( 49-C , 82-H ) :   0.9763 B( 50-C , 52-N ) :   0.9668 B( 50-C , 79-H ) :   0.9839 
B( 50-C , 80-H ) :   0.9754 B( 51-N , 73-H ) :   0.9634 B( 51-N , 74-H ) :   0.9705 
B( 53-C , 54-C ) :   0.9577 B( 53-C , 55-N ) :   1.0043 B( 53-C , 91-H ) :   0.9872 
B( 53-C , 92-H ) :   0.9859 B( 54-C , 56-N ) :   0.9842 B( 54-C , 93-H ) :   0.9709 
B( 54-C , 94-H ) :   0.9703 B( 55-N , 69-H ) :   0.9974 B( 55-N , 70-H ) :   0.9466 
B( 57-C , 58-C ) :   0.9392 B( 57-C , 59-N ) :   0.9679 B( 57-C , 85-H ) :   0.9751 
B( 57-C , 86-H ) :   0.9842 B( 58-C , 60-N ) :   0.9709 B( 58-C , 83-H ) :   0.9740 
B( 58-C , 84-H ) :   0.9789 B( 61-C , 62-C ) :   0.9313 B( 61-C , 63-N ) :   0.9696 
B( 61-C , 97-H ) :   0.9734 B( 61-C , 98-H ) :   0.9815 B( 62-C , 64-N ) :   0.9664 
B( 62-C , 95-H ) :   0.9757 B( 62-C , 96-H ) :   0.9873 B( 65-C , 66-C ) :   0.9386 
B( 65-C , 67-N ) :   0.9686 B( 65-C , 77-H ) :   0.9765 B( 65-C , 78-H ) :   0.9856 
B( 66-C , 68-N ) :   0.9693 B( 66-C , 75-H ) :   0.9747 B( 66-C , 76-H ) :   0.9785 


-------
TIMINGS
-------

Total SCF time: 0 days 0 hours 41 min 28 sec 

Total time                  ....    2488.478 sec
Sum of individual times     ....    2468.978 sec  ( 99.2%)

Fock matrix formation       ....    2346.283 sec  ( 94.3%)
Diagonalization             ....      16.480 sec  (  0.7%)
Density matrix formation    ....       1.011 sec  (  0.0%)
Population analysis         ....       8.742 sec  (  0.4%)
Initial guess               ....       3.209 sec  (  0.1%)
Orbital Transformation      ....       0.000 sec  (  0.0%)
Orbital Orthonormalization  ....       0.000 sec  (  0.0%)
DIIS solution               ....      70.258 sec  (  2.8%)
SOSCF solution              ....       8.087 sec  (  0.3%)


           ************************************************************
           *        Program running with 32 parallel MPI-processes    *
           *              working on a common directory               *
           ************************************************************

------------------------------------------------------------------------------
                                ORCA  MP2 
------------------------------------------------------------------------------

Freezing NCore=102 chemical core electrons

-------------
RI-MP2 ENERGY
-------------
Dimension of the basis                    ... 2202
Memory devoted to MP2                     ... 3000 MB   
Data format for buffers                   ... DOUBLE
Compression type for matrix containers    ... UNCOMPRESSED
Overall scaling of the MP2 energy         ...   1.000e+00
Calculating two index integrals           ... done (    0.353 sec)
Cholesky decomposition of V**-1           ... done (    6.109 sec)

-----------------
RI-TRANSFORMATION (AUX index driven)
-----------------

Dimension of the orbital-basis         ... 2202
Dimension of the aux-basis             ... 5571
Transformation of internal/external MOs...   51- 182 to  183-2201
Number Format for Storage              ... Double (8 Byte)
Integral mode                          ... Direct

First Phase: integral generation and transformation of MO indices
  Aux angular momentum 0               ... done (    5.888 sec)
  Aux angular momentum 1               ... done (   12.797 sec)
  Aux angular momentum 2               ... done (   15.395 sec)
  Aux angular momentum 3               ... done (   13.568 sec)
  Aux angular momentum 4               ... done (    4.978 sec)
Closing buffer VIA (11.06 GB; CompressionRatio= 1.00)
  Phase 1 completed in    55.038 sec
Second Phase: sorting and transformation of aux index

IA-Transformation
Memory available                       ... 2377 MB 
Max. # MO pairs treated in a batch     ... 5    
# of internal orbitals                 ... 132
# batches for internal orbitals        ... 1
Closing buffer IAV ( 0.42 GB; CompressionRatio= 1.00)
(ia|v) transformation done in    66.125 sec

  Phase 2 completed in    81.155 sec
RI-Integral transformation completed in   136.212 sec
Opening buffers                              ... done

Starting loop over batches of integrals:

Operator 0  - window                       ... ( 51-182)x(183-2201)
Operator 0  - Memory available             ...  3000 MB
Operator 0  - Memory needed per MO         ...  85.8 MB
Operator 0  - Number of orbitals per batch ... 5
Operator 0  - Number of batches            ... 1

OPERATOR  0   PASS   0:  MOs    51 ...   55 +   56 ...   60 +   61 ...   65 +   66 ...   70
                            +   71 ...   75 +   76 ...   80 +   81 ...   85 +   86 ...   90
                            +   91 ...   95 +   96 ...  100 +  101 ...  105 +  106 ...  110
                            +  111 ...  115 +  116 ...  120 +  121 ...  125 +  126 ...  130
                            +  131 ...  135 +  136 ...  140 +  141 ...  145 +  146 ...  150
                            +  151 ...  155 +  156 ...  160 +  161 ...  165 +  166 ...  170
                            +  171 ...  175 +  176 ...  180 +  181 ...  182
  Reading integrals       ... ok
  Internal MO  53
Time spent in pair loops =    68.988 sec
Deleting buffer (Ka|jb)[aa] ...done

-----------------------------------------------
 RI-MP2 CORRELATION ENERGY:     -8.728949264 Eh
-----------------------------------------------


-------
TIMINGS
-------

Total time                : 3078.353 sec
Integral trafo            :  136.216 sec (  4.4%)
I/O of integrals          :    0.246 sec (  0.0%)
K(i,j) Operators          :   67.977 sec (  2.2%)
T(i,j) pair energies      :    0.518 sec (  0.0%)
V-calculation             :    0.353 sec (  0.0%)
V**(-1/2)                 :    6.109 sec (  0.2%)
Gamma(ia|P)               :    0.000 sec (  0.0%)
Gamma-Trafo               :    0.000 sec (  0.0%)
D(virtual)                :    0.000 sec (  0.0%)
D(internal)               :    0.000 sec (  0.0%)
W(virtual)                :    0.000 sec (  0.0%)
W(internal)               :    0.000 sec (  0.0%)
L(virtual)                :    0.000 sec (  0.0%)
L(internal)               :    0.000 sec (  0.0%)
G(D)                      :    0.000 sec (  0.0%)
G(Z)                      :    0.000 sec (  0.0%)
Z-Vector Solution         :    0.000 sec (  0.0%)
3-Index Derivative        :    0.000 sec (  0.0%)
2-Index Derivative        :    0.000 sec (  0.0%)
Separable Gradient        :    0.000 sec (  0.0%)


---------------------------------------
MP2 TOTAL ENERGY:    -2167.512690920 Eh
---------------------------------------

-------------------------   --------------------
FINAL SINGLE POINT ENERGY     -2167.512690920323
-------------------------   --------------------


                            ***************************************
                            *     ORCA property calculations      *
                            ***************************************


  WARNING: The energy has been calculated at the MP2 level but the densities
           used in the property calculations are still SCF densities
           MP2 response densities have not been calculated 
           use %mp2 Density relaxed end
           or  %mp2 Density unrelaxed end

                                    ---------------------
                                    Active property flags
                                    ---------------------
   (+) Dipole Moment


------------------------------------------------------------------------------
                       ORCA ELECTRIC PROPERTIES CALCULATION
------------------------------------------------------------------------------

Dipole Moment Calculation                       ... on
Quadrupole Moment Calculation                   ... off
Polarizability Calculation                      ... off
GBWName                                         ... _o_3_alde1_6_ami4_2_opt_MP2.gbw
Electron density file                           ... _o_3_alde1_6_ami4_2_opt_MP2.scfp
The origin for moment calculation is the CENTER OF MASS  = ( 0.063495,  0.107575 -1.240697)

-------------
DIPOLE MOMENT
-------------
                                X             Y             Z
Electronic contribution:      2.92760       6.95187     -28.18364
Nuclear contribution   :     -3.06187      -6.18008      27.78403
                        -----------------------------------------
Total Dipole Moment    :     -0.13427       0.77179      -0.39961
                        -----------------------------------------
Magnitude (a.u.)       :      0.87942
Magnitude (Debye)      :      2.23530



--------------------
Rotational spectrum 
--------------------
 
Rotational constants in cm-1:     0.001736     0.001588     0.001369 
Rotational constants in MHz :    52.052727    47.609458    41.030808 

 Dipole components along the rotational axes: 
x,y,z [a.u.] :     0.614275    -0.591924     0.213693 
x,y,z [Debye]:     1.561363    -1.504551     0.543165 

 

Timings for individual modules:

Sum of individual times         ...     6145.366 sec (= 102.423 min)
GTO integral calculation        ...      137.513 sec (=   2.292 min)   2.2 %
SCF iterations                  ...     2567.681 sec (=  42.795 min)  41.8 %
MP2 module                      ...     3440.173 sec (=  57.336 min)  56.0 %
                             ****ORCA TERMINATED NORMALLY****
TOTAL RUN TIME: 0 days 1 hours 45 minutes 41 seconds 770 msec
