Job execution start: Thu Mar 10 22:06:56 GMT 2022
Shared library path: /work/e05/e05/atarzia/orca_4_2_1_linux_x86-64_openmpi314:/work/e05/e05/atarzia/openmpi-3.1.4/lib:/opt/cray/pe/papi/6.0.0.6/lib64:/opt/cray/libfabric/1.11.0.4.71/lib64
Slurm Job ID is: 1234931
Slurm Job name is: o_3_alde1_5_ami4_1_opt_MP2
nid004083

                                 *****************
                                 * O   R   C   A *
                                 *****************

           --- An Ab Initio, DFT and Semiempirical electronic structure package ---

                  #######################################################
                  #                        -***-                        #
                  #          Department of theory and spectroscopy      #
                  #               Directorship: Frank Neese             #
                  #        Max Planck Institute fuer Kohlenforschung    #
                  #                Kaiser Wilhelm Platz 1               #
                  #                 D-45470 Muelheim/Ruhr               #
                  #                      Germany                        #
                  #                                                     #
                  #                  All rights reserved                #
                  #                        -***-                        #
                  #######################################################


                         Program Version 4.2.1 -  RELEASE  -


 With contributions from (in alphabetic order):
   Daniel Aravena         : Magnetic Suceptibility
   Michael Atanasov       : Ab Initio Ligand Field Theory (pilot matlab implementation)
   Alexander A. Auer      : GIAO ZORA, VPT2
   Ute Becker             : Parallelization
   Giovanni Bistoni       : ED, misc. LED, open-shell LED, HFLD
   Martin Brehm           : Molecular dynamics
   Dmytro Bykov           : SCF Hessian
   Vijay G. Chilkuri      : MRCI spin determinant printing, contributions to CSF-ICE
   Dipayan Datta          : RHF DLPNO-CCSD density
   Achintya Kumar Dutta   : EOM-CC, STEOM-CC
   Dmitry Ganyushin       : Spin-Orbit,Spin-Spin,Magnetic field MRCI
   Miquel Garcia          : C-PCM Hessian, Gaussian charge scheme
   Yang Guo               : DLPNO-NEVPT2, CIM, IAO-localization
   Andreas Hansen         : Spin unrestricted coupled pair/coupled cluster methods
   Benjamin Helmich-Paris : CASSCF linear response (MC-RPA)
   Lee Huntington         : MR-EOM, pCC
   Robert Izsak           : Overlap fitted RIJCOSX, COSX-SCS-MP3, EOM
   Christian Kollmar      : KDIIS, OOCD, Brueckner-CCSD(T), CCSD density
   Simone Kossmann        : Meta GGA functionals, TD-DFT gradient, OOMP2, MP2 Hessian
   Martin Krupicka        : AUTO-CI
   Lucas Lang             : DCDCAS
   Dagmar Lenk            : GEPOL surface, SMD
   Dimitrios Liakos       : Extrapolation schemes; Compound Job, initial MDCI parallelization
   Dimitrios Manganas     : Further ROCIS development; embedding schemes
   Dimitrios Pantazis     : SARC Basis sets
   Taras Petrenko         : DFT Hessian,TD-DFT gradient, ASA, ECA, R-Raman, ABS, FL, XAS/XES, NRVS
   Peter Pinski           : DLPNO-MP2, DLPNO-MP2 Gradient
   Christoph Reimann      : Effective Core Potentials
   Marius Retegan         : Local ZFS, SOC
   Christoph Riplinger    : Optimizer, TS searches, QM/MM, DLPNO-CCSD(T), (RO)-DLPNO pert. Triples
   Tobias Risthaus        : Range-separated hybrids, TD-DFT gradient, RPA, STAB
   Michael Roemelt        : Original ROCIS implementation
   Masaaki Saitow         : Open-shell DLPNO-CCSD energy and density
   Barbara Sandhoefer     : DKH picture change effects
   Avijit Sen             : IP-ROCIS
   Kantharuban Sivalingam : CASSCF convergence, NEVPT2, FIC-MRCI
   Bernardo de Souza      : ESD, SOC TD-DFT
   Georgi Stoychev        : AutoAux, RI-MP2 NMR
   Willem Van den Heuvel  : Paramagnetic NMR
   Boris Wezisla          : Elementary symmetry handling
   Frank Wennmohs         : Technical directorship


 We gratefully acknowledge several colleagues who have allowed us to
 interface, adapt or use parts of their codes:
   Stefan Grimme, W. Hujo, H. Kruse,             : VdW corrections, initial TS optimization,
                  C. Bannwarth                     DFT functionals, gCP, sTDA/sTD-DF
   Ed Valeev, F. Pavosevic, A. Kumar             : LibInt (2-el integral package), F12 methods
   Garnet Chan, S. Sharma, J. Yang, R. Olivares  : DMRG
   Ulf Ekstrom                                   : XCFun DFT Library
   Mihaly Kallay                                 : mrcc  (arbitrary order and MRCC methods)
   Andreas Klamt, Michael Diedenhofen            : otool_cosmo (COSMO solvation model)
   Jiri Pittner, Ondrej Demel                    : Mk-CCSD
   Frank Weinhold                                : gennbo (NPA and NBO analysis)
   Christopher J. Cramer and Donald G. Truhlar   : smd solvation model
   Lars Goerigk                                  : TD-DFT with DH, B97 family of functionals
   V. Asgeirsson, H. Jonsson                     : NEB implementation
   FAccTs GmbH                                   : IRC, NEB, NEB-TS, Multilevel, MM, QM/MM, CI optimization
   S Lehtola, MJT Oliveira, MAL Marques          : LibXC Library


 Your calculation uses the libint2 library for the computation of 2-el integrals
 For citations please refer to: http://libint.valeyev.net

 Your ORCA version has been built with support for libXC version: 4.2.3
 For citations please refer to: https://tddft.org/programs/libxc/

 This ORCA versions uses:
   CBLAS   interface :  Fast vector & matrix operations
   LAPACKE interface :  Fast linear algebra routines
   SCALAPACK package :  Parallel linear algebra routines




***************************************
The coordinates will be read from file: _o_3_alde1_5_ami4_1_opt_B97-3c.xyz
***************************************


----- Orbital basis set information -----
Your calculation utilizes the basis: cc-pVTZ 
       H, B-Ne : Obtained from the ccRepo (grant-hill.group.shef.ac.uk/ccrepo) Feb. 2017
                 T. H. Dunning, Jr., J. Chem. Phys. 90, 1007 (1989)
            He : Obtained from the ccRepo (grant-hill.group.shef.ac.uk/ccrepo) Feb. 2017
                 D. E. Woon, T. H. Dunning, Jr., J. Chem. Phys. 100, 2975 (1994)
  Li-Be, Na-Mg : Obtained from the ccRepo (grant-hill.group.shef.ac.uk/ccrepo) Feb. 2017
                 B. P. Prascher, D. E. Woon, K. A. Peterson, T. H. Dunning, Jr., A. K. Wilson, Theor. Chem. Acc. 128, 69 (2011)
         Al-Ar : Obtained from the ccRepo (grant-hill.group.shef.ac.uk/ccrepo) Feb. 2017
                 D. E. Woon, T. H. Dunning, Jr., J. Chem. Phys. 98, 1358 (1993)
            Ca : Obtained from the Peterson Research Group Website (tyr0.chem.wsu.edu/~kipeters) Feb. 2017
                 J. Koput, K. A. Peterson, J. Phys. Chem. 106, 9595 (2002)
         Sc-Zn : Obtained from the ccRepo (grant-hill.group.shef.ac.uk/ccrepo) Feb. 2017
                 N. B. Balabanov, K. A. Peterson, J. Chem. Phys. 123, 064107 (2005)
                 N. B. Balabanov, K. A. Peterson, J. Chem. Phys. 125, 074110 (2006)
         Ga-Kr : Obtained from the ccRepo (grant-hill.group.shef.ac.uk/ccrepo) Feb. 2017
                 A. K. Wilson, D. E. Woon, K. A. Peterson, T. H. Dunning, Jr., J. Chem. Phys. 110, 7667 (1999)
             Y : Obtained from the ccRepo (grant-hill.group.shef.ac.uk/ccrepo) Feb. 2017
                 K. A. Peterson, D. Figgen, M. Dolg, H. Stoll, J. Chem. Phys. 126, 124101 (2007)
        Ag, Au : Obtained from the Peterson Research Group Website (tyr0.chem.wsu.edu/~kipeters) Feb. 2017
                 K. A. Peterson, C. Puzzarini, Theor. Chem. Acc. 114, 283 (2005)

----- AuxC basis set information -----
Your calculation utilizes the auxiliary basis: cc-pVTZ/C 
  Obtained from the EMSL Basis Set Exchange (bse.pnl.gov) Feb. 2017
  H-He, B-F, Al-Ar, Ga-Kr : F. Weigend, A. Kohn, C. Hattig, J. Chem. Phys. 116, 3175 (2002)
             Li-Be, Na-Mg : C. Haettig, Phys. Chem. Chem. Phys. 7, 59 (2005)
                       Ne : C. Haettig, Phys. Chem. Chem. Phys. 7, 59 (2005)
                            F. Weigend, A. Kohn, C. Hattig, J. Chem. Phys. 116, 3175 (2002)
                    Sc-Zn : J. G. Hill, J. A. Platts, J. Chem. Phys. 128, 044104 (2008)

================================================================================
                                        WARNINGS
                       Please study these warnings very carefully!
================================================================================


WARNING: No MP2 level density has been requested!
         To caclulate MP2 level properties use
         %mp2 Density relaxed end
         or
         %mp2 Density unrelaxed end

WARNING: Post HF methods need fully converged wavefunctions
  ===> : Setting SCFConvForced true
         You can overwrite this default with %scf ConvForced false 


INFO   : the flag for use of LIBINT has been found!

================================================================================
                                       INPUT FILE
================================================================================
NAME = o_3_alde1_5_ami4_1_opt_MP2.in
|  1> ! RI-MP2 cc-pVTZ cc-pVTZ/C TIGHTSCF printbasis Grid6 NOFINALGRID SlowConv
|  2> 
|  3> %base "_o_3_alde1_5_ami4_1_opt_MP2"
|  4> %maxcore 3000
|  5> %pal
|  6>    nprocs 32
|  7> end
|  8> 
|  9> * xyzfile 0 1 _o_3_alde1_5_ami4_1_opt_B97-3c.xyz
| 10> 
| 11>                          ****END OF INPUT****
================================================================================

                       ****************************
                       * Single Point Calculation *
                       ****************************

---------------------------------
CARTESIAN COORDINATES (ANGSTROEM)
---------------------------------
  C     -4.081540   -1.673352   -0.684354
  C     -4.951654   -0.727316    0.009078
  C     -3.665982   -2.875914   -0.103686
  C     -2.778889   -3.710021   -0.770162
  H     -4.042954   -3.137574    0.876279
  C     -2.244032   -3.302995   -1.996205
  C     -2.616432   -2.095016   -2.567398
  H     -1.503832   -3.933084   -2.469438
  C     -3.567748   -1.303480   -1.919518
  C     -1.912551   -1.605850   -3.750816
  H     -3.847583   -0.361182   -2.370138
  C     -2.329270   -4.959978   -0.155236
  H     -1.000917   -2.160355   -4.014762
  H     -5.273726    0.128353   -0.598799
  H     -2.427908   -5.017928    0.938165
  C      2.406603   -1.983780   -2.587931
  C      2.483631   -1.172366   -3.855120
  C      2.902812   -1.478279   -1.401427
  C      2.829357   -2.222435   -0.219552
  H      3.310183   -0.479434   -1.378639
  C      2.246622   -3.482015   -0.237938
  C      1.771736   -4.021747   -1.433574
  H      2.146272   -4.062576    0.669729
  C      1.854295   -3.260779   -2.598748
  C      1.131764   -5.331584   -1.485350
  H      1.469479   -3.666731   -3.527871
  C      3.285140   -1.645163    1.043136
  H      0.778574   -5.636599   -2.480248
  H      2.886138   -2.113552    1.954505
  C     -1.647732    1.616660    0.874458
  C     -2.732804    1.415759    1.834697
  C     -1.918767    1.761519   -0.488422
  C     -0.889946    1.798871   -1.420997
  H     -2.951793    1.792108   -0.806558
  C      0.435875    1.762962   -0.976542
  C      0.722001    1.676125    0.380185
  H      1.242068    1.781132   -1.697109
  C     -0.327528    1.570888    1.298397
  C      2.118115    1.667930    0.813077
  H     -0.085502    1.454481    2.346628
  C     -1.258235    1.800054   -2.833000
  H      2.854909    1.784156    0.009112
  H     -2.316264    2.014055   -3.026675
  C     -4.955122    1.230678    2.506925
  C     -5.964317    0.313663    1.799949
  N     -3.950739    1.641517    1.558975
  H     -4.532733    0.717435    3.379910
  N     -5.271040   -0.822153    1.235599
  H     -6.490881    0.903348    1.039419
  C      3.887440   -0.231701   -5.411500
  C      3.298885    0.930022   -4.600712
  N      3.739731   -1.413247   -4.560893
  H      4.928026   -0.088001   -5.693483
  N      2.419050    0.278262   -3.625692
  H      2.753955    1.637206   -5.229959
  C     -1.255805   -7.033146   -0.144806
  C      0.166031   -7.266772   -0.667245
  N     -1.821614   -5.901975   -0.835380
  H     -1.239107   -6.904613    0.944668
  N      0.952709   -6.073412   -0.468580
  H      0.102023   -7.558704   -1.723454
  C     -1.393615   -0.059444   -5.413240
  C     -1.074278    1.409873   -5.103760
  N     -2.270661   -0.571266   -4.393275
  H     -0.462884   -0.634457   -5.505445
  N     -0.469384    1.520850   -3.792872
  H     -2.003225    1.985896   -5.178172
  C      4.317396   -0.026630    2.366352
  C      3.888608    1.443836    2.287830
  N      4.060880   -0.642102    1.092389
  H      3.801428   -0.522382    3.198800
  N      2.469956    1.529403    2.027060
  H      4.488197    1.931318    1.510037
  H     -2.429328    1.000531    2.806214
  H      1.466512    0.627540   -3.686491
  H      1.671886   -1.503590   -4.520257
  H      4.482325   -1.421746   -3.868903
  H     -5.497442    2.111317    2.858301
  H     -6.691707   -0.031013    2.535044
  H      3.313569   -0.389733   -6.326151
  H      4.088955    1.490100   -4.092698
  H     -1.846189   -7.923339   -0.374951
  H      0.610191   -8.091342   -0.108078
  H     -1.906464   -0.089180   -6.377065
  H     -0.378007    1.781325   -5.855937
  H      5.391055   -0.048686    2.565413
  H      4.105626    1.922104    3.243202

----------------------------
CARTESIAN COORDINATES (A.U.)
----------------------------
  NO LB      ZA    FRAG     MASS         X           Y           Z
   0 C     6.0000    0    12.011   -7.712994   -3.162177   -1.293241
   1 C     6.0000    0    12.011   -9.357270   -1.374429    0.017155
   2 C     6.0000    0    12.011   -6.927701   -5.434690   -0.195937
   3 C     6.0000    0    12.011   -5.251339   -7.010923   -1.455395
   4 H     1.0000    0     1.008   -7.640075   -5.929155    1.655927
   5 C     6.0000    0    12.011   -4.240605   -6.241756   -3.772280
   6 C     6.0000    0    12.011   -4.944341   -3.959007   -4.851679
   7 H     1.0000    0     1.008   -2.841831   -7.432451   -4.666561
   8 C     6.0000    0    12.011   -6.742066   -2.463220   -3.627363
   9 C     6.0000    0    12.011   -3.614198   -3.034617   -7.088016
  10 H     1.0000    0     1.008   -7.270877   -0.682535   -4.478912
  11 C     6.0000    0    12.011   -4.401682   -9.372999   -0.293353
  12 H     1.0000    0     1.008   -1.891459   -4.082479   -7.586800
  13 H     1.0000    0     1.008   -9.965897    0.242551   -1.131566
  14 H     1.0000    0     1.008   -4.588081   -9.482509    1.772875
  15 C     6.0000    0    12.011    4.547820   -3.748802   -4.890481
  16 C     6.0000    0    12.011    4.693383   -2.215451   -7.285121
  17 C     6.0000    0    12.011    5.485520   -2.793543   -2.648314
  18 C     6.0000    0    12.011    5.346709   -4.199794   -0.414893
  19 H     1.0000    0     1.008    6.255339   -0.905998   -2.605250
  20 C     6.0000    0    12.011    4.245501   -6.580055   -0.449638
  21 C     6.0000    0    12.011    3.348095   -7.600000   -2.709062
  22 H     1.0000    0     1.008    4.055867   -7.677157    1.265603
  23 C     6.0000    0    12.011    3.504109   -6.161980   -4.910921
  24 C     6.0000    0    12.011    2.138724  -10.075234   -2.806905
  25 H     1.0000    0     1.008    2.776914   -6.929117   -6.666710
  26 C     6.0000    0    12.011    6.208016   -3.108907    1.971242
  27 H     1.0000    0     1.008    1.471291  -10.651628   -4.686989
  28 H     1.0000    0     1.008    5.454011   -3.994035    3.693479
  29 C     6.0000    0    12.011   -3.113762    3.055045    1.652487
  30 C     6.0000    0    12.011   -5.164251    2.675397    3.467076
  31 C     6.0000    0    12.011   -3.625944    3.328789   -0.922983
  32 C     6.0000    0    12.011   -1.681754    3.399373   -2.685296
  33 H     1.0000    0     1.008   -5.578080    3.386593   -1.524173
  34 C     6.0000    0    12.011    0.823685    3.331515   -1.845396
  35 C     6.0000    0    12.011    1.364384    3.167418    0.718446
  36 H     1.0000    0     1.008    2.347169    3.365852   -3.207071
  37 C     6.0000    0    12.011   -0.618938    2.968548    2.453614
  38 C     6.0000    0    12.011    4.002657    3.151931    1.536492
  39 H     1.0000    0     1.008   -0.161576    2.748571    4.434485
  40 C     6.0000    0    12.011   -2.377719    3.401610   -5.353595
  41 H     1.0000    0     1.008    5.394997    3.371566    0.017220
  42 H     1.0000    0     1.008   -4.377105    3.806012   -5.719586
  43 C     6.0000    0    12.011   -9.363823    2.325645    4.737402
  44 C     6.0000    0    12.011  -11.270926    0.592737    3.401410
  45 N     7.0000    0    14.007   -7.465814    3.102018    2.946035
  46 H     1.0000    0     1.008   -8.565624    1.355756    6.387104
  47 N     7.0000    0    14.007   -9.960822   -1.553645    2.334944
  48 H     1.0000    0     1.008  -12.265988    1.707081    1.964218
  49 C     6.0000    0    12.011    7.346197   -0.437851  -10.226253
  50 C     6.0000    0    12.011    6.233990    1.757486   -8.694086
  51 N     7.0000    0    14.007    7.067067   -2.670650   -8.618839
  52 H     1.0000    0     1.008    9.312619   -0.166297  -10.759124
  53 N     7.0000    0    14.007    4.571343    0.525838   -6.851564
  54 H     1.0000    0     1.008    5.204221    3.093872   -9.883191
  55 C     6.0000    0    12.011   -2.373128  -13.290721   -0.273643
  56 C     6.0000    0    12.011    0.313753  -13.732209   -1.260910
  57 N     7.0000    0    14.007   -3.442351  -11.153116   -1.578639
  58 H     1.0000    0     1.008   -2.341573  -13.047828    1.785164
  59 N     7.0000    0    14.007    1.800359  -11.477086   -0.885488
  60 H     1.0000    0     1.008    0.192795  -14.283880   -3.256857
  61 C     6.0000    0    12.011   -2.633551   -0.112333  -10.229542
  62 C     6.0000    0    12.011   -2.030091    2.664273   -9.644708
  63 N     7.0000    0    14.007   -4.290927   -1.079537   -8.302087
  64 H     1.0000    0     1.008   -0.874725   -1.198949  -10.403783
  65 N     7.0000    0    14.007   -0.887008    2.873990   -7.167490
  66 H     1.0000    0     1.008   -3.785547    3.752800   -9.785328
  67 C     6.0000    0    12.011    8.158696   -0.050324    4.471758
  68 C     6.0000    0    12.011    7.348403    2.728455    4.323372
  69 N     7.0000    0    14.007    7.673951   -1.213396    2.064316
  70 H     1.0000    0     1.008    7.183659   -0.987160    6.044856
  71 N     7.0000    0    14.007    4.667540    2.890153    3.830589
  72 H     1.0000    0     1.008    8.481464    3.649663    2.853556
  73 H     1.0000    0     1.008   -4.590765    1.890730    5.302977
  74 H     1.0000    0     1.008    2.771306    1.185879   -6.966458
  75 H     1.0000    0     1.008    3.159406   -2.841373   -8.542047
  76 H     1.0000    0     1.008    8.470367   -2.686711   -7.311167
  77 H     1.0000    0     1.008  -10.388659    3.989810    5.401406
  78 H     1.0000    0     1.008  -12.645493   -0.058605    4.790538
  79 H     1.0000    0     1.008    6.261738   -0.736488  -11.954692
  80 H     1.0000    0     1.008    7.727006    2.815882   -7.734077
  81 H     1.0000    0     1.008   -3.488792  -14.972940   -0.708554
  82 H     1.0000    0     1.008    1.153094  -15.290421   -0.204238
  83 H     1.0000    0     1.008   -3.602696   -0.168527  -12.050907
  84 H     1.0000    0     1.008   -0.714330    3.366217  -11.066117
  85 H     1.0000    0     1.008   10.187618   -0.092003    4.847929
  86 H     1.0000    0     1.008    7.758509    3.632251    6.128764

--------------------------------
INTERNAL COORDINATES (ANGSTROEM)
--------------------------------
 C      0   0   0     0.000000000000     0.00000000     0.00000000
 C      1   0   0     1.460454909518     0.00000000     0.00000000
 C      1   2   0     1.398578015580   122.47105665     0.00000000
 C      3   1   2     1.388113258668   120.47861693   183.61272593
 H      3   1   2     1.082083220323   118.71217987     3.11598149
 C      4   3   1     1.398185537752   119.37722492     3.57659369
 C      6   4   3     1.387139563880   120.78997195   358.30201483
 H      6   4   3     1.081136914626   118.42908023   175.89583486
 C      1   2   3     1.387954918725   118.06429519   185.36408099
 C      7   6   4     1.461236568521   119.71536680   171.63424318
 H      9   1   2     1.081338013825   120.48248769   357.04875353
 C      4   3   1     1.463790636289   120.51132077   179.16014633
 H     10   7   6     1.099190248241   115.15734718   349.84898690
 H      2   1   3     1.097913570724   114.62846055   185.46145849
 H     12   4   3     1.099369551705   115.80208483   339.01154290
 C     13  10   7     3.698406839243   130.34678541   280.68185187
 C     16  13  10     1.506683063535    75.42445519   259.40613748
 C     16  13  10     1.381863858968   132.80956459    17.62897979
 C     18  16  13     1.398568133596   120.80305717    81.25796313
 H     18  16  13     1.078963471120   119.49572109   264.10159281
 C     19  18  16     1.387969566379   119.58554273   359.76852685
 C     21  19  18     1.395124136247   120.35446360     1.88552161
 H     21  19  18     1.082118404344   120.97738665   182.18669103
 C     16  13  10     1.391361682553    65.63475711   125.45739551
 C     22  21  19     1.458738756908   121.81195503   181.15031934
 H     24  16  13     1.084504267405   119.41056988    53.43596934
 C     19  18  16     1.461288794343   120.24060346   183.65228901
 H     25  22  21     1.098908166386   114.98414755   178.59730281
 H     27  19  18     1.099629083372   115.76694652   159.16623215
 C      2   1   3     4.142343641323    89.45806707   101.47994579
 C     30   2   1     1.462806231692    57.84474325   218.81591330
 C     30   2   1     1.397099353745    72.55109455    72.72589166
 C     32  30   2     1.389088047689   120.93187829   220.75991163
 H     32  30   2     1.081336760711   118.37656559    37.61171219
 C     33  32  30     1.398796327606   119.20899428   356.53248891
 C     35  33  32     1.389286494490   120.47130705     0.70348648
 H     35  33  32     1.081431779651   119.63344082   179.35610337
 C     30   2   1     1.387355752880   143.52918516   317.12956830
 C     36  35  33     1.461709752767   119.09591847   181.22742312
 H     38  30   2     1.082089130293   120.82383679   280.40105099
 C     33  32  30     1.459242959683   117.56271702   173.23222420
 H     39  36  35     1.096691759620   115.08644389     2.94871342
 H     41  33  32     1.096691617151   114.48950101    14.07388992
 C     31  30   2     2.329128861474   155.24820856   317.74708016
 C     44  31  30     1.535971671538   122.78624090    50.36521842
 N     31  30   2     1.268997874510   123.01547050   306.29697706
 H     44  31  30     1.097238977107    84.23187531   160.31949741
 N      2   1   3     1.270966218043   124.02695575     9.00710577
 H     45  44  31     1.096997673192   108.27379600   266.74050994
 C     17  16  13     2.297356838722   145.23812128   196.92314612
 C     50  17  16     1.534070412612    73.59557248   251.26066458
 N     17  16  13     1.460795933042   111.19243604   220.22685373
 H     50  17  16     1.087650105693   144.52299605   359.47675960
 N     51  50  17     1.466139913863   104.18595273     0.15334576
 H     51  50  17     1.092250629125   112.16240849   239.03743542
 C     12   4   3     2.334623164763   154.34235614   170.25135906
 C     56  12   4     1.532690700128   124.08217560    49.43491747
 N     12   4   3     1.267939194866   122.14353144   160.99783358
 H     56  12   4     1.097156911067    84.68695249   160.04755069
 N     25  22  21     1.271294765582   123.87352847     0.22835929
 H     57  56  12     1.097679311259   108.32643030   267.89654303
 C     10   7   6     2.329016911929   155.18689571   186.13025761
 C     62  10   7     1.535137385587   122.54462372    49.24374411
 N     10   7   6     1.269393690086   123.15011186   173.76266629
 H     62  10   7     1.097907535388    84.32329100   159.37128777
 N     41  33  32     1.273418500248   124.94923831   197.26291841
 H     63  62  10     1.095574759810   108.24954725   267.12237716
 C     27  19  18     2.331544116497   154.51826303   351.57336858
 C     68  27  19     1.533720089726   120.84561568    54.30073550
 N     27  19  18     1.268987389774   122.44337950   341.17298259
 H     68  27  19     1.097707506162    84.76555874   164.38770209
 N     39  36  35     1.271510331395   123.20656786   183.34701590
 H     69  68  27     1.096407438666   108.04176647   270.74650657
 H     31  30   2     1.099252883764   115.29316131   123.14133570
 H     54  51  50     1.016376505494   111.70711794   236.47096410
 H     17  16  13     1.100475851018   107.97076123   337.33716517
 H     52  17  16     1.015070921759   107.52196490   316.90985190
 H     44  31  30     1.092290979072   120.16603705   268.03904613
 H     45  44  31     1.090074031180   108.47062971   149.19373917
 H     50  17  16     1.091277785132   100.78857942   142.82363473
 H     51  50  17     1.093607547935   110.86565473   119.18012541
 H     56  12   4     1.092685811739   118.29891908   267.91005561
 H     57  56  12     1.090807807004   108.55569445   150.36272882
 H     62  10   7     1.092180053693   120.47744978   266.98603545
 H     63  62  10     1.090201951309   108.65523978   149.60721605
 H     68  27  19     1.092179837356   121.64443659   272.73576643
 H     69  68  27     1.090217122325   108.66784360   153.17942521

---------------------------
INTERNAL COORDINATES (A.U.)
---------------------------
 C      0   0   0     0.000000000000     0.00000000     0.00000000
 C      1   0   0     2.759859809931     0.00000000     0.00000000
 C      1   2   0     2.642929426369   122.47105665     0.00000000
 C      3   1   2     2.623153901748   120.47861693   183.61272593
 H      3   1   2     2.044840940522   118.71217987     3.11598149
 C      4   3   1     2.642187750761   119.37722492     3.57659369
 C      6   4   3     2.621313885261   120.78997195   358.30201483
 H      6   4   3     2.043052681915   118.42908023   175.89583486
 C      1   2   3     2.622854682620   118.06429519   185.36408099
 C      7   6   4     2.761336931375   119.71536680   171.63424318
 H      9   1   2     2.043432704328   120.48248769   357.04875353
 C      4   3   1     2.766163419984   120.51132077   179.16014633
 H     10   7   6     2.077168538252   115.15734718   349.84898690
 H      2   1   3     2.074755967385   114.62846055   185.46145849
 H     12   4   3     2.077507372695   115.80208483   339.01154290
 C     13  10   7     6.988976057990   130.34678541   280.68185187
 C     16  13  10     2.847218360698    75.42445519   259.40613748
 C     16  13  10     2.611344247814   132.80956459    17.62897979
 C     18  16  13     2.642910752126   120.80305717    81.25796313
 H     18  16  13     2.038945468922   119.49572109   264.10159281
 C     19  18  16     2.622882362674   119.58554273   359.76852685
 C     21  19  18     2.636402540329   120.35446360     1.88552161
 H     21  19  18     2.044907428687   120.97738665   182.18669103
 C     16  13  10     2.629292533258    65.63475711   125.45739551
 C     22  21  19     2.756616751492   121.81195503   181.15031934
 H     24  16  13     2.049416056464   119.41056988    53.43596934
 C     19  18  16     2.761435623877   120.24060346   183.65228901
 H     25  22  21     2.076635480799   114.98414755   178.59730281
 H     27  19  18     2.077997816468   115.76694652   159.16623215
 C      2   1   3     7.827895034690    89.45806707   101.47994579
 C     30   2   1     2.764303164891    57.84474325   218.81591330
 C     30   2   1     2.640135160457    72.55109455    72.72589166
 C     32  30   2     2.624995986035   120.93187829   220.75991163
 H     32  30   2     2.043430336285   118.37656559    37.61171219
 C     33  32  30     2.643341976309   119.20899428   356.53248891
 C     35  33  32     2.625370996142   120.47130705     0.70348648
 H     35  33  32     2.043609896059   119.63344082   179.35610337
 C     30   2   1     2.621722423263   143.52918516   317.12956830
 C     36  35  33     2.762231120011   119.09591847   181.22742312
 H     38  30   2     2.044852108746   120.82383679   280.40105099
 C     33  32  30     2.757569556653   117.56271702   173.23222420
 H     39  36  35     2.072447079010   115.08644389     2.94871342
 H     41  33  32     2.072446809782   114.48950101    14.07388992
 C     31  30   2     4.401415678798   155.24820856   317.74708016
 C     44  31  30     2.902565808667   122.78624090    50.36521842
 N     31  30   2     2.398058447353   123.01547050   306.29697706
 H     44  31  30     2.073481170196    84.23187531   160.31949741
 N      2   1   3     2.401778077568   124.02695575     9.00710577
 H     45  44  31     2.073025171882   108.27379600   266.74050994
 C     17  16  13     4.341375257076   145.23812128   196.92314612
 C     50  17  16     2.898972949989    73.59557248   251.26066458
 N     17  16  13     2.760504250994   111.19243604   220.22685373
 H     50  17  16     2.055360829290   144.52299605   359.47675960
 N     51  50  17     2.770602911213   104.18595273     0.15334576
 H     51  50  17     2.064054558650   112.16240849   239.03743542
 C     12   4   3     4.411798407310   154.34235614   170.25135906
 C     56  12   4     2.896365671251   124.08217560    49.43491747
 N     12   4   3     2.396057832760   122.14353144   160.99783358
 H     56  12   4     2.073326087857    84.68695249   160.04755069
 N     25  22  21     2.402398942437   123.87352847     0.22835929
 H     57  56  12     2.074313281151   108.32643030   267.89654303
 C     10   7   6     4.401204124817   155.18689571   186.13025761
 C     62  10   7     2.900989236703   122.54462372    49.24374411
 N     10   7   6     2.398806430391   123.15011186   173.76266629
 H     62  10   7     2.074744562251    84.32329100   159.37128777
 N     41  33  32     2.406412219338   124.94923831   197.26291841
 H     63  62  10     2.070336255277   108.24954725   267.12237716
 C     27  19  18     4.405979849335   154.51826303   351.57336858
 C     68  27  19     2.898310935674   120.84561568    54.30073550
 N     27  19  18     2.398038634073   122.44337950   341.17298259
 H     68  27  19     2.074366561795    84.76555874   164.38770209
 N     39  36  35     2.402806302788   123.20656786   183.34701590
 H     69  68  27     2.071909790273   108.04176647   270.74650657
 H     31  30   2     2.077286902237   115.29316131   123.14133570
 H     54  51  50     1.920673244335   111.70711794   236.47096410
 H     17  16  13     2.079597975418   107.97076123   337.33716517
 H     52  17  16     1.918206048631   107.52196490   316.90985190
 H     44  31  30     2.064130808998   120.16603705   268.03904613
 H     45  44  31     2.059941384629   108.47062971   149.19373917
 H     50  17  16     2.062216149932   100.78857942   142.82363473
 H     51  50  17     2.066618763586   110.86565473   119.18012541
 H     56  12   4     2.064876934608   118.29891908   267.91005561
 H     57  56  12     2.061328019980   108.55569445   150.36272882
 H     62  10   7     2.063921190411   120.47744978   266.98603545
 H     63  62  10     2.060183118641   108.65523978   149.60721605
 H     68  27  19     2.063920781594   121.64443659   272.73576643
 H     69  68  27     2.060211787705   108.66784360   153.17942521

---------------------
BASIS SET INFORMATION
---------------------
There are 3 groups of distinct atoms

 Group   1 Type C   : 18s5p2d1f contracted to 4s3p2d1f pattern {8811/311/11/1}
 Group   2 Type H   : 5s2p1d contracted to 3s2p1d pattern {311/11/1}
 Group   3 Type N   : 18s5p2d1f contracted to 4s3p2d1f pattern {8811/311/11/1}

Atom   0C    basis set group =>   1
Atom   1C    basis set group =>   1
Atom   2C    basis set group =>   1
Atom   3C    basis set group =>   1
Atom   4H    basis set group =>   2
Atom   5C    basis set group =>   1
Atom   6C    basis set group =>   1
Atom   7H    basis set group =>   2
Atom   8C    basis set group =>   1
Atom   9C    basis set group =>   1
Atom  10H    basis set group =>   2
Atom  11C    basis set group =>   1
Atom  12H    basis set group =>   2
Atom  13H    basis set group =>   2
Atom  14H    basis set group =>   2
Atom  15C    basis set group =>   1
Atom  16C    basis set group =>   1
Atom  17C    basis set group =>   1
Atom  18C    basis set group =>   1
Atom  19H    basis set group =>   2
Atom  20C    basis set group =>   1
Atom  21C    basis set group =>   1
Atom  22H    basis set group =>   2
Atom  23C    basis set group =>   1
Atom  24C    basis set group =>   1
Atom  25H    basis set group =>   2
Atom  26C    basis set group =>   1
Atom  27H    basis set group =>   2
Atom  28H    basis set group =>   2
Atom  29C    basis set group =>   1
Atom  30C    basis set group =>   1
Atom  31C    basis set group =>   1
Atom  32C    basis set group =>   1
Atom  33H    basis set group =>   2
Atom  34C    basis set group =>   1
Atom  35C    basis set group =>   1
Atom  36H    basis set group =>   2
Atom  37C    basis set group =>   1
Atom  38C    basis set group =>   1
Atom  39H    basis set group =>   2
Atom  40C    basis set group =>   1
Atom  41H    basis set group =>   2
Atom  42H    basis set group =>   2
Atom  43C    basis set group =>   1
Atom  44C    basis set group =>   1
Atom  45N    basis set group =>   3
Atom  46H    basis set group =>   2
Atom  47N    basis set group =>   3
Atom  48H    basis set group =>   2
Atom  49C    basis set group =>   1
Atom  50C    basis set group =>   1
Atom  51N    basis set group =>   3
Atom  52H    basis set group =>   2
Atom  53N    basis set group =>   3
Atom  54H    basis set group =>   2
Atom  55C    basis set group =>   1
Atom  56C    basis set group =>   1
Atom  57N    basis set group =>   3
Atom  58H    basis set group =>   2
Atom  59N    basis set group =>   3
Atom  60H    basis set group =>   2
Atom  61C    basis set group =>   1
Atom  62C    basis set group =>   1
Atom  63N    basis set group =>   3
Atom  64H    basis set group =>   2
Atom  65N    basis set group =>   3
Atom  66H    basis set group =>   2
Atom  67C    basis set group =>   1
Atom  68C    basis set group =>   1
Atom  69N    basis set group =>   3
Atom  70H    basis set group =>   2
Atom  71N    basis set group =>   3
Atom  72H    basis set group =>   2
Atom  73H    basis set group =>   2
Atom  74H    basis set group =>   2
Atom  75H    basis set group =>   2
Atom  76H    basis set group =>   2
Atom  77H    basis set group =>   2
Atom  78H    basis set group =>   2
Atom  79H    basis set group =>   2
Atom  80H    basis set group =>   2
Atom  81H    basis set group =>   2
Atom  82H    basis set group =>   2
Atom  83H    basis set group =>   2
Atom  84H    basis set group =>   2
Atom  85H    basis set group =>   2
Atom  86H    basis set group =>   2

-------------------------
BASIS SET IN INPUT FORMAT
-------------------------

 # Basis set for element : H 
 NewGTO H 
 S 3 
   1      33.8700000000      0.0254948632
   2       5.0950000000      0.1903627659
   3       1.1590000000      0.8521620222
 S 1 
   1       0.3258000000      1.0000000000
 S 1 
   1       0.1027000000      1.0000000000
 P 1 
   1       1.4070000000      1.0000000000
 P 1 
   1       0.3880000000      1.0000000000
 D 1 
   1       1.0570000000      1.0000000000
  end;

 # Basis set for element : C 
 NewGTO C 
 S 8 
   1    8236.0000000000      0.0005424302
   2    1235.0000000000      0.0041964279
   3     280.8000000000      0.0215409141
   4      79.2700000000      0.0836149496
   5      25.5900000000      0.2398716189
   6       8.9970000000      0.4437518201
   7       3.3190000000      0.3535796965
   8       0.3643000000     -0.0091763661
 S 8 
   1    8236.0000000000     -0.0001963922
   2    1235.0000000000     -0.0015259503
   3     280.8000000000     -0.0078904490
   4      79.2700000000     -0.0315148705
   5      25.5900000000     -0.0969100083
   6       8.9970000000     -0.2205415263
   7       3.3190000000     -0.2960691129
   8       0.3643000000      1.0405034329
 S 1 
   1       0.9059000000      1.0000000000
 S 1 
   1       0.1285000000      1.0000000000
 P 3 
   1      18.7100000000      0.0394263872
   2       4.1330000000      0.2440889849
   3       1.2000000000      0.8154920089
 P 1 
   1       0.3827000000      1.0000000000
 P 1 
   1       0.1209000000      1.0000000000
 D 1 
   1       1.0970000000      1.0000000000
 D 1 
   1       0.3180000000      1.0000000000
 F 1 
   1       0.7610000000      1.0000000000
  end;

 # Basis set for element : N 
 NewGTO N 
 S 8 
   1   11420.0000000000      0.0005349809
   2    1712.0000000000      0.0041376631
   3     389.3000000000      0.0212509149
   4     110.0000000000      0.0825762988
   5      35.5700000000      0.2384132727
   6      12.5400000000      0.4434316661
   7       4.6440000000      0.3554319088
   8       0.5118000000     -0.0087029018
 S 8 
   1   11420.0000000000     -0.0001987770
   2    1712.0000000000     -0.0015470035
   3     389.3000000000     -0.0079925633
   4     110.0000000000     -0.0320255651
   5      35.5700000000     -0.0991102048
   6      12.5400000000     -0.2282927747
   7       4.6440000000     -0.2981827627
   8       0.5118000000      1.0370005182
 S 1 
   1       1.2930000000      1.0000000000
 S 1 
   1       0.1787000000      1.0000000000
 P 3 
   1      26.6300000000      0.0398072123
   2       5.9480000000      0.2490026605
   3       1.7420000000      0.8104797267
 P 1 
   1       0.5550000000      1.0000000000
 P 1 
   1       0.1725000000      1.0000000000
 D 1 
   1       1.6540000000      1.0000000000
 D 1 
   1       0.4690000000      1.0000000000
 F 1 
   1       1.0930000000      1.0000000000
  end;

---------------------------------
AUXILIARY/C BASIS SET INFORMATION
---------------------------------
There are 3 groups of distinct atoms

 Group   1 Type C   : 8s6p5d3f1g contracted to 8s6p5d3f1g pattern {11111111/111111/11111/111/1}
 Group   2 Type H   : 4s3p2d1f contracted to 4s3p2d1f pattern {1111/111/11/1}
 Group   3 Type N   : 8s6p5d3f1g contracted to 8s6p5d3f1g pattern {11111111/111111/11111/111/1}

Atom   0C    basis set group =>   1
Atom   1C    basis set group =>   1
Atom   2C    basis set group =>   1
Atom   3C    basis set group =>   1
Atom   4H    basis set group =>   2
Atom   5C    basis set group =>   1
Atom   6C    basis set group =>   1
Atom   7H    basis set group =>   2
Atom   8C    basis set group =>   1
Atom   9C    basis set group =>   1
Atom  10H    basis set group =>   2
Atom  11C    basis set group =>   1
Atom  12H    basis set group =>   2
Atom  13H    basis set group =>   2
Atom  14H    basis set group =>   2
Atom  15C    basis set group =>   1
Atom  16C    basis set group =>   1
Atom  17C    basis set group =>   1
Atom  18C    basis set group =>   1
Atom  19H    basis set group =>   2
Atom  20C    basis set group =>   1
Atom  21C    basis set group =>   1
Atom  22H    basis set group =>   2
Atom  23C    basis set group =>   1
Atom  24C    basis set group =>   1
Atom  25H    basis set group =>   2
Atom  26C    basis set group =>   1
Atom  27H    basis set group =>   2
Atom  28H    basis set group =>   2
Atom  29C    basis set group =>   1
Atom  30C    basis set group =>   1
Atom  31C    basis set group =>   1
Atom  32C    basis set group =>   1
Atom  33H    basis set group =>   2
Atom  34C    basis set group =>   1
Atom  35C    basis set group =>   1
Atom  36H    basis set group =>   2
Atom  37C    basis set group =>   1
Atom  38C    basis set group =>   1
Atom  39H    basis set group =>   2
Atom  40C    basis set group =>   1
Atom  41H    basis set group =>   2
Atom  42H    basis set group =>   2
Atom  43C    basis set group =>   1
Atom  44C    basis set group =>   1
Atom  45N    basis set group =>   3
Atom  46H    basis set group =>   2
Atom  47N    basis set group =>   3
Atom  48H    basis set group =>   2
Atom  49C    basis set group =>   1
Atom  50C    basis set group =>   1
Atom  51N    basis set group =>   3
Atom  52H    basis set group =>   2
Atom  53N    basis set group =>   3
Atom  54H    basis set group =>   2
Atom  55C    basis set group =>   1
Atom  56C    basis set group =>   1
Atom  57N    basis set group =>   3
Atom  58H    basis set group =>   2
Atom  59N    basis set group =>   3
Atom  60H    basis set group =>   2
Atom  61C    basis set group =>   1
Atom  62C    basis set group =>   1
Atom  63N    basis set group =>   3
Atom  64H    basis set group =>   2
Atom  65N    basis set group =>   3
Atom  66H    basis set group =>   2
Atom  67C    basis set group =>   1
Atom  68C    basis set group =>   1
Atom  69N    basis set group =>   3
Atom  70H    basis set group =>   2
Atom  71N    basis set group =>   3
Atom  72H    basis set group =>   2
Atom  73H    basis set group =>   2
Atom  74H    basis set group =>   2
Atom  75H    basis set group =>   2
Atom  76H    basis set group =>   2
Atom  77H    basis set group =>   2
Atom  78H    basis set group =>   2
Atom  79H    basis set group =>   2
Atom  80H    basis set group =>   2
Atom  81H    basis set group =>   2
Atom  82H    basis set group =>   2
Atom  83H    basis set group =>   2
Atom  84H    basis set group =>   2
Atom  85H    basis set group =>   2
Atom  86H    basis set group =>   2

-------------------------------------
AUXILIARY/C BASIS SET IN INPUT FORMAT
-------------------------------------

 # Auxiliary/C basis set for element : H 
 NewAuxCGTO H 
 S 1 
   1       8.5128275910      1.0000000000
 S 1 
   1       1.8730891166      1.0000000000
 S 1 
   1       0.5261842694      1.0000000000
 S 1 
   1       0.2897398994      1.0000000000
 P 1 
   1       2.3725491635      1.0000000000
 P 1 
   1       1.1804084468      1.0000000000
 P 1 
   1       0.6038220424      1.0000000000
 D 1 
   1       1.8096373189      1.0000000000
 D 1 
   1       1.1439726055      1.0000000000
 F 1 
   1       1.8063060576      1.0000000000
  end;

 # Auxiliary/C basis set for element : C 
 NewAuxCGTO C 
 S 1 
   1     280.5566118800      1.0000000000
 S 1 
   1      60.2302471910      1.0000000000
 S 1 
   1      22.1166508240      1.0000000000
 S 1 
   1       6.8620932896      1.0000000000
 S 1 
   1       1.5622549539      1.0000000000
 S 1 
   1       0.9124504549      1.0000000000
 S 1 
   1       0.5027491704      1.0000000000
 S 1 
   1       0.2158234875      1.0000000000
 P 1 
   1      24.2318651760      1.0000000000
 P 1 
   1       6.4764514185      1.0000000000
 P 1 
   1       2.1290884677      1.0000000000
 P 1 
   1       1.0375639746      1.0000000000
 P 1 
   1       0.5494127505      1.0000000000
 P 1 
   1       0.2815265223      1.0000000000
 D 1 
   1       9.7189810815      1.0000000000
 D 1 
   1       3.0351475003      1.0000000000
 D 1 
   1       1.4677737562      1.0000000000
 D 1 
   1       0.5737082791      1.0000000000
 D 1 
   1       0.2905558967      1.0000000000
 F 1 
   1       2.2756201303      1.0000000000
 F 1 
   1       1.1968898852      1.0000000000
 F 1 
   1       0.5415748722      1.0000000000
 G 1 
   1       1.2166101638      1.0000000000
  end;

 # Auxiliary/C basis set for element : N 
 NewAuxCGTO N 
 S 1 
   1     287.5092694700      1.0000000000
 S 1 
   1      64.2760308980      1.0000000000
 S 1 
   1      21.6819240160      1.0000000000
 S 1 
   1       7.9068743193      1.0000000000
 S 1 
   1       2.4319673913      1.0000000000
 S 1 
   1       1.2226681474      1.0000000000
 S 1 
   1       0.7667482736      1.0000000000
 S 1 
   1       0.3115884699      1.0000000000
 P 1 
   1      34.9650273710      1.0000000000
 P 1 
   1      10.3238966480      1.0000000000
 P 1 
   1       2.8981582643      1.0000000000
 P 1 
   1       1.4077404555      1.0000000000
 P 1 
   1       0.8508338654      1.0000000000
 P 1 
   1       0.3735327414      1.0000000000
 D 1 
   1      13.9086370890      1.0000000000
 D 1 
   1       4.5847232531      1.0000000000
 D 1 
   1       2.2101848651      1.0000000000
 D 1 
   1       0.8376830121      1.0000000000
 D 1 
   1       0.4194837561      1.0000000000
 F 1 
   1       3.4730665788      1.0000000000
 F 1 
   1       1.5589463548      1.0000000000
 F 1 
   1       0.8467763824      1.0000000000
 G 1 
   1       1.7764066281      1.0000000000
  end;



           ************************************************************
           *        Program running with 32 parallel MPI-processes    *
           *              working on a common directory               *
           ************************************************************
------------------------------------------------------------------------------
                           ORCA GTO INTEGRAL CALCULATION
------------------------------------------------------------------------------

                         BASIS SET STATISTICS AND STARTUP INFO

 # of primitive gaussian shells          ... 1542
 # of primitive gaussian functions       ... 2990
 # of contracted shells                  ...  710
 # of contracted basis functions         ... 1970
 Highest angular momentum                ...    3
 Maximum contraction depth               ...    8
 Integral package used                   ... LIBINT
 Integral threshhold            Thresh   ...  2.500e-11
 Primitive cut-off              TCut     ...  2.500e-12


------------------------------ INTEGRAL EVALUATION ----------------------------


 * One electron integrals 
 Pre-screening matrix                    ... done
 Shell pair data                         ... done (   0.045 sec)



           ************************************************************
           *        Program running with 32 parallel MPI-processes    *
           *              working on a common directory               *
           ************************************************************
-------------------------------------------------------------------------------
                                 ORCA SCF
-------------------------------------------------------------------------------

------------
SCF SETTINGS
------------
Hamiltonian:
 Ab initio Hamiltonian  Method          .... Hartree-Fock(GTOs)


General Settings:
 Integral files         IntName         .... _o_3_alde1_5_ami4_1_opt_MP2
 Hartree-Fock type      HFTyp           .... RHF
 Total Charge           Charge          ....    0
 Multiplicity           Mult            ....    1
 Number of Electrons    NEL             ....  332
 Basis Dimension        Dim             .... 1970
 Nuclear Repulsion      ENuc            ....   5924.8223002480 Eh

Convergence Acceleration:
 DIIS                   CNVDIIS         .... on
   Start iteration      DIISMaxIt       ....     0
   Startup error        DIISStart       ....  0.200000
   # of expansion vecs  DIISMaxEq       ....     5
   Bias factor          DIISBfac        ....   1.050
   Max. coefficient     DIISMaxC        ....  10.000
 Newton-Raphson         CNVNR           .... off
 SOSCF                  CNVSOSCF        .... on
   Start iteration      SOSCFMaxIt      ....   150
   Startup grad/error   SOSCFStart      ....  0.001000
 Level Shifting         CNVShift        .... on
   Level shift para.    LevelShift      ....    0.2500
   Turn off err/grad.   ShiftErr        ....    0.0000
 Zerner damping         CNVZerner       .... off
 Static damping         CNVDamp         .... on
   Fraction old density DampFac         ....    0.8500
   Max. Damping (<1)    DampMax         ....    0.9800
   Min. Damping (>=0)   DampMin         ....    0.0000
   Turn off err/grad.   DampErr         ....    0.0300
 Fernandez-Rico         CNVRico         .... off

SCF Procedure:
 Maximum # iterations   MaxIter         ....   125
 SCF integral mode      SCFMode         .... Direct
   Integral package                     .... LIBINT
 Reset frequency        DirectResetFreq ....    20
 Integral Threshold     Thresh          ....  2.500e-11 Eh
 Primitive CutOff       TCut            ....  2.500e-12 Eh

Convergence Tolerance:
 Convergence Check Mode ConvCheckMode   .... Total+1el-Energy
 Convergence forced     ConvForced      .... 1
 Energy Change          TolE            ....  1.000e-08 Eh
 1-El. energy change                    ....  1.000e-05 Eh
 Orbital Gradient       TolG            ....  1.000e-05
 Orbital Rotation angle TolX            ....  1.000e-05
 DIIS Error             TolErr          ....  5.000e-07


Diagonalization of the overlap matrix:
Smallest eigenvalue                        ... 1.969e-05
Time for diagonalization                   ...    2.683 sec
Threshold for overlap eigenvalues          ... 1.000e-08
Number of eigenvalues below threshold      ... 0
Time for construction of square roots      ...    0.447 sec
Total time needed                          ...    3.133 sec

-------------------
DFT GRID GENERATION
-------------------

General Integration Accuracy     IntAcc      ...  5.340
Radial Grid Type                 RadialGrid  ... Gauss-Chebyshev
Angular Grid (max. acc.)         AngularGrid ... Lebedev-590
Angular grid pruning method      GridPruning ... 3 (G Style)
Weight generation scheme         WeightScheme... Becke
Basis function cutoff            BFCut       ...    1.0000e-11
Integration weight cutoff        WCut        ...    1.0000e-14
Grids for H and He will be reduced by one unit

# of grid points (after initial pruning)     ... 1214360 (   0.0 sec)
# of grid points (after weights+screening)   ... 1006457 (   1.4 sec)
nearest neighbour list constructed           ...    0.0 sec
Grid point re-assignment to atoms done       ...    0.2 sec
Grid point division into batches done        ...   10.0 sec
Reduced shell lists constructed in   10.8 sec

Total number of grid points                  ...  1006457
Total number of batches                      ...    15773
Average number of points per batch           ...       63
Average number of grid points per atom       ...    11568
Average number of shells per batch           ...   209.65 (29.53%)
Average number of basis functions per batch  ...   504.97 (25.63%)
Average number of large shells per batch     ...   113.84 (54.30%)
Average number of large basis fcns per batch ...   290.17 (57.46%)
Maximum spatial batch extension              ...  19.54, 11.96, 11.88 au
Average spatial batch extension              ...   0.03,  0.03,  0.03 au

Time for grid setup =   13.293 sec

------------------------------
INITIAL GUESS: MODEL POTENTIAL
------------------------------
Loading Hartree-Fock densities                     ... done
Calculating cut-offs                               ... done
Setting up the integral package                    ... done
Initializing the effective Hamiltonian             ... done
Starting the Coulomb interaction                   ... done (   0.7 sec)
Reading the grid                                   ... done
Mapping shells                                     ... done
Starting the XC term evaluation                    ... done (   0.7 sec)
Transforming the Hamiltonian                       ... done (   0.3 sec)
Diagonalizing the Hamiltonian                      ... done (   0.5 sec)
Back transforming the eigenvectors                 ... done (   0.2 sec)
Now organizing SCF variables                       ... done
                      ------------------
                      INITIAL GUESS DONE (  16.0 sec)
                      ------------------
--------------
SCF ITERATIONS
--------------
ITER       Energy         Delta-E        Max-DP      RMS-DP      [F,P]     Damp
               ***  Starting incremental Fock matrix formation  ***
  0  -1967.6020584582   0.000000000000 0.03215045  0.00019132  0.2432074 0.8500
  1  -1967.9170393460  -0.314980887785 0.04177209  0.00021568  0.1996400 0.8500
                               ***Turning on DIIS***
  2  -1968.1713396572  -0.254300311195 0.03505062  0.00018375  0.1594179 0.8500
  3  -1974.5884372980  -6.417097640863 0.01992276  0.00012566  0.1271864 0.8500
  4  -1977.5247177108  -2.936280412764 0.00992914  0.00008856  0.1051605 0.8500
  5  -1977.5420109682  -0.017293257462 0.00708719  0.00006970  0.0893840 0.8500
  6  -1976.7415074632   0.800503505066 0.00607507  0.00005826  0.0766542 0.8500
  7  -1975.4095905713   1.331916891870 0.00519117  0.00005018  0.0657909 0.8500
  8  -1974.3444406169   1.065149954439 0.00442345  0.00004319  0.0561046 0.8500
  9  -1973.5435911824   0.800849434444 0.00376322  0.00003694  0.0476874 0.8500
 10  -1972.9079659313   0.635625251169 0.00320016  0.00003151  0.0405402 0.8500
 11  -1972.3792581327   0.528707798565 0.00272166  0.00002690  0.0344983 0.8500
 12  -1971.9282883424   0.450969790313 0.01543524  0.00015327  0.0293689 0.0000
 13  -1969.4323760232   2.495912319201 0.00241445  0.00001083  0.0010067 0.0000
                      *** Initiating the SOSCF procedure ***
                           *** Shutting down DIIS ***
                      *** Re-Reading the Fockian *** 
                      *** Removing any level shift *** 
ITER      Energy       Delta-E        Grad      Rot      Max-DP    RMS-DP
 14  -1969.43486952  -0.0024934987  0.000237  0.000237  0.001251  0.000006
               *** Restarting incremental Fock matrix formation ***
 15  -1969.42469318   0.0101763441  0.000127  0.000319  0.001070  0.000004
 16  -1969.42469803  -0.0000048542  0.000075  0.000398  0.000911  0.000004
 17  -1969.42469972  -0.0000016848  0.000022  0.000058  0.000060  0.000001
 18  -1969.42469985  -0.0000001332  0.000014  0.000033  0.000071  0.000000
 19  -1969.42469990  -0.0000000463  0.000009  0.000046  0.000020  0.000000
 20  -1969.42469988   0.0000000188  0.000003  0.000012  0.000015  0.000000
                  ***Gradient check signals convergence***
              ***Rediagonalizing the Fockian in SOSCF/NRSCF***

               *****************************************************
               *                     SUCCESS                       *
               *           SCF CONVERGED AFTER  21 CYCLES          *
               *****************************************************


----------------
TOTAL SCF ENERGY
----------------

Total Energy       :        -1969.42469977 Eh          -53590.77058 eV

Components:
Nuclear Repulsion  :         5924.82230025 Eh          161222.61119 eV
Electronic Energy  :        -7894.24700002 Eh         -214813.38177 eV
One Electron Energy:       -14478.09118955 Eh         -393968.89026 eV
Two Electron Energy:         6583.84418953 Eh          179155.50849 eV

Virial components:
Potential Energy   :        -3936.79236995 Eh         -107125.56654 eV
Kinetic Energy     :         1967.36767018 Eh           53534.79596 eV
Virial Ratio       :            2.00104557


---------------
SCF CONVERGENCE
---------------

  Last Energy change         ...    1.0319e-07  Tolerance :   1.0000e-08
  Last MAX-Density change    ...    5.4593e-06  Tolerance :   1.0000e-07
  Last RMS-Density change    ...    3.8882e-08  Tolerance :   5.0000e-09
  Last Orbital Gradient      ...    1.4544e-06  Tolerance :   1.0000e-05
  Last Orbital Rotation      ...    3.0814e-06  Tolerance :   1.0000e-05

             **** THE GBW FILE WAS UPDATED (_o_3_alde1_5_ami4_1_opt_MP2.gbw) ****
             **** DENSITY FILE WAS UPDATED (_o_3_alde1_5_ami4_1_opt_MP2.scfp) ****
             **** ENERGY FILE WAS UPDATED (_o_3_alde1_5_ami4_1_opt_MP2.en.tmp) ****
             **** THE GBW FILE WAS UPDATED (_o_3_alde1_5_ami4_1_opt_MP2.gbw) ****
             **** DENSITY FILE WAS UPDATED (_o_3_alde1_5_ami4_1_opt_MP2.scfp) ****
----------------
ORBITAL ENERGIES
----------------

  NO   OCC          E(Eh)            E(eV) 
   0   2.0000     -15.559835      -423.4046 
   1   2.0000     -15.559456      -423.3943 
   2   2.0000     -15.556031      -423.3011 
   3   2.0000     -15.555557      -423.2882 
   4   2.0000     -15.552370      -423.2015 
   5   2.0000     -15.549594      -423.1260 
   6   2.0000     -15.549048      -423.1111 
   7   2.0000     -15.549018      -423.1103 
   8   2.0000     -15.541878      -422.9160 
   9   2.0000     -15.524849      -422.4526 
  10   2.0000     -11.288418      -307.1735 
  11   2.0000     -11.286751      -307.1281 
  12   2.0000     -11.282697      -307.0178 
  13   2.0000     -11.281880      -306.9956 
  14   2.0000     -11.281181      -306.9765 
  15   2.0000     -11.279291      -306.9251 
  16   2.0000     -11.276033      -306.8365 
  17   2.0000     -11.276015      -306.8360 
  18   2.0000     -11.275616      -306.8251 
  19   2.0000     -11.260112      -306.4032 
  20   2.0000     -11.258462      -306.3583 
  21   2.0000     -11.254002      -306.2370 
  22   2.0000     -11.252198      -306.1879 
  23   2.0000     -11.251237      -306.1617 
  24   2.0000     -11.250482      -306.1412 
  25   2.0000     -11.249826      -306.1233 
  26   2.0000     -11.249465      -306.1135 
  27   2.0000     -11.249303      -306.1091 
  28   2.0000     -11.249207      -306.1065 
  29   2.0000     -11.248759      -306.0943 
  30   2.0000     -11.248720      -306.0932 
  31   2.0000     -11.248646      -306.0912 
  32   2.0000     -11.247482      -306.0595 
  33   2.0000     -11.247347      -306.0559 
  34   2.0000     -11.247155      -306.0506 
  35   2.0000     -11.246911      -306.0440 
  36   2.0000     -11.246665      -306.0373 
  37   2.0000     -11.246396      -306.0300 
  38   2.0000     -11.244996      -305.9919 
  39   2.0000     -11.244759      -305.9855 
  40   2.0000     -11.241894      -305.9075 
  41   2.0000     -11.241389      -305.8938 
  42   2.0000     -11.239966      -305.8550 
  43   2.0000     -11.238652      -305.8193 
  44   2.0000     -11.236766      -305.7680 
  45   2.0000     -11.234562      -305.7080 
  46   2.0000     -11.230278      -305.5914 
  47   2.0000      -1.267119       -34.4801 
  48   2.0000      -1.258720       -34.2515 
  49   2.0000      -1.252924       -34.0938 
  50   2.0000      -1.250602       -34.0306 
  51   2.0000      -1.248259       -33.9669 
  52   2.0000      -1.231959       -33.5233 
  53   2.0000      -1.224697       -33.3257 
  54   2.0000      -1.223586       -33.2955 
  55   2.0000      -1.219705       -33.1898 
  56   2.0000      -1.171804       -31.8864 
  57   2.0000      -1.164676       -31.6924 
  58   2.0000      -1.159817       -31.5602 
  59   2.0000      -1.130506       -30.7626 
  60   2.0000      -1.073344       -29.2072 
  61   2.0000      -1.068083       -29.0640 
  62   2.0000      -1.065660       -28.9981 
  63   2.0000      -1.054482       -28.6939 
  64   2.0000      -1.052398       -28.6372 
  65   2.0000      -1.047010       -28.4906 
  66   2.0000      -1.014696       -27.6113 
  67   2.0000      -0.999353       -27.1938 
  68   2.0000      -0.995073       -27.0773 
  69   2.0000      -0.992644       -27.0112 
  70   2.0000      -0.976566       -26.5737 
  71   2.0000      -0.913172       -24.8487 
  72   2.0000      -0.908220       -24.7139 
  73   2.0000      -0.906576       -24.6692 
  74   2.0000      -0.905041       -24.6274 
  75   2.0000      -0.877446       -23.8765 
  76   2.0000      -0.872897       -23.7527 
  77   2.0000      -0.865113       -23.5409 
  78   2.0000      -0.854416       -23.2498 
  79   2.0000      -0.836284       -22.7564 
  80   2.0000      -0.828667       -22.5492 
  81   2.0000      -0.822704       -22.3869 
  82   2.0000      -0.819295       -22.2942 
  83   2.0000      -0.803922       -21.8758 
  84   2.0000      -0.800407       -21.7802 
  85   2.0000      -0.771103       -20.9828 
  86   2.0000      -0.755956       -20.5706 
  87   2.0000      -0.754172       -20.5221 
  88   2.0000      -0.746677       -20.3181 
  89   2.0000      -0.744522       -20.2595 
  90   2.0000      -0.741044       -20.1648 
  91   2.0000      -0.709322       -19.3016 
  92   2.0000      -0.707199       -19.2439 
  93   2.0000      -0.701643       -19.0927 
  94   2.0000      -0.691918       -18.8280 
  95   2.0000      -0.689956       -18.7747 
  96   2.0000      -0.681562       -18.5462 
  97   2.0000      -0.673682       -18.3318 
  98   2.0000      -0.669882       -18.2284 
  99   2.0000      -0.669396       -18.2152 
 100   2.0000      -0.664195       -18.0737 
 101   2.0000      -0.663385       -18.0516 
 102   2.0000      -0.656356       -17.8604 
 103   2.0000      -0.650314       -17.6959 
 104   2.0000      -0.647721       -17.6254 
 105   2.0000      -0.644798       -17.5459 
 106   2.0000      -0.633904       -17.2494 
 107   2.0000      -0.622552       -16.9405 
 108   2.0000      -0.618926       -16.8418 
 109   2.0000      -0.617517       -16.8035 
 110   2.0000      -0.614310       -16.7162 
 111   2.0000      -0.613057       -16.6821 
 112   2.0000      -0.612246       -16.6600 
 113   2.0000      -0.604731       -16.4556 
 114   2.0000      -0.599914       -16.3245 
 115   2.0000      -0.595986       -16.2176 
 116   2.0000      -0.592006       -16.1093 
 117   2.0000      -0.584867       -15.9150 
 118   2.0000      -0.583508       -15.8781 
 119   2.0000      -0.580471       -15.7954 
 120   2.0000      -0.578541       -15.7429 
 121   2.0000      -0.551731       -15.0134 
 122   2.0000      -0.549515       -14.9531 
 123   2.0000      -0.546454       -14.8698 
 124   2.0000      -0.546053       -14.8589 
 125   2.0000      -0.544465       -14.8157 
 126   2.0000      -0.538555       -14.6548 
 127   2.0000      -0.537111       -14.6155 
 128   2.0000      -0.535007       -14.5583 
 129   2.0000      -0.532690       -14.4952 
 130   2.0000      -0.529107       -14.3977 
 131   2.0000      -0.528291       -14.3755 
 132   2.0000      -0.526050       -14.3146 
 133   2.0000      -0.522088       -14.2067 
 134   2.0000      -0.514680       -14.0052 
 135   2.0000      -0.505403       -13.7527 
 136   2.0000      -0.502676       -13.6785 
 137   2.0000      -0.498704       -13.5704 
 138   2.0000      -0.497846       -13.5471 
 139   2.0000      -0.495069       -13.4715 
 140   2.0000      -0.489730       -13.3262 
 141   2.0000      -0.481909       -13.1134 
 142   2.0000      -0.460741       -12.5374 
 143   2.0000      -0.455046       -12.3824 
 144   2.0000      -0.452763       -12.3203 
 145   2.0000      -0.450702       -12.2642 
 146   2.0000      -0.447663       -12.1815 
 147   2.0000      -0.419262       -11.4087 
 148   2.0000      -0.416694       -11.3388 
 149   2.0000      -0.414833       -11.2882 
 150   2.0000      -0.411690       -11.2027 
 151   2.0000      -0.409667       -11.1476 
 152   2.0000      -0.408468       -11.1150 
 153   2.0000      -0.406789       -11.0693 
 154   2.0000      -0.404229       -10.9996 
 155   2.0000      -0.399994       -10.8844 
 156   2.0000      -0.398956       -10.8561 
 157   2.0000      -0.398330       -10.8391 
 158   2.0000      -0.389360       -10.5950 
 159   2.0000      -0.362513        -9.8645 
 160   2.0000      -0.328886        -8.9495 
 161   2.0000      -0.326827        -8.8934 
 162   2.0000      -0.326588        -8.8869 
 163   2.0000      -0.324909        -8.8412 
 164   2.0000      -0.321486        -8.7481 
 165   2.0000      -0.315539        -8.5863 
 166   0.0000       0.067184         1.8282 
 167   0.0000       0.069475         1.8905 
 168   0.0000       0.076728         2.0879 
 169   0.0000       0.079922         2.1748 
 170   0.0000       0.081890         2.2283 
 171   0.0000       0.097746         2.6598 
 172   0.0000       0.125211         3.4072 
 173   0.0000       0.126115         3.4318 
 174   0.0000       0.135590         3.6896 
 175   0.0000       0.139595         3.7986 
 176   0.0000       0.145718         3.9652 
 177   0.0000       0.149026         4.0552 
 178   0.0000       0.151511         4.1228 
 179   0.0000       0.156779         4.2662 
 180   0.0000       0.159151         4.3307 
 181   0.0000       0.163163         4.4399 
 182   0.0000       0.164916         4.4876 
 183   0.0000       0.166029         4.5179 
 184   0.0000       0.172576         4.6960 
 185   0.0000       0.176322         4.7980 
 186   0.0000       0.178164         4.8481 
 187   0.0000       0.185108         5.0370 
 188   0.0000       0.190045         5.1714 
 189   0.0000       0.192400         5.2355 
 190   0.0000       0.195520         5.3204 
 191   0.0000       0.199837         5.4378 
 192   0.0000       0.202143         5.5006 
 193   0.0000       0.205158         5.5826 
 194   0.0000       0.206504         5.6192 
 195   0.0000       0.207556         5.6479 
 196   0.0000       0.209887         5.7113 
 197   0.0000       0.214142         5.8271 
 198   0.0000       0.220133         5.9901 
 199   0.0000       0.222173         6.0456 
 200   0.0000       0.225438         6.1345 
 201   0.0000       0.226283         6.1575 
 202   0.0000       0.229263         6.2386 
 203   0.0000       0.233988         6.3671 
 204   0.0000       0.234854         6.3907 
 205   0.0000       0.236884         6.4459 
 206   0.0000       0.245649         6.6845 
 207   0.0000       0.251710         6.8494 
 208   0.0000       0.255397         6.9497 
 209   0.0000       0.256488         6.9794 
 210   0.0000       0.256897         6.9905 
 211   0.0000       0.261389         7.1127 
 212   0.0000       0.262933         7.1548 
 213   0.0000       0.268249         7.2994 
 214   0.0000       0.273055         7.4302 
 215   0.0000       0.276222         7.5164 
 216   0.0000       0.292282         7.9534 
 217   0.0000       0.294071         8.0021 
 218   0.0000       0.295234         8.0337 
 219   0.0000       0.299970         8.1626 
 220   0.0000       0.303279         8.2526 
 221   0.0000       0.308476         8.3941 
 222   0.0000       0.309904         8.4329 
 223   0.0000       0.313193         8.5224 
 224   0.0000       0.314556         8.5595 
 225   0.0000       0.317439         8.6380 
 226   0.0000       0.319788         8.7019 
 227   0.0000       0.322062         8.7638 
 228   0.0000       0.325063         8.8454 
 229   0.0000       0.331170         9.0116 
 230   0.0000       0.337365         9.1802 
 231   0.0000       0.338683         9.2160 
 232   0.0000       0.339636         9.2420 
 233   0.0000       0.345967         9.4142 
 234   0.0000       0.347312         9.4508 
 235   0.0000       0.349366         9.5067 
 236   0.0000       0.353784         9.6270 
 237   0.0000       0.356894         9.7116 
 238   0.0000       0.360169         9.8007 
 239   0.0000       0.366820         9.9817 
 240   0.0000       0.369857        10.0643 
 241   0.0000       0.376712        10.2509 
 242   0.0000       0.377157        10.2630 
 243   0.0000       0.381121        10.3708 
 244   0.0000       0.384013        10.4495 
 245   0.0000       0.385810        10.4984 
 246   0.0000       0.386826        10.5261 
 247   0.0000       0.392802        10.6887 
 248   0.0000       0.398142        10.8340 
 249   0.0000       0.399655        10.8752 
 250   0.0000       0.406466        11.0605 
 251   0.0000       0.407303        11.0833 
 252   0.0000       0.410261        11.1638 
 253   0.0000       0.412459        11.2236 
 254   0.0000       0.414681        11.2840 
 255   0.0000       0.419283        11.4093 
 256   0.0000       0.421269        11.4633 
 257   0.0000       0.422546        11.4981 
 258   0.0000       0.425839        11.5877 
 259   0.0000       0.428394        11.6572 
 260   0.0000       0.432938        11.7808 
 261   0.0000       0.435307        11.8453 
 262   0.0000       0.436171        11.8688 
 263   0.0000       0.437843        11.9143 
 264   0.0000       0.441224        12.0063 
 265   0.0000       0.445055        12.1106 
 266   0.0000       0.447828        12.1860 
 267   0.0000       0.450443        12.2572 
 268   0.0000       0.452169        12.3042 
 269   0.0000       0.454815        12.3762 
 270   0.0000       0.457053        12.4370 
 271   0.0000       0.458630        12.4800 
 272   0.0000       0.461547        12.5593 
 273   0.0000       0.461877        12.5683 
 274   0.0000       0.463895        12.6232 
 275   0.0000       0.469749        12.7825 
 276   0.0000       0.473380        12.8813 
 277   0.0000       0.477777        13.0010 
 278   0.0000       0.478857        13.0304 
 279   0.0000       0.483550        13.1581 
 280   0.0000       0.487145        13.2559 
 281   0.0000       0.488466        13.2918 
 282   0.0000       0.494779        13.4636 
 283   0.0000       0.500032        13.6066 
 284   0.0000       0.503639        13.7047 
 285   0.0000       0.504601        13.7309 
 286   0.0000       0.509616        13.8673 
 287   0.0000       0.511477        13.9180 
 288   0.0000       0.512781        13.9535 
 289   0.0000       0.516002        14.0411 
 290   0.0000       0.516413        14.0523 
 291   0.0000       0.520846        14.1729 
 292   0.0000       0.523923        14.2567 
 293   0.0000       0.526410        14.3243 
 294   0.0000       0.527179        14.3453 
 295   0.0000       0.529804        14.4167 
 296   0.0000       0.532293        14.4844 
 297   0.0000       0.539421        14.6784 
 298   0.0000       0.541349        14.7308 
 299   0.0000       0.542106        14.7515 
 300   0.0000       0.545002        14.8303 
 301   0.0000       0.546191        14.8626 
 302   0.0000       0.548429        14.9235 
 303   0.0000       0.549310        14.9475 
 304   0.0000       0.552708        15.0399 
 305   0.0000       0.555486        15.1155 
 306   0.0000       0.557815        15.1789 
 307   0.0000       0.558358        15.1937 
 308   0.0000       0.561158        15.2699 
 309   0.0000       0.563297        15.3281 
 310   0.0000       0.565701        15.3935 
 311   0.0000       0.567569        15.4443 
 312   0.0000       0.571299        15.5458 
 313   0.0000       0.573889        15.6163 
 314   0.0000       0.575903        15.6711 
 315   0.0000       0.576711        15.6931 
 316   0.0000       0.577718        15.7205 
 317   0.0000       0.580402        15.7935 
 318   0.0000       0.582761        15.8577 
 319   0.0000       0.584834        15.9141 
 320   0.0000       0.588803        16.0222 
 321   0.0000       0.589013        16.0279 
 322   0.0000       0.592173        16.1138 
 323   0.0000       0.593472        16.1492 
 324   0.0000       0.594863        16.1870 
 325   0.0000       0.597493        16.2586 
 326   0.0000       0.598592        16.2885 
 327   0.0000       0.599822        16.3220 
 328   0.0000       0.602025        16.3819 
 329   0.0000       0.602587        16.3972 
 330   0.0000       0.605456        16.4753 
 331   0.0000       0.607445        16.5294 
 332   0.0000       0.607753        16.5378 
 333   0.0000       0.609907        16.5964 
 334   0.0000       0.613497        16.6941 
 335   0.0000       0.615890        16.7592 
 336   0.0000       0.617398        16.8002 
 337   0.0000       0.621121        16.9016 
 338   0.0000       0.623373        16.9628 
 339   0.0000       0.625091        17.0096 
 340   0.0000       0.627886        17.0856 
 341   0.0000       0.629541        17.1307 
 342   0.0000       0.632308        17.2060 
 343   0.0000       0.635174        17.2840 
 344   0.0000       0.636224        17.3125 
 345   0.0000       0.638913        17.3857 
 346   0.0000       0.642691        17.4885 
 347   0.0000       0.644527        17.5385 
 348   0.0000       0.644826        17.5466 
 349   0.0000       0.647461        17.6183 
 350   0.0000       0.650253        17.6943 
 351   0.0000       0.652474        17.7547 
 352   0.0000       0.653487        17.7823 
 353   0.0000       0.655070        17.8254 
 354   0.0000       0.656806        17.8726 
 355   0.0000       0.658120        17.9084 
 356   0.0000       0.661406        17.9978 
 357   0.0000       0.662040        18.0150 
 358   0.0000       0.666254        18.1297 
 359   0.0000       0.666843        18.1457 
 360   0.0000       0.669428        18.2161 
 361   0.0000       0.673826        18.3357 
 362   0.0000       0.675645        18.3852 
 363   0.0000       0.676515        18.4089 
 364   0.0000       0.680513        18.5177 
 365   0.0000       0.682517        18.5722 
 366   0.0000       0.684507        18.6264 
 367   0.0000       0.688741        18.7416 
 368   0.0000       0.689047        18.7499 
 369   0.0000       0.692946        18.8560 
 370   0.0000       0.695471        18.9247 
 371   0.0000       0.698504        19.0073 
 372   0.0000       0.699789        19.0422 
 373   0.0000       0.702895        19.1268 
 374   0.0000       0.705698        19.2030 
 375   0.0000       0.706166        19.2158 
 376   0.0000       0.708798        19.2874 
 377   0.0000       0.710815        19.3423 
 378   0.0000       0.713015        19.4021 
 379   0.0000       0.716305        19.4917 
 380   0.0000       0.716746        19.5037 
 381   0.0000       0.720039        19.5933 
 382   0.0000       0.724257        19.7080 
 383   0.0000       0.726742        19.7757 
 384   0.0000       0.728490        19.8232 
 385   0.0000       0.730944        19.8900 
 386   0.0000       0.732359        19.9285 
 387   0.0000       0.734106        19.9761 
 388   0.0000       0.735758        20.0210 
 389   0.0000       0.740621        20.1533 
 390   0.0000       0.741986        20.1905 
 391   0.0000       0.745781        20.2937 
 392   0.0000       0.749563        20.3967 
 393   0.0000       0.752341        20.4722 
 394   0.0000       0.753770        20.5111 
 395   0.0000       0.756200        20.5773 
 396   0.0000       0.758490        20.6396 
 397   0.0000       0.762125        20.7385 
 398   0.0000       0.764364        20.7994 
 399   0.0000       0.766174        20.8487 
 400   0.0000       0.770756        20.9733 
 401   0.0000       0.772573        21.0228 
 402   0.0000       0.773834        21.0571 
 403   0.0000       0.776895        21.1404 
 404   0.0000       0.779018        21.1982 
 405   0.0000       0.780086        21.2272 
 406   0.0000       0.782111        21.2823 
 407   0.0000       0.786173        21.3929 
 408   0.0000       0.787610        21.4320 
 409   0.0000       0.788979        21.4692 
 410   0.0000       0.793616        21.5954 
 411   0.0000       0.797541        21.7022 
 412   0.0000       0.798200        21.7201 
 413   0.0000       0.800305        21.7774 
 414   0.0000       0.807662        21.9776 
 415   0.0000       0.810293        22.0492 
 416   0.0000       0.811529        22.0828 
 417   0.0000       0.818156        22.2632 
 418   0.0000       0.820990        22.3403 
 419   0.0000       0.822810        22.3898 
 420   0.0000       0.827940        22.5294 
 421   0.0000       0.829209        22.5639 
 422   0.0000       0.834104        22.6971 
 423   0.0000       0.839510        22.8442 
 424   0.0000       0.840772        22.8786 
 425   0.0000       0.843191        22.9444 
 426   0.0000       0.846496        23.0343 
 427   0.0000       0.849190        23.1076 
 428   0.0000       0.858524        23.3616 
 429   0.0000       0.860893        23.4261 
 430   0.0000       0.862850        23.4793 
 431   0.0000       0.869354        23.6563 
 432   0.0000       0.871375        23.7113 
 433   0.0000       0.874794        23.8044 
 434   0.0000       0.877031        23.8652 
 435   0.0000       0.880118        23.9492 
 436   0.0000       0.884782        24.0761 
 437   0.0000       0.885369        24.0921 
 438   0.0000       0.887773        24.1575 
 439   0.0000       0.889174        24.1957 
 440   0.0000       0.894313        24.3355 
 441   0.0000       0.899085        24.4653 
 442   0.0000       0.901274        24.5249 
 443   0.0000       0.904011        24.5994 
 444   0.0000       0.906878        24.6774 
 445   0.0000       0.910154        24.7666 
 446   0.0000       0.911823        24.8120 
 447   0.0000       0.918347        24.9895 
 448   0.0000       0.919803        25.0291 
 449   0.0000       0.924864        25.1668 
 450   0.0000       0.926149        25.2018 
 451   0.0000       0.928831        25.2748 
 452   0.0000       0.929796        25.3010 
 453   0.0000       0.934845        25.4384 
 454   0.0000       0.939199        25.5569 
 455   0.0000       0.941525        25.6202 
 456   0.0000       0.942731        25.6530 
 457   0.0000       0.944320        25.6962 
 458   0.0000       0.949889        25.8478 
 459   0.0000       0.952971        25.9317 
 460   0.0000       0.955346        25.9963 
 461   0.0000       0.956770        26.0350 
 462   0.0000       0.957918        26.0663 
 463   0.0000       0.961757        26.1707 
 464   0.0000       0.966678        26.3046 
 465   0.0000       0.970373        26.4052 
 466   0.0000       0.973097        26.4793 
 467   0.0000       0.973788        26.4981 
 468   0.0000       0.979705        26.6591 
 469   0.0000       0.982000        26.7216 
 470   0.0000       0.984626        26.7930 
 471   0.0000       0.985663        26.8212 
 472   0.0000       0.988958        26.9109 
 473   0.0000       0.992108        26.9966 
 474   0.0000       0.992703        27.0128 
 475   0.0000       1.002272        27.2732 
 476   0.0000       1.003956        27.3190 
 477   0.0000       1.005719        27.3670 
 478   0.0000       1.006963        27.4009 
 479   0.0000       1.009073        27.4583 
 480   0.0000       1.011911        27.5355 
 481   0.0000       1.014212        27.5981 
 482   0.0000       1.017749        27.6944 
 483   0.0000       1.022912        27.8349 
 484   0.0000       1.024027        27.8652 
 485   0.0000       1.027469        27.9588 
 486   0.0000       1.030799        28.0495 
 487   0.0000       1.034145        28.1405 
 488   0.0000       1.034772        28.1576 
 489   0.0000       1.038476        28.2584 
 490   0.0000       1.040068        28.3017 
 491   0.0000       1.041524        28.3413 
 492   0.0000       1.044113        28.4118 
 493   0.0000       1.047771        28.5113 
 494   0.0000       1.051503        28.6129 
 495   0.0000       1.054859        28.7042 
 496   0.0000       1.059213        28.8227 
 497   0.0000       1.060953        28.8700 
 498   0.0000       1.064719        28.9725 
 499   0.0000       1.069364        29.0989 
 500   0.0000       1.074224        29.2311 
 501   0.0000       1.077121        29.3100 
 502   0.0000       1.080015        29.3887 
 503   0.0000       1.083075        29.4720 
 504   0.0000       1.083690        29.4887 
 505   0.0000       1.086538        29.5662 
 506   0.0000       1.089422        29.6447 
 507   0.0000       1.095582        29.8123 
 508   0.0000       1.097130        29.8544 
 509   0.0000       1.099987        29.9322 
 510   0.0000       1.102575        30.0026 
 511   0.0000       1.106652        30.1135 
 512   0.0000       1.108989        30.1771 
 513   0.0000       1.114097        30.3161 
 514   0.0000       1.115580        30.3565 
 515   0.0000       1.116955        30.3939 
 516   0.0000       1.122405        30.5422 
 517   0.0000       1.124885        30.6097 
 518   0.0000       1.126221        30.6460 
 519   0.0000       1.135121        30.8882 
 520   0.0000       1.135737        30.9050 
 521   0.0000       1.136256        30.9191 
 522   0.0000       1.139982        31.0205 
 523   0.0000       1.141844        31.0712 
 524   0.0000       1.143579        31.1184 
 525   0.0000       1.147041        31.2126 
 526   0.0000       1.149262        31.2730 
 527   0.0000       1.150942        31.3187 
 528   0.0000       1.153906        31.3994 
 529   0.0000       1.155137        31.4329 
 530   0.0000       1.159917        31.5630 
 531   0.0000       1.162201        31.6251 
 532   0.0000       1.166491        31.7418 
 533   0.0000       1.169016        31.8105 
 534   0.0000       1.172110        31.8947 
 535   0.0000       1.173918        31.9439 
 536   0.0000       1.175658        31.9913 
 537   0.0000       1.177709        32.0471 
 538   0.0000       1.178481        32.0681 
[...]
 80 H s       :     0.865086  s :     0.865086
      pz      :     0.043824  p :     0.149860
      px      :     0.057369
      py      :     0.048667
      dz2     :     0.003815  d :     0.027667
      dxz     :     0.006087
      dyz     :     0.004484
      dx2y2   :     0.006802
      dxy     :     0.006479
 81 H s       :     0.850492  s :     0.850492
      pz      :     0.038126  p :     0.149256
      px      :     0.050199
      py      :     0.060932
      dz2     :     0.003676  d :     0.028156
      dxz     :     0.002430
      dyz     :     0.006057
      dx2y2   :     0.008515
      dxy     :     0.007478
 82 H s       :     0.853638  s :     0.853638
      pz      :     0.048844  p :     0.147839
      px      :     0.043486
      py      :     0.055509
      dz2     :     0.006279  d :     0.028118
      dxz     :     0.002954
      dyz     :     0.006299
      dx2y2   :     0.006049
      dxy     :     0.006536
 83 H s       :     0.848972  s :     0.848972
      pz      :     0.066041  p :     0.149211
      px      :     0.042792
      py      :     0.040377
      dz2     :     0.009046  d :     0.028194
      dxz     :     0.007656
      dyz     :     0.007359
      dx2y2   :     0.001808
      dxy     :     0.002326
 84 H s       :     0.853640  s :     0.853640
      pz      :     0.050897  p :     0.148128
      px      :     0.051687
      py      :     0.045545
      dz2     :     0.007198  d :     0.028192
      dxz     :     0.006743
      dyz     :     0.004790
      dx2y2   :     0.004780
      dxy     :     0.004680
 85 H s       :     0.850951  s :     0.850951
      pz      :     0.033161  p :     0.148969
      px      :     0.075834
      py      :     0.039973
      dz2     :     0.002851  d :     0.028173
      dxz     :     0.008489
      dyz     :     0.000416
      dx2y2   :     0.007217
      dxy     :     0.009200
 86 H s       :     0.854127  s :     0.854127
      pz      :     0.068054  p :     0.147924
      px      :     0.031517
      py      :     0.048353
      dz2     :     0.009283  d :     0.028183
      dxz     :     0.006697
      dyz     :     0.007907
      dx2y2   :     0.002744
      dxy     :     0.001553


                      *****************************
                      * MAYER POPULATION ANALYSIS *
                      *****************************

  NA   - Mulliken gross atomic population
  ZA   - Total nuclear charge
  QA   - Mulliken gross atomic charge
  VA   - Mayer's total valence
  BVA  - Mayer's bonded valence
  FA   - Mayer's free valence

  ATOM       NA         ZA         QA         VA         BVA        FA
  0 C      5.8271     6.0000     0.1729     3.5951     3.5951    -0.0000
  1 C      6.0944     6.0000    -0.0944     4.0195     4.0195    -0.0000
  2 C      6.2186     6.0000    -0.2186     3.9189     3.9189    -0.0000
  3 C      5.8050     6.0000     0.1950     3.5635     3.5635    -0.0000
  4 H      0.8408     1.0000     0.1592     1.0132     1.0132    -0.0000
  5 C      6.2047     6.0000    -0.2047     3.9440     3.9440    -0.0000
  6 C      5.8098     6.0000     0.1902     3.5963     3.5963    -0.0000
  7 H      0.8437     1.0000     0.1563     1.0124     1.0124    -0.0000
  8 C      6.2285     6.0000    -0.2285     3.9040     3.9040    -0.0000
  9 C      6.0764     6.0000    -0.0764     4.0051     4.0051    -0.0000
 10 H      0.8386     1.0000     0.1614     1.0108     1.0108    -0.0000
 11 C      6.0931     6.0000    -0.0931     4.0060     4.0060    -0.0000
 12 H      0.9143     1.0000     0.0857     1.0025     1.0025    -0.0000
 13 H      0.8996     1.0000     0.1004     0.9957     0.9957    -0.0000
 14 H      0.9091     1.0000     0.0909     0.9964     0.9964    -0.0000
 15 C      5.8810     6.0000     0.1190     3.6836     3.6836    -0.0000
 16 C      5.9578     6.0000     0.0422     4.0811     4.0811    -0.0000
 17 C      6.2278     6.0000    -0.2278     3.9237     3.9237    -0.0000
 18 C      5.7916     6.0000     0.2084     3.5392     3.5392    -0.0000
 19 H      0.8149     1.0000     0.1851     1.0194     1.0194    -0.0000
 20 C      6.2348     6.0000    -0.2348     3.9437     3.9437     0.0000
 21 C      5.8126     6.0000     0.1874     3.5898     3.5898    -0.0000
 22 H      0.8460     1.0000     0.1540     1.0183     1.0183    -0.0000
 23 C      6.2716     6.0000    -0.2716     3.9756     3.9756    -0.0000
 24 C      6.1023     6.0000    -0.1023     4.0153     4.0153    -0.0000
 25 H      0.8539     1.0000     0.1461     0.9899     0.9899    -0.0000
 26 C      6.0962     6.0000    -0.0962     4.0222     4.0222    -0.0000
 27 H      0.9040     1.0000     0.0960     0.9979     0.9979    -0.0000
 28 H      0.9103     1.0000     0.0897     0.9981     0.9981    -0.0000
 29 C      5.8064     6.0000     0.1936     3.5633     3.5633    -0.0000
 30 C      6.0788     6.0000    -0.0788     4.0111     4.0111    -0.0000
 31 C      6.2349     6.0000    -0.2349     3.9090     3.9090    -0.0000
 32 C      5.8101     6.0000     0.1899     3.5853     3.5853    -0.0000
 33 H      0.8384     1.0000     0.1616     1.0109     1.0109    -0.0000
 34 C      6.2051     6.0000    -0.2051     3.9342     3.9342    -0.0000
 35 C      5.8462     6.0000     0.1538     3.6360     3.6360    -0.0000
 36 H      0.8276     1.0000     0.1724     1.0076     1.0076    -0.0000
 37 C      6.2079     6.0000    -0.2079     3.9206     3.9206    -0.0000
 38 C      6.1112     6.0000    -0.1112     4.0146     4.0146    -0.0000
 39 H      0.8415     1.0000     0.1585     1.0180     1.0180    -0.0000
 40 C      6.1007     6.0000    -0.1007     4.0027     4.0027    -0.0000
 41 H      0.8867     1.0000     0.1133     0.9920     0.9920    -0.0000
 42 H      0.8856     1.0000     0.1144     0.9940     0.9940    -0.0000
 43 C      6.0352     6.0000    -0.0352     3.8777     3.8777    -0.0000
 44 C      6.0400     6.0000    -0.0400     3.8805     3.8805    -0.0000
 45 N      7.2645     7.0000    -0.2645     2.9781     2.9781    -0.0000
 46 H      0.9387     1.0000     0.0613     0.9912     0.9912    -0.0000
 47 N      7.2576     7.0000    -0.2576     2.9860     2.9860    -0.0000
 48 H      0.9333     1.0000     0.0667     0.9884     0.9884    -0.0000
 49 C      6.0977     6.0000    -0.0977     3.9316     3.9316    -0.0000
 50 C      6.1076     6.0000    -0.1076     3.9165     3.9165     0.0000
 51 N      7.2629     7.0000    -0.2629     2.9740     2.9740    -0.0000
 52 H      0.8887     1.0000     0.1113     0.9834     0.9834    -0.0000
 53 N      7.3218     7.0000    -0.3218     2.9376     2.9376    -0.0000
 54 H      0.9088     1.0000     0.0912     0.9777     0.9777    -0.0000
 55 C      6.0339     6.0000    -0.0339     3.8759     3.8759    -0.0000
 56 C      6.0369     6.0000    -0.0369     3.8858     3.8858    -0.0000
 57 N      7.2585     7.0000    -0.2585     2.9737     2.9737    -0.0000
 58 H      0.9386     1.0000     0.0614     0.9920     0.9920    -0.0000
 59 N      7.2530     7.0000    -0.2530     2.9925     2.9925    -0.0000
 60 H      0.9374     1.0000     0.0626     0.9893     0.9893    -0.0000
 61 C      6.0499     6.0000    -0.0499     3.8720     3.8720    -0.0000
 62 C      6.0730     6.0000    -0.0730     3.8685     3.8685    -0.0000
 63 N      7.2653     7.0000    -0.2653     2.9769     2.9769    -0.0000
 64 H      0.9393     1.0000     0.0607     0.9839     0.9839    -0.0000
 65 N      7.2862     7.0000    -0.2862     2.9590     2.9590    -0.0000
 66 H      0.9106     1.0000     0.0894     0.9911     0.9911    -0.0000
 67 C      6.0386     6.0000    -0.0386     3.8816     3.8816    -0.0000
 68 C      6.0395     6.0000    -0.0395     3.8791     3.8791    -0.0000
 69 N      7.2557     7.0000    -0.2557     2.9758     2.9758    -0.0000
 70 H      0.9399     1.0000     0.0601     0.9918     0.9918    -0.0000
 71 N      7.2568     7.0000    -0.2568     2.9879     2.9879    -0.0000
 72 H      0.9325     1.0000     0.0675     0.9894     0.9894    -0.0000
 73 H      0.9088     1.0000     0.0912     0.9977     0.9977    -0.0000
 74 H      0.8093     1.0000     0.1907     0.9921     0.9921    -0.0000
 75 H      0.9125     1.0000     0.0875     0.9806     0.9806    -0.0000
 76 H      0.8930     1.0000     0.1070     1.0399     1.0399    -0.0000
 77 H      0.8991     1.0000     0.1009     0.9814     0.9814    -0.0000
 78 H      0.8922     1.0000     0.1078     0.9824     0.9824    -0.0000
 79 H      0.9210     1.0000     0.0790     0.9792     0.9792    -0.0000
 80 H      0.9186     1.0000     0.0814     0.9703     0.9703     0.0000
 81 H      0.8998     1.0000     0.1002     0.9813     0.9813    -0.0000
 82 H      0.8935     1.0000     0.1065     0.9819     0.9819    -0.0000
 83 H      0.8848     1.0000     0.1152     0.9811     0.9811    -0.0000
 84 H      0.8832     1.0000     0.1168     0.9743     0.9743    -0.0000
 85 H      0.8992     1.0000     0.1008     0.9812     0.9812    -0.0000
 86 H      0.8928     1.0000     0.1072     0.9818     0.9818    -0.0000

  Mayer bond orders larger than 0.100000
B(  0-C ,  1-C ) :   0.9921 B(  0-C ,  2-C ) :   1.3032 B(  0-C ,  8-C ) :   1.3773 
B(  1-C , 13-H ) :   0.9918 B(  1-C , 47-N ) :   1.9751 B(  2-C ,  3-C ) :   1.3800 
B(  2-C ,  4-H ) :   0.9653 B(  3-C ,  5-C ) :   1.3188 B(  3-C , 11-C ) :   0.9673 
B(  5-C ,  6-C ) :   1.3868 B(  5-C ,  7-H ) :   0.9620 B(  6-C ,  8-C ) :   1.2942 
B(  6-C ,  9-C ) :   0.9920 B(  8-C , 10-H ) :   0.9621 B(  9-C , 12-H ) :   0.9868 
B(  9-C , 63-N ) :   1.9697 B( 11-C , 14-H ) :   0.9873 B( 11-C , 57-N ) :   1.9945 
B( 15-C , 16-C ) :   1.0103 B( 15-C , 17-C ) :   1.3615 B( 15-C , 23-C ) :   1.3725 
B( 16-C , 51-N ) :   1.0256 B( 16-C , 53-N ) :   1.0176 B( 16-C , 75-H ) :   0.9927 
B( 17-C , 18-C ) :   1.3042 B( 17-C , 19-H ) :   0.9446 B( 18-C , 20-C ) :   1.3680 
B( 18-C , 26-C ) :   0.9787 B( 20-C , 21-C ) :   1.3214 B( 20-C , 22-H ) :   0.9663 
B( 21-C , 23-C ) :   1.3738 B( 21-C , 24-C ) :   0.9838 B( 23-C , 25-H ) :   0.9689 
B( 24-C , 27-H ) :   0.9945 B( 24-C , 59-N ) :   1.9822 B( 26-C , 28-H ) :   0.9895 
B( 26-C , 69-N ) :   1.9884 B( 29-C , 30-C ) :   0.9792 B( 29-C , 31-C ) :   1.2968 
B( 29-C , 37-C ) :   1.3829 B( 30-C , 45-N ) :   1.9848 B( 30-C , 73-H ) :   0.9896 
B( 31-C , 32-C ) :   1.3622 B( 31-C , 33-H ) :   0.9643 B( 32-C , 34-C ) :   1.3072 
B( 32-C , 40-C ) :   0.9899 B( 34-C , 35-C ) :   1.4099 B( 34-C , 36-H ) :   0.9495 
B( 35-C , 37-C ) :   1.3012 B( 35-C , 38-C ) :   0.9903 B( 37-C , 39-H ) :   0.9632 
B( 38-C , 41-H ) :   0.9912 B( 38-C , 71-N ) :   1.9780 B( 40-C , 42-H ) :   0.9895 
B( 40-C , 65-N ) :   1.9415 B( 43-C , 44-C ) :   0.9333 B( 43-C , 45-N ) :   0.9699 
B( 43-C , 46-H ) :   0.9742 B( 43-C , 77-H ) :   0.9795 B( 44-C , 47-N ) :   0.9674 
B( 44-C , 48-H ) :   0.9774 B( 44-C , 78-H ) :   0.9883 B( 49-C , 50-C ) :   0.9541 
B( 49-C , 51-N ) :   0.9908 B( 49-C , 52-H ) :   0.9934 B( 49-C , 79-H ) :   0.9857 
B( 50-C , 53-N ) :   1.0048 B( 50-C , 54-H ) :   0.9844 B( 50-C , 80-H ) :   0.9806 
B( 51-N , 76-H ) :   0.9943 B( 53-N , 74-H ) :   0.9457 B( 55-C , 56-C ) :   0.9367 
B( 55-C , 57-N ) :   0.9669 B( 55-C , 58-H ) :   0.9750 B( 55-C , 81-H ) :   0.9785 
B( 56-C , 59-N ) :   0.9696 B( 56-C , 60-H ) :   0.9766 B( 56-C , 82-H ) :   0.9878 
B( 61-C , 62-C ) :   0.9301 B( 61-C , 63-N ) :   0.9760 B( 61-C , 64-H ) :   0.9722 
B( 61-C , 83-H ) :   0.9802 B( 62-C , 65-N ) :   0.9522 B( 62-C , 66-H ) :   0.9815 
B( 62-C , 84-H ) :   0.9864 B( 67-C , 68-C ) :   0.9339 B( 67-C , 69-N ) :   0.9708 
B( 67-C , 70-H ) :   0.9728 B( 67-C , 85-H ) :   0.9802 B( 68-C , 71-N ) :   0.9665 
B( 68-C , 72-H ) :   0.9755 B( 68-C , 86-H ) :   0.9883 

-------
TIMINGS
-------

Total SCF time: 0 days 0 hours 35 min 30 sec 

Total time                  ....    2130.974 sec
Sum of individual times     ....    2108.346 sec  ( 98.9%)

Fock matrix formation       ....    2014.931 sec  ( 94.6%)
Diagonalization             ....      12.945 sec  (  0.6%)
Density matrix formation    ....       1.013 sec  (  0.0%)
Population analysis         ....       6.250 sec  (  0.3%)
Initial guess               ....       2.723 sec  (  0.1%)
Orbital Transformation      ....       0.000 sec  (  0.0%)
Orbital Orthonormalization  ....       0.000 sec  (  0.0%)
DIIS solution               ....      50.917 sec  (  2.4%)
SOSCF solution              ....       6.276 sec  (  0.3%)


           ************************************************************
           *        Program running with 32 parallel MPI-processes    *
           *              working on a common directory               *
           ************************************************************

------------------------------------------------------------------------------
                                ORCA  MP2 
------------------------------------------------------------------------------

Freezing NCore=94 chemical core electrons

-------------
RI-MP2 ENERGY
-------------
Dimension of the basis                    ... 1970
Memory devoted to MP2                     ... 3000 MB   
Data format for buffers                   ... DOUBLE
Compression type for matrix containers    ... UNCOMPRESSED
Overall scaling of the MP2 energy         ...   1.000e+00
Calculating two index integrals           ... done (    0.301 sec)
Cholesky decomposition of V**-1           ... done (    3.347 sec)

-----------------
RI-TRANSFORMATION (AUX index driven)
-----------------

Dimension of the orbital-basis         ... 1970
Dimension of the aux-basis             ... 5007
Transformation of internal/external MOs...   47- 165 to  166-1969
Number Format for Storage              ... Double (8 Byte)
Integral mode                          ... Direct

First Phase: integral generation and transformation of MO indices
  Aux angular momentum 0               ... done (    4.291 sec)
  Aux angular momentum 1               ... done (    8.877 sec)
  Aux angular momentum 2               ... done (   11.223 sec)
  Aux angular momentum 3               ... done (   11.588 sec)
  Aux angular momentum 4               ... done (    3.926 sec)
Closing buffer VIA ( 8.01 GB; CompressionRatio= 1.00)
  Phase 1 completed in    40.118 sec
Second Phase: sorting and transformation of aux index

IA-Transformation
Memory available                       ... 2500 MB 
Max. # MO pairs treated in a batch     ... 4    
# of internal orbitals                 ... 119
# batches for internal orbitals        ... 1
Closing buffer IAV ( 0.27 GB; CompressionRatio= 1.00)
(ia|v) transformation done in    37.721 sec

  Phase 2 completed in    49.319 sec
RI-Integral transformation completed in    89.489 sec
Opening buffers                              ... done

Starting loop over batches of integrals:

Operator 0  - window                       ... ( 47-165)x(166-1969)
Operator 0  - Memory available             ...  3000 MB
Operator 0  - Memory needed per MO         ...  68.9 MB
Operator 0  - Number of orbitals per batch ... 4
Operator 0  - Number of batches            ... 1

OPERATOR  0   PASS   0:  MOs    47 ...   50 +   51 ...   54 +   55 ...   58 +   59 ...   62
                            +   63 ...   66 +   67 ...   70 +   71 ...   74 +   75 ...   78
                            +   79 ...   82 +   83 ...   86 +   87 ...   90 +   91 ...   94
                            +   95 ...   98 +   99 ...  102 +  103 ...  106 +  107 ...  110
                            +  111 ...  114 +  115 ...  118 +  119 ...  122 +  123 ...  126
                            +  127 ...  130 +  131 ...  134 +  135 ...  138 +  139 ...  142
                            +  143 ...  146 +  147 ...  150 +  151 ...  154 +  155 ...  158
                            +  159 ...  162 +  163 ...  165
  Reading integrals       ... ok
  Internal MO  49
Time spent in pair loops =    32.102 sec
Deleting buffer (Ka|jb)[aa] ...done

-----------------------------------------------
 RI-MP2 CORRELATION ENERGY:     -7.949309666 Eh
-----------------------------------------------


-------
TIMINGS
-------

Total time                : 1557.620 sec
Integral trafo            :   89.493 sec (  5.7%)
I/O of integrals          :    0.159 sec (  0.0%)
K(i,j) Operators          :   31.584 sec (  2.0%)
T(i,j) pair energies      :    0.219 sec (  0.0%)
V-calculation             :    0.301 sec (  0.0%)
V**(-1/2)                 :    3.347 sec (  0.2%)
Gamma(ia|P)               :    0.000 sec (  0.0%)
Gamma-Trafo               :    0.000 sec (  0.0%)
D(virtual)                :    0.000 sec (  0.0%)
D(internal)               :    0.000 sec (  0.0%)
W(virtual)                :    0.000 sec (  0.0%)
W(internal)               :    0.000 sec (  0.0%)
L(virtual)                :    0.000 sec (  0.0%)
L(internal)               :    0.000 sec (  0.0%)
G(D)                      :    0.000 sec (  0.0%)
G(Z)                      :    0.000 sec (  0.0%)
Z-Vector Solution         :    0.000 sec (  0.0%)
3-Index Derivative        :    0.000 sec (  0.0%)
2-Index Derivative        :    0.000 sec (  0.0%)
Separable Gradient        :    0.000 sec (  0.0%)


---------------------------------------
MP2 TOTAL ENERGY:    -1977.374009441 Eh
---------------------------------------

-------------------------   --------------------
FINAL SINGLE POINT ENERGY     -1977.374009440606
-------------------------   --------------------


                            ***************************************
                            *     ORCA property calculations      *
                            ***************************************


  WARNING: The energy has been calculated at the MP2 level but the densities
           used in the property calculations are still SCF densities
           MP2 response densities have not been calculated 
           use %mp2 Density relaxed end
           or  %mp2 Density unrelaxed end

                                    ---------------------
                                    Active property flags
                                    ---------------------
   (+) Dipole Moment


------------------------------------------------------------------------------
                       ORCA ELECTRIC PROPERTIES CALCULATION
------------------------------------------------------------------------------

Dipole Moment Calculation                       ... on
Quadrupole Moment Calculation                   ... off
Polarizability Calculation                      ... off
GBWName                                         ... _o_3_alde1_5_ami4_1_opt_MP2.gbw
Electron density file                           ... _o_3_alde1_5_ami4_1_opt_MP2.scfp
The origin for moment calculation is the CENTER OF MASS  = (-0.438532, -2.059028 -2.017272)

-------------
DIPOLE MOMENT
-------------
                                X             Y             Z
Electronic contribution:     -8.07006      -2.36566       6.68384
Nuclear contribution   :      7.74762       2.69521      -6.88852
                        -----------------------------------------
Total Dipole Moment    :     -0.32244       0.32955      -0.20467
                        -----------------------------------------
Magnitude (a.u.)       :      0.50444
Magnitude (Debye)      :      1.28218



--------------------
Rotational spectrum 
--------------------
 
Rotational constants in cm-1:     0.002296     0.001962     0.001717 
Rotational constants in MHz :    68.831328    58.807732    51.460111 

 Dipole components along the rotational axes: 
x,y,z [a.u.] :     0.263627     0.255994    -0.345583 
x,y,z [Debye]:     0.670085     0.650684    -0.878403 

 

Timings for individual modules:

Sum of individual times         ...     3986.467 sec (=  66.441 min)
GTO integral calculation        ...       56.049 sec (=   0.934 min)   1.4 %
SCF iterations                  ...     2221.867 sec (=  37.031 min)  55.7 %
MP2 module                      ...     1708.551 sec (=  28.476 min)  42.9 %
                             ****ORCA TERMINATED NORMALLY****
TOTAL RUN TIME: 0 days 1 hours 9 minutes 48 seconds 569 msec
