Job execution start: Thu Mar 10 16:45:36 GMT 2022
Shared library path: /work/e05/e05/atarzia/orca_4_2_1_linux_x86-64_openmpi314:/work/e05/e05/atarzia/openmpi-3.1.4/lib:/opt/cray/pe/papi/6.0.0.6/lib64:/opt/cray/libfabric/1.11.0.4.71/lib64
Slurm Job ID is: 1233833
Slurm Job name is: o_4_alde1_6_ami1_1_opt_MP2
nid004040

                                 *****************
                                 * O   R   C   A *
                                 *****************

           --- An Ab Initio, DFT and Semiempirical electronic structure package ---

                  #######################################################
                  #                        -***-                        #
                  #          Department of theory and spectroscopy      #
                  #               Directorship: Frank Neese             #
                  #        Max Planck Institute fuer Kohlenforschung    #
                  #                Kaiser Wilhelm Platz 1               #
                  #                 D-45470 Muelheim/Ruhr               #
                  #                      Germany                        #
                  #                                                     #
                  #                  All rights reserved                #
                  #                        -***-                        #
                  #######################################################


                         Program Version 4.2.1 -  RELEASE  -


 With contributions from (in alphabetic order):
   Daniel Aravena         : Magnetic Suceptibility
   Michael Atanasov       : Ab Initio Ligand Field Theory (pilot matlab implementation)
   Alexander A. Auer      : GIAO ZORA, VPT2
   Ute Becker             : Parallelization
   Giovanni Bistoni       : ED, misc. LED, open-shell LED, HFLD
   Martin Brehm           : Molecular dynamics
   Dmytro Bykov           : SCF Hessian
   Vijay G. Chilkuri      : MRCI spin determinant printing, contributions to CSF-ICE
   Dipayan Datta          : RHF DLPNO-CCSD density
   Achintya Kumar Dutta   : EOM-CC, STEOM-CC
   Dmitry Ganyushin       : Spin-Orbit,Spin-Spin,Magnetic field MRCI
   Miquel Garcia          : C-PCM Hessian, Gaussian charge scheme
   Yang Guo               : DLPNO-NEVPT2, CIM, IAO-localization
   Andreas Hansen         : Spin unrestricted coupled pair/coupled cluster methods
   Benjamin Helmich-Paris : CASSCF linear response (MC-RPA)
   Lee Huntington         : MR-EOM, pCC
   Robert Izsak           : Overlap fitted RIJCOSX, COSX-SCS-MP3, EOM
   Christian Kollmar      : KDIIS, OOCD, Brueckner-CCSD(T), CCSD density
   Simone Kossmann        : Meta GGA functionals, TD-DFT gradient, OOMP2, MP2 Hessian
   Martin Krupicka        : AUTO-CI
   Lucas Lang             : DCDCAS
   Dagmar Lenk            : GEPOL surface, SMD
   Dimitrios Liakos       : Extrapolation schemes; Compound Job, initial MDCI parallelization
   Dimitrios Manganas     : Further ROCIS development; embedding schemes
   Dimitrios Pantazis     : SARC Basis sets
   Taras Petrenko         : DFT Hessian,TD-DFT gradient, ASA, ECA, R-Raman, ABS, FL, XAS/XES, NRVS
   Peter Pinski           : DLPNO-MP2, DLPNO-MP2 Gradient
   Christoph Reimann      : Effective Core Potentials
   Marius Retegan         : Local ZFS, SOC
   Christoph Riplinger    : Optimizer, TS searches, QM/MM, DLPNO-CCSD(T), (RO)-DLPNO pert. Triples
   Tobias Risthaus        : Range-separated hybrids, TD-DFT gradient, RPA, STAB
   Michael Roemelt        : Original ROCIS implementation
   Masaaki Saitow         : Open-shell DLPNO-CCSD energy and density
   Barbara Sandhoefer     : DKH picture change effects
   Avijit Sen             : IP-ROCIS
   Kantharuban Sivalingam : CASSCF convergence, NEVPT2, FIC-MRCI
   Bernardo de Souza      : ESD, SOC TD-DFT
   Georgi Stoychev        : AutoAux, RI-MP2 NMR
   Willem Van den Heuvel  : Paramagnetic NMR
   Boris Wezisla          : Elementary symmetry handling
   Frank Wennmohs         : Technical directorship


 We gratefully acknowledge several colleagues who have allowed us to
 interface, adapt or use parts of their codes:
   Stefan Grimme, W. Hujo, H. Kruse,             : VdW corrections, initial TS optimization,
                  C. Bannwarth                     DFT functionals, gCP, sTDA/sTD-DF
   Ed Valeev, F. Pavosevic, A. Kumar             : LibInt (2-el integral package), F12 methods
   Garnet Chan, S. Sharma, J. Yang, R. Olivares  : DMRG
   Ulf Ekstrom                                   : XCFun DFT Library
   Mihaly Kallay                                 : mrcc  (arbitrary order and MRCC methods)
   Andreas Klamt, Michael Diedenhofen            : otool_cosmo (COSMO solvation model)
   Jiri Pittner, Ondrej Demel                    : Mk-CCSD
   Frank Weinhold                                : gennbo (NPA and NBO analysis)
   Christopher J. Cramer and Donald G. Truhlar   : smd solvation model
   Lars Goerigk                                  : TD-DFT with DH, B97 family of functionals
   V. Asgeirsson, H. Jonsson                     : NEB implementation
   FAccTs GmbH                                   : IRC, NEB, NEB-TS, Multilevel, MM, QM/MM, CI optimization
   S Lehtola, MJT Oliveira, MAL Marques          : LibXC Library


 Your calculation uses the libint2 library for the computation of 2-el integrals
 For citations please refer to: http://libint.valeyev.net

 Your ORCA version has been built with support for libXC version: 4.2.3
 For citations please refer to: https://tddft.org/programs/libxc/

 This ORCA versions uses:
   CBLAS   interface :  Fast vector & matrix operations
   LAPACKE interface :  Fast linear algebra routines
   SCALAPACK package :  Parallel linear algebra routines




***************************************
The coordinates will be read from file: _o_4_alde1_6_ami1_1_opt_B97-3c.xyz
***************************************


----- Orbital basis set information -----
Your calculation utilizes the basis: cc-pVTZ 
       H, B-Ne : Obtained from the ccRepo (grant-hill.group.shef.ac.uk/ccrepo) Feb. 2017
                 T. H. Dunning, Jr., J. Chem. Phys. 90, 1007 (1989)
            He : Obtained from the ccRepo (grant-hill.group.shef.ac.uk/ccrepo) Feb. 2017
                 D. E. Woon, T. H. Dunning, Jr., J. Chem. Phys. 100, 2975 (1994)
  Li-Be, Na-Mg : Obtained from the ccRepo (grant-hill.group.shef.ac.uk/ccrepo) Feb. 2017
                 B. P. Prascher, D. E. Woon, K. A. Peterson, T. H. Dunning, Jr., A. K. Wilson, Theor. Chem. Acc. 128, 69 (2011)
         Al-Ar : Obtained from the ccRepo (grant-hill.group.shef.ac.uk/ccrepo) Feb. 2017
                 D. E. Woon, T. H. Dunning, Jr., J. Chem. Phys. 98, 1358 (1993)
            Ca : Obtained from the Peterson Research Group Website (tyr0.chem.wsu.edu/~kipeters) Feb. 2017
                 J. Koput, K. A. Peterson, J. Phys. Chem. 106, 9595 (2002)
         Sc-Zn : Obtained from the ccRepo (grant-hill.group.shef.ac.uk/ccrepo) Feb. 2017
                 N. B. Balabanov, K. A. Peterson, J. Chem. Phys. 123, 064107 (2005)
                 N. B. Balabanov, K. A. Peterson, J. Chem. Phys. 125, 074110 (2006)
         Ga-Kr : Obtained from the ccRepo (grant-hill.group.shef.ac.uk/ccrepo) Feb. 2017
                 A. K. Wilson, D. E. Woon, K. A. Peterson, T. H. Dunning, Jr., J. Chem. Phys. 110, 7667 (1999)
             Y : Obtained from the ccRepo (grant-hill.group.shef.ac.uk/ccrepo) Feb. 2017
                 K. A. Peterson, D. Figgen, M. Dolg, H. Stoll, J. Chem. Phys. 126, 124101 (2007)
        Ag, Au : Obtained from the Peterson Research Group Website (tyr0.chem.wsu.edu/~kipeters) Feb. 2017
                 K. A. Peterson, C. Puzzarini, Theor. Chem. Acc. 114, 283 (2005)

----- AuxC basis set information -----
Your calculation utilizes the auxiliary basis: cc-pVTZ/C 
  Obtained from the EMSL Basis Set Exchange (bse.pnl.gov) Feb. 2017
  H-He, B-F, Al-Ar, Ga-Kr : F. Weigend, A. Kohn, C. Hattig, J. Chem. Phys. 116, 3175 (2002)
             Li-Be, Na-Mg : C. Haettig, Phys. Chem. Chem. Phys. 7, 59 (2005)
                       Ne : C. Haettig, Phys. Chem. Chem. Phys. 7, 59 (2005)
                            F. Weigend, A. Kohn, C. Hattig, J. Chem. Phys. 116, 3175 (2002)
                    Sc-Zn : J. G. Hill, J. A. Platts, J. Chem. Phys. 128, 044104 (2008)

================================================================================
                                        WARNINGS
                       Please study these warnings very carefully!
================================================================================


WARNING: No MP2 level density has been requested!
         To caclulate MP2 level properties use
         %mp2 Density relaxed end
         or
         %mp2 Density unrelaxed end

WARNING: Post HF methods need fully converged wavefunctions
  ===> : Setting SCFConvForced true
         You can overwrite this default with %scf ConvForced false 


INFO   : the flag for use of LIBINT has been found!

================================================================================
                                       INPUT FILE
================================================================================
NAME = o_4_alde1_6_ami1_1_opt_MP2.in
|  1> ! RI-MP2 cc-pVTZ cc-pVTZ/C TIGHTSCF printbasis Grid6 NOFINALGRID SlowConv
|  2> 
|  3> %base "_o_4_alde1_6_ami1_1_opt_MP2"
|  4> %maxcore 3000
|  5> %pal
|  6>    nprocs 32
|  7> end
|  8> 
|  9> * xyzfile 0 1 _o_4_alde1_6_ami1_1_opt_B97-3c.xyz
| 10> 
| 11>                          ****END OF INPUT****
================================================================================

                       ****************************
                       * Single Point Calculation *
                       ****************************

---------------------------------
CARTESIAN COORDINATES (ANGSTROEM)
---------------------------------
  C     -0.990858   -0.931563    4.039604
  C     -2.032381   -1.956087    4.113694
  C     -1.312784    0.429912    4.022104
  C     -0.316357    1.394731    4.016188
  H     -2.356357    0.715254    4.033812
  C      1.023719    0.992666    4.006028
  C      1.360995   -0.352661    4.023657
  H      1.792669    1.753814    4.004649
  C      0.342843   -1.312337    4.029507
  C      2.770125   -0.741133    4.081173
  H      0.617598   -2.358694    4.046430
  C     -0.683772    2.809773    4.066056
  H      3.494441    0.068428    3.913949
  H     -1.694147   -2.991048    3.963916
  H     -1.749603    3.030582    3.913599
  C     -3.865475   -1.796027   -0.030837
  C     -4.505121   -1.714598    1.282235
  C     -3.085088   -2.900216   -0.390503
  C     -2.535653   -2.997307   -1.660347
  H     -2.935712   -3.687391    0.336588
  C     -2.751370   -1.964197   -2.578891
  C     -3.522456   -0.862375   -2.239387
  H     -2.320623   -2.052102   -3.567499
  C     -4.069255   -0.781106   -0.954080
  C     -3.785620    0.169001   -3.242824
  H     -4.671822    0.081263   -0.701356
  C     -1.781018   -4.194951   -2.029172
  H     -3.189631    0.100412   -4.163748
  H     -4.963172   -0.746596    1.529578
  H     -1.531340   -4.874163   -1.201942
  C      3.487452   -2.450691   -0.057117
  C      3.756861   -3.031741    1.258101
  C      4.047210   -1.226246   -0.437914
  C      3.837185   -0.715040   -1.710080
  H      4.664675   -0.695349    0.274488
  C      3.037415   -1.428420   -2.609568
  C      2.474622   -2.643787   -2.248922
  H      2.883222   -1.021881   -3.600316
  C      2.696983   -3.144375   -0.961444
  C      1.698778   -3.398758   -3.232800
  H      2.255663   -4.094798   -0.692142
  C      4.490692    0.533939   -2.101053
  H      1.448095   -2.859497   -4.157113
  H      3.151959   -3.910162    1.523613
  H      4.965077    1.098382   -1.285972
  C      0.375561    4.246989   -0.105757
  C      0.762857    4.783216    1.198979
  C     -0.969960    4.115958   -0.466335
  C     -1.325504    3.666145   -1.729329
  H     -1.728351    4.392128    0.254225
  C     -0.320515    3.321260   -2.639635
  C      1.018341    3.445026   -2.299093
  H     -0.609365    2.974529   -3.622977
  C      1.358777    3.900727   -1.020785
  C      2.045697    3.139879   -3.294749
  H      2.406212    3.996496   -0.767136
  C     -2.739201    3.603263   -2.100092
  H      1.690370    2.642901   -4.208400
  H      1.830240    4.703396    1.448656
  H     -3.454163    3.740622   -1.276703
  C     -4.199908   -2.763481    4.452783
  C     -5.243591   -2.536462    3.342331
  N     -3.244385   -1.681055    4.365903
  H     -3.716955   -3.728727    4.249720
  C     -4.778172   -2.824690    5.878366
  N     -4.561077   -2.700840    2.077522
  H     -5.616985   -1.509708    3.454486
  C     -6.458472   -3.480442    3.397010
  H     -5.486030   -3.655846    5.886889
  C     -5.518391   -1.560225    6.289575
  C     -3.676859   -3.160217    6.875718
  H     -6.933931   -3.312767    4.365370
  C     -6.090037   -4.953166    3.292197
  C     -7.469772   -3.094011    2.325514
  H     -2.956094   -2.348146    6.954219
  H     -3.133005   -4.059171    6.583156
  H     -4.093345   -3.332748    7.867309
  H     -5.896248   -1.655391    7.307232
  H     -6.370034   -1.352098    5.644287
  H     -4.856320   -0.698230    6.253590
  H     -7.076656   -3.280816    1.327680
  H     -7.732054   -2.037094    2.386069
  H     -8.387676   -3.670141    2.435110
  H     -6.986102   -5.572281    3.327411
  H     -5.440046   -5.274891    4.103996
  H     -5.575813   -5.155014    2.355447
  C      4.559396   -2.209448    4.408174
  C      4.869420   -3.238052    3.303815
  N      3.142676   -1.925637    4.338875
  H      5.149560   -1.310004    4.187041
  C      4.923051   -2.664280    5.833334
  N      4.650551   -2.578365    2.035251
  H      4.169910   -4.074381    3.435767
  C      6.295909   -3.815812    3.342742
  H      5.996790   -2.861668    5.827572
  C      4.204562   -3.932943    6.269493
  C      4.678074   -1.532085    6.822428
  H      6.404963   -4.298609    4.315824
  C      7.383885   -2.760525    3.206230
  C      6.450830   -4.898199    2.282257
  H      5.049603   -1.796447    7.811658
  H      3.615787   -1.312248    6.913714
  H      5.181126   -0.615133    6.513151
  H      4.493520   -4.202955    7.284916
  H      4.437918   -4.781243    5.628381
  H      3.126642   -3.789973    6.251151
  H      6.399054   -4.477004    1.279742
  H      5.668873   -5.653944    2.365269
  H      7.411137   -5.402458    2.382346
  H      8.369158   -3.225210    3.233722
  H      7.348501   -2.024648    4.007620
  H      7.286783   -2.228282    2.262855
  C     -0.301854    5.096582    4.364384
  C      0.415731    5.868051    3.240287
  N      0.159652    3.727067    4.301413
  H     -1.379334    5.155829    4.160066
  C     -0.066786    5.653349    5.780450
  N     -0.065615    5.335362    1.984473
  H      1.491892    5.682438    3.356929
  C      0.202545    7.392633    3.266386
  H     -0.432119    6.682097    5.770153
  C      1.397898    5.668530    6.193080
  C     -0.909400    4.885944    6.791051
  H      0.582489    7.739153    4.229420
  C     -1.257630    7.805219    3.150729
  C      1.043881    8.057197    2.184376
  H     -1.959987    4.861574    6.499195
  H     -0.849484    5.349500    7.774931
  H     -0.568395    3.856544    6.886869
  H      2.006173    6.286429    5.534877
  H      1.811458    4.662811    6.179672
  H      1.503880    6.065295    7.202444
  H      1.001221    9.141941    2.273860
  H      0.688357    7.791115    1.190443
  H      2.090888    7.759516    2.252839
  H     -1.686492    7.444769    2.218631
  H     -1.347910    8.891049    3.168000
  H     -1.862784    7.415319    3.967282
  C     -0.741566   -5.683170   -3.502050
  C      0.622527   -5.285343   -4.097597
  N     -1.459145   -4.457636   -3.227325
  H     -0.540174   -6.234853   -2.574052
  C     -1.599577   -6.589344   -4.403665
  N      1.360429   -4.607805   -3.054124
  H      0.423257   -4.607924   -4.938773
  C      1.458221   -6.460600   -4.636701
  H     -1.012809   -7.493415   -4.577400
  C     -1.932865   -5.966761   -5.751622
  C     -2.866575   -7.008578   -3.669395
  H      0.857465   -6.931867   -5.416968
  C      1.784238   -7.509393   -3.583380
  C      2.727751   -5.939599   -5.297795
  H     -3.524676   -6.157575   -3.502543
  H     -2.638621   -7.447203   -2.697208
  H     -3.419715   -7.749190   -4.245596
  H     -2.485023   -5.039103   -5.620316
  H     -2.546894   -6.646254   -6.342149
  H     -1.041725   -5.742889   -6.335351
  H      3.264116   -6.747357   -5.794085
  H      3.398973   -5.495298   -4.564890
  H      2.505109   -5.179380   -6.047450
  H      2.383243   -8.309693   -4.017159
  H      0.889308   -7.964330   -3.162442
  H      2.349075   -7.069374   -2.764839
  C     -4.878780    2.027508   -4.145805
  C     -4.544473    3.418496   -3.573911
  N     -4.664934    1.068865   -3.083859
  H     -4.188403    1.846795   -4.980592
  C     -6.311860    1.881024   -4.688968
  N     -3.124985    3.433883   -3.296198
  H     -5.125412    3.535556   -2.649252
  C     -4.899468    4.597809   -4.497653
  H     -6.415932    2.622961   -5.483079
  C     -7.388064    2.141384   -3.645009
  C     -6.491954    0.509469   -5.326603
  H     -5.975341    4.537471   -4.672816
  C     -4.190822    4.551233   -5.843621
  C     -4.631730    5.918139   -3.786855
  H     -5.718603    0.309043   -6.069066
  H     -7.457263    0.439824   -5.826416
  H     -6.446298   -0.280964   -4.579443
  H     -7.336631    3.151136   -3.241571
  H     -7.293170    1.446915   -2.813509
  H     -8.378644    2.014963   -4.081160
  H     -4.996441    6.756381   -4.379155
  H     -3.566109    6.066617   -3.620925
  H     -5.127196    5.957366   -2.816032
  H     -3.111660    4.570996   -5.710646
  H     -4.473475    5.410405   -6.451388
  H     -4.439046    3.655673   -6.410578
  C      5.239171    2.163447   -3.600622
  C      4.204321    3.140015   -4.191745
  N      4.540663    0.931919   -3.304110
  H      5.629453    2.622491   -2.682378
  C      6.440255    1.864921   -4.516306
  N      3.264500    3.453003   -3.137601
  H      3.704711    2.618707   -5.019303
  C      4.797110    4.444338   -4.755239
  H      6.928771    2.823174   -4.703348
  C      6.048784    1.256510   -5.855040
  C      7.445255    0.980816   -3.789351
  H      5.492655    4.149892   -5.543498
  C      5.560140    5.261736   -3.723037
  C      3.702189    5.277876   -5.408354
  H      7.038530   -0.013216   -3.611721
  H      7.723371    1.402869   -2.822906
  H      8.355867    0.867976   -4.376323
  H      5.524098    0.314940   -5.710600
  H      6.935740    1.061468   -6.457316
  H      5.400486    1.912684   -6.433120
  H      2.993994    5.646491   -4.668292
  H      3.142366    4.697964   -6.143063
  H      4.127312    6.140003   -5.920697
  H      6.405519    4.716445   -3.307122
  H      4.909270    5.543718   -2.898692
  H      5.950728    6.173623   -4.174022

----------------------------
CARTESIAN COORDINATES (A.U.)
----------------------------
  NO LB      ZA    FRAG     MASS         X           Y           Z
   0 C     6.0000    0    12.011   -1.872450   -1.760398    7.633744
   1 C     6.0000    0    12.011   -3.840643   -3.696469    7.773756
   2 C     6.0000    0    12.011   -2.480803    0.812416    7.600674
   3 C     6.0000    0    12.011   -0.597828    2.635660    7.589495
   4 H     1.0000    0     1.008   -4.452869    1.351634    7.622800
   5 C     6.0000    0    12.011    1.934548    1.875867    7.570296
   6 C     6.0000    0    12.011    2.571908   -0.666433    7.603610
   7 H     1.0000    0     1.008    3.387653    3.314229    7.567689
   8 C     6.0000    0    12.011    0.647880   -2.479958    7.614664
   9 C     6.0000    0    12.011    5.234777   -1.400539    7.712299
  10 H     1.0000    0     1.008    1.167091   -4.457286    7.646645
  11 C     6.0000    0    12.011   -1.292143    5.309701    7.683732
  12 H     1.0000    0     1.008    6.603537    0.129310    7.396292
  13 H     1.0000    0     1.008   -3.201474   -5.652261    7.490715
  14 H     1.0000    0     1.008   -3.306270    5.726970    7.395630
  15 C     6.0000    0    12.011   -7.304690   -3.394000   -0.058274
  16 C     6.0000    0    12.011   -8.513445   -3.240120    2.423073
  17 C     6.0000    0    12.011   -5.829971   -5.480614   -0.737943
  18 C     6.0000    0    12.011   -4.791690   -5.664089   -3.137602
  19 H     1.0000    0     1.008   -5.547691   -6.968158    0.636059
  20 C     6.0000    0    12.011   -5.199335   -3.711794   -4.873398
  21 C     6.0000    0    12.011   -6.656476   -1.629653   -4.231829
  22 H     1.0000    0     1.008   -4.385342   -3.877912   -6.741596
  23 C     6.0000    0    12.011   -7.689777   -1.476076   -1.802949
  24 C     6.0000    0    12.011   -7.153784    0.319365   -6.128049
  25 H     1.0000    0     1.008   -8.828464    0.153565   -1.325371
  26 C     6.0000    0    12.011   -3.365637   -7.927309   -3.834579
  27 H     1.0000    0     1.008   -6.027529    0.189750   -7.868343
  28 H     1.0000    0     1.008   -9.379035   -1.410862    2.890484
  29 H     1.0000    0     1.008   -2.893813   -9.210834   -2.271342
  30 C     6.0000    0    12.011    6.590328   -4.631134   -0.107935
  31 C     6.0000    0    12.011    7.099438   -5.729159    2.377467
  32 C     6.0000    0    12.011    7.648118   -2.317269   -0.827537
  33 C     6.0000    0    12.011    7.251229   -1.351230   -3.231583
  34 H     1.0000    0     1.008    8.814958   -1.314018    0.518707
  35 C     6.0000    0    12.011    5.739882   -2.699322   -4.931369
  36 C     6.0000    0    12.011    4.676359   -4.996033   -4.249847
  37 H     1.0000    0     1.008    5.448501   -1.931076   -6.803612
  38 C     6.0000    0    12.011    5.096560   -5.942007   -1.816865
  39 C     6.0000    0    12.011    3.210224   -6.422721   -6.109106
  40 H     1.0000    0     1.008    4.262585   -7.738046   -1.307959
  41 C     6.0000    0    12.011    8.486178    1.008998   -3.970415
  42 H     1.0000    0     1.008    2.736502   -5.403666   -7.855804
  43 H     1.0000    0     1.008    5.956339   -7.389136    2.879212
  44 H     1.0000    0     1.008    9.382636    2.075642   -2.430134
  45 C     6.0000    0    12.011    0.709707    8.025646   -0.199851
  46 C     6.0000    0    12.011    1.441592    9.038969    2.265741
  47 C     6.0000    0    12.011   -1.832958    7.778034   -0.881245
  48 C     6.0000    0    12.011   -2.504839    6.928010   -3.267958
  49 H     1.0000    0     1.008   -3.266111    8.299918    0.480415
  50 C     6.0000    0    12.011   -0.605686    6.276272   -4.988187
  51 C     6.0000    0    12.011    1.924385    6.510156   -4.344656
  52 H     1.0000    0     1.008   -1.151532    5.621045   -6.846434
  53 C     6.0000    0    12.011    2.567716    7.371306   -1.929005
  54 C     6.0000    0    12.011    3.865808    5.933511   -6.226173
  55 H     1.0000    0     1.008    4.547081    7.552283   -1.449677
  56 C     6.0000    0    12.011   -5.176339    6.809180   -3.968600
  57 H     1.0000    0     1.008    3.194337    4.994360   -7.952724
  58 H     1.0000    0     1.008    3.458651    8.888131    2.737563
  59 H     1.0000    0     1.008   -6.527422    7.068751   -2.412619
  60 C     6.0000    0    12.011   -7.936676   -5.222222    8.414541
  61 C     6.0000    0    12.011   -9.908951   -4.793218    6.316091
  62 N     7.0000    0    14.007   -6.130999   -3.176734    8.250361
  63 H     1.0000    0     1.008   -7.024027   -7.046272    8.030808
  64 C     6.0000    0    12.011   -9.029437   -5.337890   11.108501
  65 N     7.0000    0    14.007   -8.619187   -5.103848    3.925947
  66 H     1.0000    0     1.008  -10.614563   -2.852935    6.528033
  67 C     6.0000    0    12.011  -12.204744   -6.577082    6.419418
  68 H     1.0000    0     1.008  -10.367094   -6.908548   11.124609
  69 C     6.0000    0    12.011  -10.428248   -2.948398   11.885575
  70 C     6.0000    0    12.011   -6.948256   -5.971945   12.993224
  71 H     1.0000    0     1.008  -13.103230   -6.260222    8.249353
  72 C     6.0000    0    12.011  -11.508502   -9.360128    6.221351
  73 C     6.0000    0    12.011  -14.115823   -5.846833    4.394584
  74 H     1.0000    0     1.008   -5.586208   -4.437353   13.141569
  75 H     1.0000    0     1.008   -5.920521   -7.670721   12.440362
  76 H     1.0000    0     1.008   -7.735301   -6.297980   14.867060
  77 H     1.0000    0     1.008  -11.142293   -3.128235   13.808668
  78 H     1.0000    0     1.008  -12.037619   -2.555095   10.666156
  79 H     1.0000    0     1.008   -9.177115   -1.319463   11.817572
  80 H     1.0000    0     1.008  -13.372941   -6.199843    2.508952
  81 H     1.0000    0     1.008  -14.611464   -3.849549    4.509018
  82 H     1.0000    0     1.008  -15.850411   -6.935561    4.601690
  83 H     1.0000    0     1.008  -13.201819  -10.530085    6.287895
  84 H     1.0000    0     1.008  -10.280197   -9.968100    7.755429
  85 H     1.0000    0     1.008  -10.536759   -9.741565    4.451149
  86 C     6.0000    0    12.011    8.616010   -4.175251    8.330241
  87 C     6.0000    0    12.011    9.201870   -6.119031    6.243306
  88 N     7.0000    0    14.007    5.938797   -3.638926    8.199285
  89 H     1.0000    0     1.008    9.731258   -2.475548    7.912361
  90 C     6.0000    0    12.011    9.303219   -5.034759   11.023404
  91 N     7.0000    0    14.007    8.788267   -4.872403    3.846068
  92 H     1.0000    0     1.008    7.879989   -7.699465    6.492659
  93 C     6.0000    0    12.011   11.897544   -7.210840    6.316867
  94 H     1.0000    0     1.008   11.332291   -5.407769   11.012515
  95 C     6.0000    0    12.011    7.945471   -7.432186   11.847625
  96 C     6.0000    0    12.011    8.840279   -2.895221   12.892520
  97 H     1.0000    0     1.008   12.103625   -8.123194    8.155726
  98 C     6.0000    0    12.011   13.953521   -5.216636    6.058897
  99 C     6.0000    0    12.011   12.190301   -9.256254    4.312840
 100 H     1.0000    0     1.008    9.542366   -3.394793   14.761895
 101 H     1.0000    0     1.008    6.832847   -2.479789   13.065026
 102 H     1.0000    0     1.008    9.790910   -1.162433   12.308072
 103 H     1.0000    0     1.008    8.491522   -7.942435   13.766495
 104 H     1.0000    0     1.008    8.386450   -9.035241   10.636099
 105 H     1.0000    0     1.008    5.908496   -7.162011   11.812963
 106 H     1.0000    0     1.008   12.092460   -8.460311    2.418362
 107 H     1.0000    0     1.008   10.712618  -10.684405    4.469711
 108 H     1.0000    0     1.008   14.005020  -10.209166    4.501982
 109 H     1.0000    0     1.008   15.815416   -6.094764    6.110849
 110 H     1.0000    0     1.008   13.886654   -3.826031    7.573304
 111 H     1.0000    0     1.008   13.770023   -4.210843    4.276176
 112 C     6.0000    0    12.011   -0.570421    9.631145    8.247490
 113 C     6.0000    0    12.011    0.785618   11.089010    6.123256
 114 N     7.0000    0    14.007    0.301699    7.043136    8.128493
 115 H     1.0000    0     1.008   -2.606564    9.743104    7.861385
 116 C     6.0000    0    12.011   -0.126207   10.683282   10.923468
 117 N     7.0000    0    14.007   -0.123994   10.082373    3.750111
 118 H     1.0000    0     1.008    2.819268   10.738251    6.343677
 119 C     6.0000    0    12.011    0.382754   13.970051    6.172575
 120 H     1.0000    0     1.008   -0.816587   12.627333   10.904008
 121 C     6.0000    0    12.011    2.641645   10.711970   11.703225
 122 C     6.0000    0    12.011   -1.718517    9.233095   12.833226
 123 H     1.0000    0     1.008    1.100744   14.624879    7.992445
 124 C     6.0000    0    12.011   -2.376576   14.749726    5.954015
 125 C     6.0000    0    12.011    1.972649   15.225895    4.127872
 126 H     1.0000    0     1.008   -3.703839    9.187043   12.281699
 127 H     1.0000    0     1.008   -1.605292   10.109089   14.692490
 128 H     1.0000    0     1.008   -1.074112    7.287812   13.014297
 129 H     1.0000    0     1.008    3.791118   11.879630   10.459401
 130 H     1.0000    0     1.008    3.423159    8.811436   11.677888
 131 H     1.0000    0     1.008    2.841921   11.461747   13.610647
 132 H     1.0000    0     1.008    1.892033   17.275765    4.296972
 133 H     1.0000    0     1.008    1.300806   14.723074    2.249611
 134 H     1.0000    0     1.008    3.951206   14.663360    4.257249
 135 H     1.0000    0     1.008   -3.187008   14.068575    4.192605
 136 H     1.0000    0     1.008   -2.547181   16.801647    5.986653
 137 H     1.0000    0     1.008   -3.520152   14.012922    7.497077
 138 C     6.0000    0    12.011   -1.401357  -10.739634   -6.617915
 139 C     6.0000    0    12.011    1.176405   -9.987852   -7.743337
 140 N     7.0000    0    14.007   -2.757385   -8.423711   -6.098760
 141 H     1.0000    0     1.008   -1.020780  -11.782165   -4.864253
 142 C     6.0000    0    12.011   -3.022762  -12.452055   -8.321721
 143 N     7.0000    0    14.007    2.570838   -8.707490   -5.771457
 144 H     1.0000    0     1.008    0.799840   -8.707715   -9.332928
 145 C     6.0000    0    12.011    2.755638  -12.208764   -8.762094
 146 H     1.0000    0     1.008   -1.913932  -14.160502   -8.650032
 147 C     6.0000    0    12.011   -3.652586  -11.275545  -10.868991
 148 C     6.0000    0    12.011   -5.417042  -13.244293   -6.934152
 149 H     1.0000    0     1.008    1.620374  -13.099331  -10.236587
 150 C     6.0000    0    12.011    3.371722  -14.190697   -6.771606
 151 C     6.0000    0    12.011    5.154702  -11.224215  -10.011382
 152 H     1.0000    0     1.008   -6.660672  -11.636131   -6.618846
 153 H     1.0000    0     1.008   -4.986271  -14.073173   -5.096984
 154 H     1.0000    0     1.008   -6.462324  -14.643846   -8.023015
 155 H     1.0000    0     1.008   -4.696012   -9.522525  -10.620858
 156 H     1.0000    0     1.008   -4.812932  -12.559600  -11.984925
 157 H     1.0000    0     1.008   -1.968575  -10.852487  -11.972079
 158 H     1.0000    0     1.008    6.168285  -12.750657  -10.949233
 159 H     1.0000    0     1.008    6.423128  -10.384609   -8.626393
 160 H     1.0000    0     1.008    4.733970   -9.787609  -11.428025
 161 H     1.0000    0     1.008    4.503676  -15.703043   -7.591330
 162 H     1.0000    0     1.008    1.680548  -15.050402   -5.976150
 163 H     1.0000    0     1.008    4.439109  -13.359180   -5.224788
 164 C     6.0000    0    12.011   -9.219558    3.831434   -7.834437
 165 C     6.0000    0    12.011   -8.587809    6.460020   -6.753713
 166 N     7.0000    0    14.007   -8.815449    2.019861   -5.827650
 167 H     1.0000    0     1.008   -7.914934    3.489937   -9.411954
 168 C     6.0000    0    12.011  -11.927687    3.554621   -8.860865
 169 N     7.0000    0    14.007   -5.905365    6.489099   -6.228912
 170 H     1.0000    0     1.008   -9.685625    6.681232   -5.006361
 171 C     6.0000    0    12.011   -9.258653    8.688599   -8.499333
 172 H     1.0000    0     1.008  -12.124354    4.956678  -10.361518
 173 C     6.0000    0    12.011  -13.961418    4.046630   -6.888069
 174 C     6.0000    0    12.011  -12.268016    0.962757  -10.065822
 175 H     1.0000    0     1.008  -11.291758    8.574578   -8.830342
 176 C     6.0000    0    12.011   -7.919506    8.600584  -11.042844
 177 C     6.0000    0    12.011   -8.752701   11.183662   -7.156119
 178 H     1.0000    0     1.008  -10.806593    0.584007  -11.468872
 179 H     1.0000    0     1.008  -14.092184    0.831148  -11.010330
 180 H     1.0000    0     1.008  -12.181738   -0.530945   -8.653893
 181 H     1.0000    0     1.008  -13.864222    5.954785   -6.125682
 182 H     1.0000    0     1.008  -13.782095    2.734274   -5.316762
 183 H     1.0000    0     1.008  -15.833342    3.807728   -7.712274
 184 H     1.0000    0     1.008   -9.441905   12.767709   -8.275404
 185 H     1.0000    0     1.008   -6.738970   11.464245   -6.842556
 186 H     1.0000    0     1.008   -9.688995   11.257789   -5.321530
 187 H     1.0000    0     1.008   -5.880186    8.637930  -10.791557
 188 H     1.0000    0     1.008   -8.453642   10.224184  -12.191356
 189 H     1.0000    0     1.008   -8.388581    6.908222  -12.114237
 190 C     6.0000    0    12.011    9.900599    4.088322   -6.804189
 191 C     6.0000    0    12.011    7.945015    5.933768   -7.921250
 192 N     7.0000    0    14.007    8.580609    1.761071   -6.243863
 193 H     1.0000    0     1.008   10.638124    4.955790   -5.068960
 194 C     6.0000    0    12.011   12.170318    3.524190   -8.534582
 195 N     7.0000    0    14.007    6.169010    6.525230   -5.929206
 196 H     1.0000    0     1.008    7.000889    4.948639   -9.485108
 197 C     6.0000    0    12.011    9.065223    8.398581   -8.986099
 198 H     1.0000    0     1.008   13.093480    5.335026   -8.888039
 199 C     6.0000    0    12.011   11.430544    2.374460  -11.064422
 200 C     6.0000    0    12.011   14.069492    1.853474   -7.160836
 201 H     1.0000    0     1.008   10.379614    7.842160  -10.475694
 202 C     6.0000    0    12.011   10.507142    9.943240   -7.035521
 203 C     6.0000    0    12.011    6.996124    9.973740  -10.220307
 204 H     1.0000    0     1.008   13.300894   -0.024975   -6.825163
 205 H     1.0000    0     1.008   14.595057    2.651039   -5.334520
 206 H     1.0000    0     1.008   15.790301    1.640237   -8.270053
 207 H     1.0000    0     1.008   10.439033    0.595150  -10.791471
 208 H     1.0000    0     1.008   13.106650    2.005883  -12.202559
 209 H     1.0000    0     1.008   10.205440    3.614449  -12.156835
 210 H     1.0000    0     1.008    5.657829   10.670323   -8.821793
 211 H     1.0000    0     1.008    5.938211    8.877866  -11.608708
 212 H     1.0000    0     1.008    7.799489   11.602925  -11.188496
 213 H     1.0000    0     1.008   12.104678    8.912790   -6.249556
 214 H     1.0000    0     1.008    9.277175   10.476108   -5.477734
 215 H     1.0000    0     1.008   11.245245   11.666456   -7.887758

--------------------------------
INTERNAL COORDINATES (ANGSTROEM)
--------------------------------
 C      0   0   0     0.000000000000     0.00000000     0.00000000
 C      1   0   0     1.462843171883     0.00000000     0.00000000
 C      1   2   0     1.399126915996   121.22028699     0.00000000
 C      3   1   2     1.387003283913   120.77379103   176.89709405
 H      3   1   2     1.081943119347   118.58286398   358.13612056
 C      4   3   1     1.399129188149   119.22329956     1.02859253
 C      6   4   3     1.387073024701   120.76520453   358.95205206
 H      6   4   3     1.081957728153   118.59099346   180.19083631
 C      1   2   3     1.387029208015   119.51899084   177.91249747
 C      7   6   4     1.462827526724   119.49192047   183.09475188
 H      9   1   2     1.081961233674   120.63422331     1.81156405
 C      4   3   1     1.462813386502   119.49254318   183.07154885
 H     10   7   6     1.099084817366   115.67316387   348.73428608
 H      2   1   3     1.099081009581   115.68959990   170.79608951
 H     12   4   3     1.099087801452   115.66969746   348.80331887
 C      2   1   3     4.534644173864   102.52128500    72.49100425
 C     16   2   1     1.462851932645    50.08378001   232.39293694
 C     16   2   1     1.399141622293    88.94682174    98.63646620
 C     18  16   2     1.387015015466   120.76604912   217.28283923
 H     18  16   2     1.081950829735   118.58302969    38.52195665
 C     19  18  16     1.399132912447   119.22810253     1.04205862
 C     21  19  18     1.387028240606   120.76909457   358.95355962
 H     21  19  18     1.081949918477   118.58726152   180.19198285
 C     16   2   1     1.387071815417   133.91251586   327.31955657
 C     22  21  19     1.462831881059   119.48448350   183.06326865
 H     24  16   2     1.081959620355   120.63351137   300.39438371
 C     19  18  16     1.462824871178   119.50471515   183.08406721
 H     25  22  21     1.099093914454   115.67122899   348.69238368
 H     17  16   2     1.099097825398   115.67424324   113.16050379
 H     27  19  18     1.099080306378   115.68209583   348.74832072
 C     10   7   6     4.534598776611   102.51051603   250.34068602
 C     31  10   7     1.462873599383    50.08788621   232.36791583
 C     31  10   7     1.399142473445    88.95345300    98.61645807
 C     33  31  10     1.387029045640   120.76977909   217.29006466
 H     33  31  10     1.081957211454   118.58946516    38.52172645
 C     34  33  31     1.399150067042   119.22757328     1.02303433
 C     36  34  33     1.387053721141   120.76585379   358.97978756
 H     36  34  33     1.081956830645   118.59203638   180.20801978
 C     31  10   7     1.387027129613   133.90008375   327.30789705
 C     37  36  34     1.462850658202   119.50719938   183.06484962
 H     39  31  10     1.081938795351   120.63102373   300.40539532
 C     34  33  31     1.462832599593   119.48353518   183.07433586
 H     40  37  36     1.099089789147   115.68167074   348.83582838
 H     32  31  10     1.099103114254   115.67583974   113.15084726
 H     42  34  33     1.099088533265   115.66392507   348.70257911
 C     12   4   3     4.537818905088   102.49771505   250.37548616
 C     46  12   4     1.462830383300    50.05295447   232.32522791
 C     46  12   4     1.399146089267    89.01260625    98.59552550
 C     48  46  12     1.387046582492   120.76656447   217.30338192
 H     48  46  12     1.081958211371   118.59029574    38.52864722
 C     49  48  46     1.399144103772   119.22533153     1.03141377
 C     51  49  48     1.387019044412   120.77117767   358.96612493
 H     51  49  48     1.081951212101   118.59085691   180.18646695
 C     46  12   4     1.387043374535   133.86025096   327.23778119
 C     52  51  49     1.462842667470   119.48475670   183.02808696
 H     54  46  12     1.081956250632   120.62967247   300.46005383
 C     49  48  46     1.462859852519   119.50112548   183.05064204
 H     55  52  51     1.099091626508   115.66241629   348.79342802
 H     47  46  12     1.099097171167   115.66524579   113.26700737
 H     57  49  48     1.099094654957   115.68313134   348.77544032
 C      2   1   3     2.337742328072   155.41958492   347.13695604
 C     61   2   1     1.540751409646   118.20550293    76.23665319
 N      2   1   3     1.268150284154   122.59129022   349.15523821
 H     61   2   1     1.098261452166    82.47258741   181.64982422
 C     61   2   1     1.539617424869   119.75413500   287.59259999
 N     17  16   2     1.268182041132   122.60895038   291.51768720
 H     62  61   2     1.098282782252   107.12426085   279.01789076
 C     62  61   2     1.539488600797   114.74692013   159.72982052
 H     65  61   2     1.091767152198   106.32060420   209.41736221
 C     65  61   2     1.521804410156   113.56911649    90.34395957
 C     65  61   2     1.523214345968   110.08843106   325.23194020
 H     68  62  61     1.091740334813   106.32020805    59.73533645
 C     68  62  61     1.521725046895   113.57323904   300.65274788
 C     68  62  61     1.523206920146   110.08360373   175.53823576
 H     71  65  61     1.088633787025   111.19832891    67.45230690
 H     71  65  61     1.090636062266   111.49748208   307.23737111
 H     71  65  61     1.089257230150   110.76264747   187.29720643
 H     70  65  61     1.089704961712   110.39224950   180.56907221
 H     70  65  61     1.088581214616   112.28550238    60.76063641
 H     70  65  61     1.087505752143   110.70357994   300.26869495
 H     74  68  62     1.088626345566   111.19190894    67.40569060
 H     74  68  62     1.090656896272   111.49699106   307.19706785
 H     74  68  62     1.089259155550   110.76409823   187.25530578
 H     73  68  62     1.089713388953   110.39760370   180.50162422
 H     73  68  62     1.088583157927   112.28605339    60.69117115
 H     73  68  62     1.087506629315   110.69804922   300.19948549
 C     10   7   6     2.337599321734   155.45580760   165.03418048
 C     87  10   7     1.540697313018   118.23604414    76.18192204
 N     10   7   6     1.268169309032   122.61690595   167.07259827
 H     87  10   7     1.098268112549    82.45693155   181.60029416
 C     87  10   7     1.539544867501   119.72688775   287.53261803
 N     32  31  10     1.268145938197   122.59861981   291.50646388
 H     88  87  10     1.098258717689   107.10440162   278.98722338
 C     88  87  10     1.539543674536   114.76313344   159.70195830
 H     91  87  10     1.091746551925   106.31046054   209.36341878
 C     91  87  10     1.521830814315   113.58276865    90.28569101
 C     91  87  10     1.523215063881   110.09141675   325.17545053
 H     94  88  87     1.091730238683   106.32304475    59.57782934
 C     94  88  87     1.521827084524   113.57288793   300.49187713
 C     94  88  87     1.523217239042   110.07837502   175.40106976
 H     97  91  87     1.089264566031   110.76044367   187.22629849
 H     97  91  87     1.088630662579   111.19157398    67.38560389
 H     97  91  87     1.090648528858   111.50602733   307.16653116
 H     96  91  87     1.089718218954   110.39141099   180.41452547
 H     96  91  87     1.088619239315   112.31026362    60.60237307
 H     96  91  87     1.087515670658   110.70321049   300.10532750
 H    100  94  88     1.088632916279   111.18444769    67.39560044
 H    100  94  88     1.090640789514   111.49894576   307.18525621
 H    100  94  88     1.089259490638   110.77213694   187.23749640
 H     99  94  88     1.089701819173   110.39164416   180.37271695
 H     99  94  88     1.088573333485   112.30187304    60.54771331
 H     99  94  88     1.087505792389   110.69283574   300.07223673
 C     12   4   3     2.337597030066   155.45563428   165.15684683
 C    113  12   4     1.540676641807   118.21860714    76.15514349
 N     12   4   3     1.268143449120   122.61499158   167.15623683
 H    113  12   4     1.098280741135    82.45781234   181.56608610
 C    113  12   4     1.539639947933   119.74149468   287.49744193
 N     47  46  12     1.268161411973   122.62188977   291.62006441
 H    114 113  12     1.098262932872   107.11376030   278.93733575
 C    114 113  12     1.539635412591   114.77010863   159.64922095
 H    117 113  12     1.091740192825   106.31929492   209.31837102
 C    117 113  12     1.521773162139   113.57472017    90.23096628
 C    117 113  12     1.523227980712   110.09433030   325.12885407
 H    120 114 113     1.091726476365   106.32384922    59.64714708
 C    120 114 113     1.521747092211   113.58131546   300.57609601
 C    120 114 113     1.523232913386   110.09017382   175.45941117
 H    123 117 113     1.090644880349   111.50455087   307.11302272
 H    123 117 113     1.089263060853   110.75922040   187.17832762
 H    123 117 113     1.088636223988   111.19277467    67.33802497
 H    122 117 113     1.088590371821   112.30426495    60.51807823
 H    122 117 113     1.087511806093   110.69821114   300.02861191
 H    122 117 113     1.089711342274   110.38936598   180.33985009
 H    126 120 114     1.089264772692   110.76207283   187.24064143
 H    126 120 114     1.088622616540   111.19432769    67.40191381
 H    126 120 114     1.090653571573   111.50384231   307.17988978
 H    125 120 114     1.087498812114   110.71244591   300.07658185
 H    125 120 114     1.089713121290   110.39261775   180.37439821
 H    125 120 114     1.088573728283   112.29032985    60.56650940
 C     27  19  18     2.337653769602   155.43193808   165.06886564
 C    139  27  19     1.540678914114   118.21983910    76.22312708
 N     27  19  18     1.268138553130   122.59828339   167.10120424
 H    139  27  19     1.098223293043    82.46917766   181.62570006
 C    139  27  19     1.539559408325   119.72855396   287.56320513
 N     40  37  36     1.268148658400   122.60096733   167.18345155
 H    140 139  27     1.098262680335   107.13880623   278.89019057
 C    140 139  27     1.539559711596   114.76144825   159.59637816
 H    143 139  27     1.091707434807   106.32504548   209.25454574
 C    143 139  27     1.521735241771   113.57857968    90.13715932
 C    143 139  27     1.523218454132   110.07547903   325.05714294
 H    146 140 139     1.091704276159   106.32587643    59.66357444
 C    146 140 139     1.521755694076   113.58003830   300.57946884
 C    146 140 139     1.523218482315   110.07698335   175.48414097
 H    149 143 139     1.088641973517   111.19620674    67.36123806
 H    149 143 139     1.090643298792   111.50195903   307.13950191
 H    149 143 139     1.089255322840   110.76473097   187.20130014
 H    148 143 139     1.087505820882   110.68563557   300.18619514
 H    148 143 139     1.089708279302   110.38508365   180.50185640
 H    148 143 139     1.088572226217   112.32386998    60.67874258
 H    152 146 140     1.089249339899   110.76313036   187.23702630
 H    152 146 140     1.088619217745   111.17962561    67.39439840
 H    152 146 140     1.090634954176   111.50586572   307.17893363
 H    151 146 140     1.089701577537   110.38905673   180.55090456
 H    151 146 140     1.088602663056   112.30566025    60.73904959
 H    151 146 140     1.087505029068   110.69526209   300.24652856
 C     25  22  21     2.337610742039   155.45735171   165.00779272
 C    165  25  22     1.540672569326   118.22547109    76.19650799
 N     25  22  21     1.268155969210   122.61898982   167.04022068
 H    165  25  22     1.098246680009    82.46271835   181.61783481
 C    165  25  22     1.539545811796   119.73163768   287.54737543
 N     57  49  48     1.268143279733   122.60084114   167.13531933
 H    166 165  25     1.098265785791   107.09602693   279.02812597
 C    166 165  25     1.539513419170   114.76159792   159.73334360
 H    169 165  25     1.091748165931   106.30176261   209.32496652
 C    169 165  25     1.521792356566   113.57714779    90.24297854
 C    169 165  25     1.523212682765   110.08537764   325.14145388
 H    172 166 165     1.091707483997   106.33062473    59.59247232
 C    172 166 165     1.521833573193   113.56967361   300.49574912
 C    172 166 165     1.523217227149   110.08845204   175.41479400
 H    175 169 165     1.090639041772   111.50666644   307.19929457
 H    175 169 165     1.089257719355   110.75873026   187.25832189
 H    175 169 165     1.088630894268   111.19378228    67.41847582
 H    174 169 165     1.088580261779   112.30426571    60.71364610
 H    174 169 165     1.087512780973   110.70461039   300.22912659
 H    174 169 165     1.089705376364   110.39220903   180.52633870
 H    178 172 166     1.089257608934   110.76003052   187.21446209
 H    178 172 166     1.088634754825   111.18645522    67.37857506
 H    178 172 166     1.090652017049   111.51213057   307.15730161
 H    177 172 166     1.087503226147   110.69416867   300.06586533
 H    177 172 166     1.089701558593   110.38763770   180.37225285
 H    177 172 166     1.088614893618   112.31018502    60.55056526
 C     42  34  33     2.337568091975   155.46213929   164.94133561
 C    191  42  34     1.540787318480   118.22178654    76.32110134
 N     42  34  33     1.268160592342   122.62235949   167.03161153
 H    191  42  34     1.098277390742    82.46092343   181.75589446
 C    191  42  34     1.539544778162   119.74793447   287.66900101
 N     55  52  51     1.268156480697   122.62380727   167.15969563
 H    192 191  42     1.098282288928   107.08361373   279.02225521
 C    192 191  42     1.539539583264   114.75803200   159.74234610
 H    195 191  42     1.091733687119   106.30777817   209.43471868
 C    195 191  42     1.521716306855   113.58334963    90.34339832
 C    195 191  42     1.523196926576   110.08604711   325.24249748
 H    198 192 191     1.091711930970   106.32533415    59.70913124
 C    198 192 191     1.521773984384   113.57006345   300.62564584
 C    198 192 191     1.523218830040   110.10706668   175.53573423
 H    201 195 191     1.088612878529   111.18385009    67.46791888
 H    201 195 191     1.090638994328   111.50285178   307.25935934
 H    201 195 191     1.089258983982   110.76482638   187.30585710
 H    200 195 191     1.087525645637   110.69731004   300.01865053
 H    200 195 191     1.089711311752   110.38976492   180.33168334
 H    200 195 191     1.088591240501   112.29563014    60.50967975
 H    204 198 192     1.088627363719   111.18793939    67.38538524
 H    204 198 192     1.090640951872   111.52116208   307.15877763
 H    204 198 192     1.089260815216   110.74728423   187.21244169
 H    203 198 192     1.088573938334   112.30167741    60.54847211
 H    203 198 192     1.087515998179   110.69123119   300.05974728
 H    203 198 192     1.089716580343   110.39483861   180.36478413

---------------------------
INTERNAL COORDINATES (A.U.)
---------------------------
 C      0   0   0     0.000000000000     0.00000000     0.00000000
 C      1   0   0     2.764372971735     0.00000000     0.00000000
 C      1   2   0     2.643966697830   121.22028699     0.00000000
 C      3   1   2     2.621056353444   120.77379103   176.89709405
 H      3   1   2     2.044576188047   118.58286398   358.13612056
 C      4   3   1     2.643970991577   119.22329956     1.02859253
 C      6   4   3     2.621188144434   120.76520453   358.95205206
 H      6   4   3     2.044603794688   118.59099346   180.19083631
 C      1   2   3     2.621105342897   119.51899084   177.91249747
 C      7   6   4     2.764343406669   119.49192047   183.09475188
 H      9   1   2     2.044610419163   120.63422331     1.81156405
 C      4   3   1     2.764316685522   119.49254318   183.07154885
 H     10   7   6     2.076969302772   115.67316387   348.73428608
 H      2   1   3     2.076962107101   115.68959990   170.79608951
 H     12   4   3     2.076974941878   115.66969746   348.80331887
 C      2   1   3     8.569235603384   102.52128500    72.49100425
 C     16   2   1     2.764389527176    50.08378001   232.39293694
 C     16   2   1     2.643994488704    88.94682174    98.63646620
 C     18  16   2     2.621078522867   120.76604912   217.28283923
 H     18  16   2     2.044590758569   118.58302969    38.52195665
 C     19  18  16     2.643978029481   119.22810253     1.04205862
 C     21  19  18     2.621103514760   120.76909457   358.95355962
 H     21  19  18     2.044589036540   118.58726152   180.19198285
 C     16   2   1     2.621185859218   133.91251586   327.31955657
 C     22  21  19     2.764351635171   119.48448350   183.06326865
 H     24  16   2     2.044607370432   120.63351137   300.39438371
 C     19  18  16     2.764338388416   119.50471515   183.08406721
 H     25  22  21     2.076986493778   115.67122899   348.69238368
 H     17  16   2     2.076993884390   115.67424324   113.16050379
 H     27  19  18     2.076960778242   115.68209583   348.74832072
 C     10   7   6     8.569149815010   102.51051603   250.34068602
 C     31  10   7     2.764430471377    50.08788621   232.36791583
 C     31  10   7     2.643996097148    88.95345300    98.61645807
 C     33  31  10     2.621105036055   120.76977909   217.29006466
 H     33  31  10     2.044602818269   118.58946516    38.52172645
 C     34  33  31     2.644010446967   119.22757328     1.02303433
 C     36  34  33     2.621151665993   120.76585379   358.97978756
 H     36  34  33     2.044602098645   118.59203638   180.20801978
 C     31  10   7     2.621101415288   133.90008375   327.30789705
 C     37  36  34     2.764387118828   119.50719938   183.06484962
 H     39  31  10     2.044568016877   120.63102373   300.40539532
 C     34  33  31     2.764352993003   119.48353518   183.07433586
 H     40  37  36     2.076978698078   115.68167074   348.83582838
 H     32  31  10     2.077003878880   115.67583974   113.15084726
 H     42  34  33     2.076976324804   115.66392507   348.70257911
 C     12   4   3     8.575234975947   102.49771505   250.37548616
 C     46  12   4     2.764348804817    50.05295447   232.32522791
 C     46  12   4     2.644002930061    89.01260625    98.59552550
 C     48  46  12     2.621138175902   120.76656447   217.30338192
 H     48  46  12     2.044604707838   118.59029574    38.52864722
 C     49  48  46     2.643999178020   119.22533153     1.03141377
 C     51  49  48     2.621086136471   120.77117767   358.96612493
 H     51  49  48     2.044591481136   118.59085691   180.18646695
 C     46  12   4     2.621132113742   133.86025096   327.23778119
 C     52  51  49     2.764372018532   119.48475670   183.02808696
 H     54  46  12     2.044601002578   120.62967247   300.46005383
 C     49  48  46     2.764404493570   119.50112548   183.05064204
 H     55  52  51     2.076982170187   115.66241629   348.79342802
 H     47  46  12     2.076992648073   115.66524579   113.26700737
 H     57  49  48     2.076987893125   115.68313134   348.77544032
 C      2   1   3     4.417692771732   155.41958492   347.13695604
 C     61   2   1     2.911598204685   118.20550293    76.23665319
 N      2   1   3     2.396456733706   122.59129022   349.15523821
 H     61   2   1     2.075413368036    82.47258741   181.64982422
 C     61   2   1     2.909455284015   119.75413500   287.59259999
 N     17  16   2     2.396516745697   122.60895038   291.51768720
 H     62  61   2     2.075453676057   107.12426085   279.01789076
 C     62  61   2     2.909211841800   114.74692013   159.72982052
 H     65  61   2     2.063140919665   106.32060420   209.41736221
 C     65  61   2     2.875793564589   113.56911649    90.34395957
 C     65  61   2     2.878457957140   110.08843106   325.23194020
 H     68  62  61     2.063090242153   106.32020805    59.73533645
 C     68  62  61     2.875643589761   113.57323904   300.65274788
 C     68  62  61     2.878443924370   110.08360373   175.53823576
 H     71  65  61     2.057219717611   111.19832891    67.45230690
 H     71  65  61     2.061003469460   111.49748208   307.23737111
 H     71  65  61     2.058397854378   110.76264747   187.29720643
 H     70  65  61     2.059243944410   110.39224950   180.56907221
 H     70  65  61     2.057120370156   112.28550238    60.76063641
 H     70  65  61     2.055088040614   110.70357994   300.26869495
 H     74  68  62     2.057205655291   111.19190894    67.40569060
 H     74  68  62     2.061042840027   111.49699106   307.19706785
 H     74  68  62     2.058401492856   110.76409823   187.25530578
 H     73  68  62     2.059259869588   110.39760370   180.50162422
 H     73  68  62     2.057124042481   112.28605339    60.69117115
 H     73  68  62     2.055089698229   110.69804922   300.19948549
 C     10   7   6     4.417422528917   155.45580760   165.03418048
 C     87  10   7     2.911495976872   118.23604414    76.18192204
 N     10   7   6     2.396492685514   122.61690595   167.07259827
 H     87  10   7     2.075425954336    82.45693155   181.60029416
 C     87  10   7     2.909318170460   119.72688775   287.53261803
 N     32  31  10     2.396448521038   122.59861981   291.50646388
 H     88  87  10     2.075408200625   107.10440162   278.98722338
 C     88  87  10     2.909315916084   114.76313344   159.70195830
 H     91  87  10     2.063101990791   106.31046054   209.36341878
 C     91  87  10     2.875843461217   113.58276865    90.28569101
 C     91  87  10     2.878459313799   110.09141675   325.17545053
 H     94  88  87     2.063071163232   106.32304475    59.57782934
 C     94  88  87     2.875836412933   113.57288793   300.49187713
 C     94  88  87     2.878463424257   110.07837502   175.40106976
 H     97  91  87     2.058411717184   110.76044367   187.22629849
 H     97  91  87     2.057213813263   111.19157398    67.38560389
 H     97  91  87     2.061027027905   111.50602733   307.16653116
 H     96  91  87     2.059268996967   110.39141099   180.41452547
 H     96  91  87     2.057192226424   112.31026362    60.60237307
 H     96  91  87     2.055106783890   110.70321049   300.10532750
 H    100  94  88     2.057218072139   111.18444769    67.39560044
 H    100  94  88     2.061012402665   111.49894576   307.18525621
 H    100  94  88     2.058402126080   110.77213694   187.23749640
 H     99  94  88     2.059238005873   110.39164416   180.37271695
 H     99  94  88     2.057105476977   112.30187304    60.54771331
 H     99  94  88     2.055088116667   110.69283574   300.07223673
 C     12   4   3     4.417418198293   155.45563428   165.15684683
 C    113  12   4     2.911456913946   118.21860714    76.15514349
 N     12   4   3     2.396443817362   122.61499158   167.15623683
 H    113  12   4     2.075449818906    82.45781234   181.56608610
 C    113  12   4     2.909497846439   119.74149468   287.49744193
 N     47  46  12     2.396477762236   122.62188977   291.62006441
 H    114 113  12     2.075416166165   107.11376030   278.93733575
 C    114 113  12     2.909489275883   114.77010863   159.64922095
 H    117 113  12     2.063089973834   106.31929492   209.31837102
 C    117 113  12     2.875734514394   113.57472017    90.23096628
 C    117 113  12     2.878483723071   110.09433030   325.12885407
 H    120 114 113     2.063064053480   106.32384922    59.64714708
 C    120 114 113     2.875685249371   113.58131546   300.57609601
 C    120 114 113     2.878493044474   110.09017382   175.45941117
 H    123 117 113     2.061020133223   111.50455087   307.11302272
 H    123 117 113     2.058408872810   110.75922040   187.17832762
 H    123 117 113     2.057224322803   111.19277467    67.33802497
 H    122 117 113     2.057137674765   112.30426495    60.51807823
 H    122 117 113     2.055099480922   110.69821114   300.02861191
 H    122 117 113     2.059256001926   110.38936598   180.33985009
 H    126 120 114     2.058412107716   110.76207283   187.24064143
 H    126 120 114     2.057198608453   111.19432769    67.40191381
 H    126 120 114     2.061036557256   111.50384231   307.17988978
 H    125 120 114     2.055074925861   110.71244591   300.07658185
 H    125 120 114     2.059259363779   110.39261775   180.37439821
 H    125 120 114     2.057106223037   112.29032985    60.56650940
 C     27  19  18     4.417525420475   155.43193808   165.06886564
 C    139  27  19     2.911461207982   118.21983910    76.22312708
 N     27  19  18     2.396434565282   122.59828339   167.10120424
 H    139  27  19     2.075341257745    82.46917766   181.62570006
 C    139  27  19     2.909345648635   119.72855396   287.56320513
 N     40  37  36     2.396453661476   122.60096733   167.18345155
 H    140 139  27     2.075415688940   107.13880623   278.89019057
 C    140 139  27     2.909346221735   114.76144825   159.59637816
 H    143 139  27     2.063028070151   106.32504548   209.25454574
 C    143 139  27     2.875662855284   113.57857968    90.13715932
 C    143 139  27     2.878465720445   110.07547903   325.05714294
 H    146 140 139     2.063022101171   106.32587643    59.66357444
 C    146 140 139     2.875701504540   113.58003830   300.57946884
 C    146 140 139     2.878465773702   110.07698335   175.48414097
 H    149 143 139     2.057235187839   111.19620674    67.36123806
 H    149 143 139     2.061017144513   111.50195903   307.13950191
 H    149 143 139     2.058394250083   110.76473097   187.20130014
 H    148 143 139     2.055088170511   110.68563557   300.18619514
 H    148 143 139     2.059250213747   110.38508365   180.50185640
 H    148 143 139     2.057103384544   112.32386998    60.67874258
 H    152 146 140     2.058382943964   110.76313036   187.23702630
 H    152 146 140     2.057192185662   111.17962561    67.39439840
 H    152 146 140     2.061001375475   111.50586572   307.17893363
 H    151 146 140     2.059237549247   110.38905673   180.55090456
 H    151 146 140     2.057160901834   112.30566025    60.73904959
 H    151 146 140     2.055086674200   110.69526209   300.24652856
 C     25  22  21     4.417444110167   155.45735171   165.00779272
 C    165  25  22     2.911449218071   118.22547109    76.19650799
 N     25  22  21     2.396467476905   122.61898982   167.04022068
 H    165  25  22     2.075385452705    82.46271835   181.61783481
 C    165  25  22     2.909319954920   119.73163768   287.54737543
 N     57  49  48     2.396443497267   122.60084114   167.13531933
 H    166 165  25     2.075421557401   107.09602693   279.02812597
 C    166 165  25     2.909258741728   114.76159792   159.73334360
 H    169 165  25     2.063105040821   106.30176261   209.32496652
 C    169 165  25     2.875770786604   113.57714779    90.24297854
 C    169 165  25     2.878454814141   110.08537764   325.14145388
 H    172 166 165     2.063028163107   106.33062473    59.59247232
 C    172 166 165     2.875848674741   113.56967361   300.49574912
 C    172 166 165     2.878463401783   110.08845204   175.41479400
 H    175 169 165     2.061009099910   111.50666644   307.19929457
 H    175 169 165     2.058398778841   110.75873026   187.25832189
 H    175 169 165     2.057214251093   111.19378228    67.41847582
 H    174 169 165     2.057118569555   112.30426571    60.71364610
 H    174 169 165     2.055101323178   110.70461039   300.22912659
 H    174 169 165     2.059244727989   110.39220903   180.52633870
 H    178 172 166     2.058398570175   110.76003052   187.21446209
 H    178 172 166     2.057221546487   111.18645522    67.37857506
 H    178 172 166     2.061033619632   111.51213057   307.15730161
 H    177 172 166     2.055083267173   110.69416867   300.06586533
 H    177 172 166     2.059237513448   110.38763770   180.37225285
 H    177 172 166     2.057184014247   112.31018502    60.55056526
 C     42  34  33     4.417363513225   155.46213929   164.94133561
 C    191  42  34     2.911666062545   118.22178654    76.32110134
 N     42  34  33     2.396476213358   122.62235949   167.03161153
 H    191  42  34     2.075443487579    82.46092343   181.75589446
 C    191  42  34     2.909318001634   119.74793447   287.66900101
 N     55  52  51     2.396468443474   122.62380727   167.15969563
 H    192 191  42     2.075452743811   107.08361373   279.02225521
 C    192 191  42     2.909308184701   114.75803200   159.74234610
 H    195 191  42     2.063077679831   106.30777817   209.43471868
 C    195 191  42     2.875627073478   113.58334963    90.34339832
 C    195 191  42     2.878425039259   110.08604711   325.24249748
 H    198 192 191     2.063036566668   106.32533415    59.70913124
 C    198 192 191     2.875736068212   113.57006345   300.62564584
 C    198 192 191     2.878466430807   110.10706668   175.53573423
 H    201 195 191     2.057180206279   111.18385009    67.46791888
 H    201 195 191     2.061009010255   111.50285178   307.25935934
 H    201 195 191     2.058401168640   110.76482638   187.30585710
 H    200 195 191     2.055125633870   110.69731004   300.01865053
 H    200 195 191     2.059255944247   110.38976492   180.33168334
 H    200 195 191     2.057139316332   112.29563014    60.50967975
 H    204 198 192     2.057207579321   111.18793939    67.38538524
 H    204 198 192     2.061012709478   111.52116208   307.15877763
 H    204 198 192     2.058404629171   110.74728423   187.21244169
 H    203 198 192     2.057106619975   112.30167741    60.54847211
 H    203 198 192     2.055107402816   110.69123119   300.05974728
 H    203 198 192     2.059265900441   110.39483861   180.36478413

---------------------
BASIS SET INFORMATION
---------------------
There are 3 groups of distinct atoms

 Group   1 Type C   : 18s5p2d1f contracted to 4s3p2d1f pattern {8811/311/11/1}
 Group   2 Type H   : 5s2p1d contracted to 3s2p1d pattern {311/11/1}
 Group   3 Type N   : 18s5p2d1f contracted to 4s3p2d1f pattern {8811/311/11/1}

Atom   0C    basis set group =>   1
Atom   1C    basis set group =>   1
Atom   2C    basis set group =>   1
Atom   3C    basis set group =>   1
Atom   4H    basis set group =>   2
Atom   5C    basis set group =>   1
Atom   6C    basis set group =>   1
Atom   7H    basis set group =>   2
Atom   8C    basis set group =>   1
Atom   9C    basis set group =>   1
Atom  10H    basis set group =>   2
Atom  11C    basis set group =>   1
Atom  12H    basis set group =>   2
Atom  13H    basis set group =>   2
Atom  14H    basis set group =>   2
Atom  15C    basis set group =>   1
Atom  16C    basis set group =>   1
Atom  17C    basis set group =>   1
Atom  18C    basis set group =>   1
Atom  19H    basis set group =>   2
Atom  20C    basis set group =>   1
Atom  21C    basis set group =>   1
Atom  22H    basis set group =>   2
Atom  23C    basis set group =>   1
Atom  24C    basis set group =>   1
Atom  25H    basis set group =>   2
Atom  26C    basis set group =>   1
Atom  27H    basis set group =>   2
Atom  28H    basis set group =>   2
Atom  29H    basis set group =>   2
Atom  30C    basis set group =>   1
Atom  31C    basis set group =>   1
Atom  32C    basis set group =>   1
Atom  33C    basis set group =>   1
Atom  34H    basis set group =>   2
Atom  35C    basis set group =>   1
Atom  36C    basis set group =>   1
Atom  37H    basis set group =>   2
Atom  38C    basis set group =>   1
Atom  39C    basis set group =>   1
Atom  40H    basis set group =>   2
Atom  41C    basis set group =>   1
Atom  42H    basis set group =>   2
Atom  43H    basis set group =>   2
Atom  44H    basis set group =>   2
Atom  45C    basis set group =>   1
Atom  46C    basis set group =>   1
Atom  47C    basis set group =>   1
Atom  48C    basis set group =>   1
Atom  49H    basis set group =>   2
Atom  50C    basis set group =>   1
Atom  51C    basis set group =>   1
Atom  52H    basis set group =>   2
Atom  53C    basis set group =>   1
Atom  54C    basis set group =>   1
Atom  55H    basis set group =>   2
Atom  56C    basis set group =>   1
Atom  57H    basis set group =>   2
Atom  58H    basis set group =>   2
Atom  59H    basis set group =>   2
Atom  60C    basis set group =>   1
Atom  61C    basis set group =>   1
Atom  62N    basis set group =>   3
Atom  63H    basis set group =>   2
Atom  64C    basis set group =>   1
Atom  65N    basis set group =>   3
Atom  66H    basis set group =>   2
Atom  67C    basis set group =>   1
Atom  68H    basis set group =>   2
Atom  69C    basis set group =>   1
Atom  70C    basis set group =>   1
Atom  71H    basis set group =>   2
Atom  72C    basis set group =>   1
Atom  73C    basis set group =>   1
Atom  74H    basis set group =>   2
Atom  75H    basis set group =>   2
Atom  76H    basis set group =>   2
Atom  77H    basis set group =>   2
Atom  78H    basis set group =>   2
Atom  79H    basis set group =>   2
Atom  80H    basis set group =>   2
Atom  81H    basis set group =>   2
Atom  82H    basis set group =>   2
Atom  83H    basis set group =>   2
Atom  84H    basis set group =>   2
Atom  85H    basis set group =>   2
Atom  86C    basis set group =>   1
Atom  87C    basis set group =>   1
Atom  88N    basis set group =>   3
Atom  89H    basis set group =>   2
Atom  90C    basis set group =>   1
Atom  91N    basis set group =>   3
Atom  92H    basis set group =>   2
Atom  93C    basis set group =>   1
Atom  94H    basis set group =>   2
Atom  95C    basis set group =>   1
Atom  96C    basis set group =>   1
Atom  97H    basis set group =>   2
Atom  98C    basis set group =>   1
Atom  99C    basis set group =>   1
Atom 100H    basis set group =>   2
Atom 101H    basis set group =>   2
Atom 102H    basis set group =>   2
Atom 103H    basis set group =>   2
Atom 104H    basis set group =>   2
Atom 105H    basis set group =>   2
Atom 106H    basis set group =>   2
Atom 107H    basis set group =>   2
Atom 108H    basis set group =>   2
Atom 109H    basis set group =>   2
Atom 110H    basis set group =>   2
Atom 111H    basis set group =>   2
Atom 112C    basis set group =>   1
Atom 113C    basis set group =>   1
Atom 114N    basis set group =>   3
Atom 115H    basis set group =>   2
Atom 116C    basis set group =>   1
Atom 117N    basis set group =>   3
Atom 118H    basis set group =>   2
Atom 119C    basis set group =>   1
Atom 120H    basis set group =>   2
Atom 121C    basis set group =>   1
Atom 122C    basis set group =>   1
Atom 123H    basis set group =>   2
Atom 124C    basis set group =>   1
Atom 125C    basis set group =>   1
Atom 126H    basis set group =>   2
Atom 127H    basis set group =>   2
Atom 128H    basis set group =>   2
Atom 129H    basis set group =>   2
Atom 130H    basis set group =>   2
Atom 131H    basis set group =>   2
Atom 132H    basis set group =>   2
Atom 133H    basis set group =>   2
Atom 134H    basis set group =>   2
Atom 135H    basis set group =>   2
Atom 136H    basis set group =>   2
Atom 137H    basis set group =>   2
Atom 138C    basis set group =>   1
Atom 139C    basis set group =>   1
Atom 140N    basis set group =>   3
Atom 141H    basis set group =>   2
Atom 142C    basis set group =>   1
Atom 143N    basis set group =>   3
Atom 144H    basis set group =>   2
Atom 145C    basis set group =>   1
Atom 146H    basis set group =>   2
Atom 147C    basis set group =>   1
Atom 148C    basis set group =>   1
Atom 149H    basis set group =>   2
Atom 150C    basis set group =>   1
Atom 151C    basis set group =>   1
Atom 152H    basis set group =>   2
Atom 153H    basis set group =>   2
Atom 154H    basis set group =>   2
Atom 155H    basis set group =>   2
Atom 156H    basis set group =>   2
Atom 157H    basis set group =>   2
Atom 158H    basis set group =>   2
Atom 159H    basis set group =>   2
Atom 160H    basis set group =>   2
Atom 161H    basis set group =>   2
Atom 162H    basis set group =>   2
Atom 163H    basis set group =>   2
Atom 164C    basis set group =>   1
Atom 165C    basis set group =>   1
Atom 166N    basis set group =>   3
Atom 167H    basis set group =>   2
Atom 168C    basis set group =>   1
Atom 169N    basis set group =>   3
Atom 170H    basis set group =>   2
Atom 171C    basis set group =>   1
Atom 172H    basis set group =>   2
Atom 173C    basis set group =>   1
Atom 174C    basis set group =>   1
Atom 175H    basis set group =>   2
Atom 176C    basis set group =>   1
Atom 177C    basis set group =>   1
Atom 178H    basis set group =>   2
Atom 179H    basis set group =>   2
Atom 180H    basis set group =>   2
Atom 181H    basis set group =>   2
Atom 182H    basis set group =>   2
Atom 183H    basis set group =>   2
Atom 184H    basis set group =>   2
Atom 185H    basis set group =>   2
Atom 186H    basis set group =>   2
Atom 187H    basis set group =>   2
Atom 188H    basis set group =>   2
Atom 189H    basis set group =>   2
Atom 190C    basis set group =>   1
Atom 191C    basis set group =>   1
Atom 192N    basis set group =>   3
Atom 193H    basis set group =>   2
Atom 194C    basis set group =>   1
Atom 195N    basis set group =>   3
Atom 196H    basis set group =>   2
Atom 197C    basis set group =>   1
Atom 198H    basis set group =>   2
Atom 199C    basis set group =>   1
Atom 200C    basis set group =>   1
Atom 201H    basis set group =>   2
Atom 202C    basis set group =>   1
Atom 203C    basis set group =>   1
Atom 204H    basis set group =>   2
Atom 205H    basis set group =>   2
Atom 206H    basis set group =>   2
Atom 207H    basis set group =>   2
Atom 208H    basis set group =>   2
Atom 209H    basis set group =>   2
Atom 210H    basis set group =>   2
Atom 211H    basis set group =>   2
Atom 212H    basis set group =>   2
Atom 213H    basis set group =>   2
Atom 214H    basis set group =>   2
Atom 215H    basis set group =>   2

-------------------------
BASIS SET IN INPUT FORMAT
-------------------------

 # Basis set for element : H 
 NewGTO H 
 S 3 
   1      33.8700000000      0.0254948632
   2       5.0950000000      0.1903627659
   3       1.1590000000      0.8521620222
 S 1 
   1       0.3258000000      1.0000000000
 S 1 
   1       0.1027000000      1.0000000000
 P 1 
   1       1.4070000000      1.0000000000
 P 1 
   1       0.3880000000      1.0000000000
 D 1 
   1       1.0570000000      1.0000000000
  end;

 # Basis set for element : C 
 NewGTO C 
 S 8 
   1    8236.0000000000      0.0005424302
   2    1235.0000000000      0.0041964279
   3     280.8000000000      0.0215409141
   4      79.2700000000      0.0836149496
   5      25.5900000000      0.2398716189
   6       8.9970000000      0.4437518201
   7       3.3190000000      0.3535796965
   8       0.3643000000     -0.0091763661
 S 8 
   1    8236.0000000000     -0.0001963922
   2    1235.0000000000     -0.0015259503
   3     280.8000000000     -0.0078904490
   4      79.2700000000     -0.0315148705
   5      25.5900000000     -0.0969100083
   6       8.9970000000     -0.2205415263
   7       3.3190000000     -0.2960691129
   8       0.3643000000      1.0405034329
 S 1 
   1       0.9059000000      1.0000000000
 S 1 
   1       0.1285000000      1.0000000000
 P 3 
   1      18.7100000000      0.0394263872
   2       4.1330000000      0.2440889849
   3       1.2000000000      0.8154920089
 P 1 
   1       0.3827000000      1.0000000000
 P 1 
   1       0.1209000000      1.0000000000
 D 1 
   1       1.0970000000      1.0000000000
 D 1 
   1       0.3180000000      1.0000000000
 F 1 
   1       0.7610000000      1.0000000000
  end;

 # Basis set for element : N 
 NewGTO N 
 S 8 
   1   11420.0000000000      0.0005349809
   2    1712.0000000000      0.0041376631
   3     389.3000000000      0.0212509149
   4     110.0000000000      0.0825762988
   5      35.5700000000      0.2384132727
   6      12.5400000000      0.4434316661
   7       4.6440000000      0.3554319088
   8       0.5118000000     -0.0087029018
 S 8 
   1   11420.0000000000     -0.0001987770
   2    1712.0000000000     -0.0015470035
   3     389.3000000000     -0.0079925633
   4     110.0000000000     -0.0320255651
   5      35.5700000000     -0.0991102048
   6      12.5400000000     -0.2282927747
   7       4.6440000000     -0.2981827627
   8       0.5118000000      1.0370005182
 S 1 
   1       1.2930000000      1.0000000000
 S 1 
   1       0.1787000000      1.0000000000
 P 3 
   1      26.6300000000      0.0398072123
   2       5.9480000000      0.2490026605
   3       1.7420000000      0.8104797267
 P 1 
   1       0.5550000000      1.0000000000
 P 1 
   1       0.1725000000      1.0000000000
 D 1 
   1       1.6540000000      1.0000000000
 D 1 
   1       0.4690000000      1.0000000000
 F 1 
   1       1.0930000000      1.0000000000
  end;

---------------------------------
AUXILIARY/C BASIS SET INFORMATION
---------------------------------
There are 3 groups of distinct atoms

 Group   1 Type C   : 8s6p5d3f1g contracted to 8s6p5d3f1g pattern {11111111/111111/11111/111/1}
 Group   2 Type H   : 4s3p2d1f contracted to 4s3p2d1f pattern {1111/111/11/1}
 Group   3 Type N   : 8s6p5d3f1g contracted to 8s6p5d3f1g pattern {11111111/111111/11111/111/1}

Atom   0C    basis set group =>   1
Atom   1C    basis set group =>   1
Atom   2C    basis set group =>   1
Atom   3C    basis set group =>   1
Atom   4H    basis set group =>   2
Atom   5C    basis set group =>   1
Atom   6C    basis set group =>   1
Atom   7H    basis set group =>   2
Atom   8C    basis set group =>   1
Atom   9C    basis set group =>   1
Atom  10H    basis set group =>   2
Atom  11C    basis set group =>   1
Atom  12H    basis set group =>   2
Atom  13H    basis set group =>   2
Atom  14H    basis set group =>   2
Atom  15C    basis set group =>   1
Atom  16C    basis set group =>   1
Atom  17C    basis set group =>   1
Atom  18C    basis set group =>   1
Atom  19H    basis set group =>   2
Atom  20C    basis set group =>   1
Atom  21C    basis set group =>   1
Atom  22H    basis set group =>   2
Atom  23C    basis set group =>   1
Atom  24C    basis set group =>   1
Atom  25H    basis set group =>   2
Atom  26C    basis set group =>   1
Atom  27H    basis set group =>   2
Atom  28H    basis set group =>   2
Atom  29H    basis set group =>   2
Atom  30C    basis set group =>   1
Atom  31C    basis set group =>   1
Atom  32C    basis set group =>   1
Atom  33C    basis set group =>   1
Atom  34H    basis set group =>   2
Atom  35C    basis set group =>   1
Atom  36C    basis set group =>   1
Atom  37H    basis set group =>   2
Atom  38C    basis set group =>   1
Atom  39C    basis set group =>   1
Atom  40H    basis set group =>   2
Atom  41C    basis set group =>   1
Atom  42H    basis set group =>   2
Atom  43H    basis set group =>   2
Atom  44H    basis set group =>   2
Atom  45C    basis set group =>   1
Atom  46C    basis set group =>   1
Atom  47C    basis set group =>   1
Atom  48C    basis set group =>   1
Atom  49H    basis set group =>   2
Atom  50C    basis set group =>   1
Atom  51C    basis set group =>   1
Atom  52H    basis set group =>   2
Atom  53C    basis set group =>   1
Atom  54C    basis set group =>   1
Atom  55H    basis set group =>   2
Atom  56C    basis set group =>   1
Atom  57H    basis set group =>   2
Atom  58H    basis set group =>   2
Atom  59H    basis set group =>   2
Atom  60C    basis set group =>   1
Atom  61C    basis set group =>   1
Atom  62N    basis set group =>   3
Atom  63H    basis set group =>   2
Atom  64C    basis set group =>   1
Atom  65N    basis set group =>   3
Atom  66H    basis set group =>   2
Atom  67C    basis set group =>   1
Atom  68H    basis set group =>   2
Atom  69C    basis set group =>   1
Atom  70C    basis set group =>   1
Atom  71H    basis set group =>   2
Atom  72C    basis set group =>   1
Atom  73C    basis set group =>   1
Atom  74H    basis set group =>   2
Atom  75H    basis set group =>   2
Atom  76H    basis set group =>   2
Atom  77H    basis set group =>   2
Atom  78H    basis set group =>   2
Atom  79H    basis set group =>   2
Atom  80H    basis set group =>   2
Atom  81H    basis set group =>   2
Atom  82H    basis set group =>   2
Atom  83H    basis set group =>   2
Atom  84H    basis set group =>   2
Atom  85H    basis set group =>   2
Atom  86C    basis set group =>   1
Atom  87C    basis set group =>   1
Atom  88N    basis set group =>   3
Atom  89H    basis set group =>   2
Atom  90C    basis set group =>   1
Atom  91N    basis set group =>   3
Atom  92H    basis set group =>   2
Atom  93C    basis set group =>   1
Atom  94H    basis set group =>   2
Atom  95C    basis set group =>   1
Atom  96C    basis set group =>   1
Atom  97H    basis set group =>   2
Atom  98C    basis set group =>   1
Atom  99C    basis set group =>   1
Atom 100H    basis set group =>   2
Atom 101H    basis set group =>   2
Atom 102H    basis set group =>   2
Atom 103H    basis set group =>   2
Atom 104H    basis set group =>   2
Atom 105H    basis set group =>   2
Atom 106H    basis set group =>   2
Atom 107H    basis set group =>   2
Atom 108H    basis set group =>   2
Atom 109H    basis set group =>   2
Atom 110H    basis set group =>   2
Atom 111H    basis set group =>   2
Atom 112C    basis set group =>   1
Atom 113C    basis set group =>   1
Atom 114N    basis set group =>   3
Atom 115H    basis set group =>   2
Atom 116C    basis set group =>   1
Atom 117N    basis set group =>   3
Atom 118H    basis set group =>   2
Atom 119C    basis set group =>   1
Atom 120H    basis set group =>   2
Atom 121C    basis set group =>   1
Atom 122C    basis set group =>   1
Atom 123H    basis set group =>   2
Atom 124C    basis set group =>   1
Atom 125C    basis set group =>   1
Atom 126H    basis set group =>   2
Atom 127H    basis set group =>   2
Atom 128H    basis set group =>   2
Atom 129H    basis set group =>   2
Atom 130H    basis set group =>   2
Atom 131H    basis set group =>   2
Atom 132H    basis set group =>   2
Atom 133H    basis set group =>   2
Atom 134H    basis set group =>   2
Atom 135H    basis set group =>   2
Atom 136H    basis set group =>   2
Atom 137H    basis set group =>   2
Atom 138C    basis set group =>   1
Atom 139C    basis set group =>   1
Atom 140N    basis set group =>   3
Atom 141H    basis set group =>   2
Atom 142C    basis set group =>   1
Atom 143N    basis set group =>   3
Atom 144H    basis set group =>   2
Atom 145C    basis set group =>   1
Atom 146H    basis set group =>   2
Atom 147C    basis set group =>   1
Atom 148C    basis set group =>   1
Atom 149H    basis set group =>   2
[...]
148 C      6.3335     6.0000    -0.3335     3.8909     3.8909    -0.0000
149 H      0.8829     1.0000     0.1171     0.9729     0.9729    -0.0000
150 C      6.3153     6.0000    -0.3153     3.8735     3.8735    -0.0000
151 C      6.3336     6.0000    -0.3336     3.8910     3.8910    -0.0000
152 H      0.8955     1.0000     0.1045     0.9836     0.9836    -0.0000
153 H      0.9050     1.0000     0.0950     0.9814     0.9814    -0.0000
154 H      0.8914     1.0000     0.1086     0.9815     0.9815    -0.0000
155 H      0.8887     1.0000     0.1113     0.9875     0.9875    -0.0000
156 H      0.8955     1.0000     0.1045     0.9809     0.9809    -0.0000
157 H      0.9058     1.0000     0.0942     0.9793     0.9793    -0.0000
158 H      0.8914     1.0000     0.1086     0.9815     0.9815    -0.0000
159 H      0.8954     1.0000     0.1046     0.9835     0.9835    -0.0000
160 H      0.9050     1.0000     0.0950     0.9814     0.9814    -0.0000
161 H      0.8954     1.0000     0.1046     0.9809     0.9809    -0.0000
162 H      0.9058     1.0000     0.0942     0.9792     0.9792    -0.0000
163 H      0.8887     1.0000     0.1113     0.9874     0.9874    -0.0000
164 C      5.9524     6.0000     0.0476     3.9000     3.9000    -0.0000
165 C      5.9523     6.0000     0.0477     3.8999     3.8999    -0.0000
166 N      7.2765     7.0000    -0.2765     2.9494     2.9494    -0.0000
167 H      0.8918     1.0000     0.1082     0.9915     0.9915    -0.0000
168 C      6.0730     6.0000    -0.0730     3.7913     3.7913    -0.0000
169 N      7.2764     7.0000    -0.2764     2.9493     2.9493    -0.0000
170 H      0.8918     1.0000     0.1082     0.9915     0.9915    -0.0000
171 C      6.0732     6.0000    -0.0732     3.7915     3.7915    -0.0000
172 H      0.8829     1.0000     0.1171     0.9728     0.9728    -0.0000
173 C      6.3153     6.0000    -0.3153     3.8735     3.8735    -0.0000
174 C      6.3336     6.0000    -0.3336     3.8910     3.8910    -0.0000
175 H      0.8828     1.0000     0.1172     0.9728     0.9728    -0.0000
176 C      6.3151     6.0000    -0.3151     3.8736     3.8736    -0.0000
177 C      6.3336     6.0000    -0.3336     3.8910     3.8910    -0.0000
178 H      0.9050     1.0000     0.0950     0.9814     0.9814    -0.0000
179 H      0.8914     1.0000     0.1086     0.9815     0.9815    -0.0000
180 H      0.8954     1.0000     0.1046     0.9835     0.9835    -0.0000
181 H      0.9058     1.0000     0.0942     0.9792     0.9792    -0.0000
182 H      0.8887     1.0000     0.1113     0.9875     0.9875    -0.0000
183 H      0.8955     1.0000     0.1045     0.9809     0.9809    -0.0000
184 H      0.8914     1.0000     0.1086     0.9815     0.9815    -0.0000
185 H      0.8955     1.0000     0.1045     0.9836     0.9836    -0.0000
186 H      0.9050     1.0000     0.0950     0.9814     0.9814    -0.0000
187 H      0.8887     1.0000     0.1113     0.9874     0.9874    -0.0000
188 H      0.8955     1.0000     0.1045     0.9809     0.9809    -0.0000
189 H      0.9059     1.0000     0.0941     0.9793     0.9793    -0.0000
190 C      5.9523     6.0000     0.0477     3.9001     3.9001    -0.0000
191 C      5.9524     6.0000     0.0476     3.9000     3.9000    -0.0000
192 N      7.2766     7.0000    -0.2766     2.9494     2.9494    -0.0000
193 H      0.8918     1.0000     0.1082     0.9915     0.9915    -0.0000
194 C      6.0730     6.0000    -0.0730     3.7911     3.7911    -0.0000
195 N      7.2766     7.0000    -0.2766     2.9494     2.9494    -0.0000
196 H      0.8917     1.0000     0.1083     0.9914     0.9914    -0.0000
197 C      6.0731     6.0000    -0.0731     3.7913     3.7913    -0.0000
198 H      0.8828     1.0000     0.1172     0.9728     0.9728    -0.0000
199 C      6.3152     6.0000    -0.3152     3.8736     3.8736    -0.0000
200 C      6.3337     6.0000    -0.3337     3.8911     3.8911    -0.0000
201 H      0.8827     1.0000     0.1173     0.9728     0.9728    -0.0000
202 C      6.3152     6.0000    -0.3152     3.8736     3.8736    -0.0000
203 C      6.3337     6.0000    -0.3337     3.8911     3.8911    -0.0000
204 H      0.8954     1.0000     0.1046     0.9835     0.9835    -0.0000
205 H      0.9050     1.0000     0.0950     0.9814     0.9814    -0.0000
206 H      0.8914     1.0000     0.1086     0.9815     0.9815    -0.0000
207 H      0.8887     1.0000     0.1113     0.9875     0.9875     0.0000
208 H      0.8954     1.0000     0.1046     0.9809     0.9809    -0.0000
209 H      0.9059     1.0000     0.0941     0.9793     0.9793    -0.0000
210 H      0.8954     1.0000     0.1046     0.9835     0.9835     0.0000
211 H      0.9050     1.0000     0.0950     0.9814     0.9814    -0.0000
212 H      0.8915     1.0000     0.1085     0.9815     0.9815    -0.0000
213 H      0.9059     1.0000     0.0941     0.9793     0.9793    -0.0000
214 H      0.8887     1.0000     0.1113     0.9875     0.9875    -0.0000
215 H      0.8955     1.0000     0.1045     0.9809     0.9809    -0.0000

  Mayer bond orders larger than 0.100000
B(  0-C ,  1-C ) :   0.9924 B(  0-C ,  2-C ) :   1.2920 B(  0-C ,  8-C ) :   1.3925 
B(  1-C , 13-H ) :   0.9918 B(  1-C , 62-N ) :   1.9529 B(  2-C ,  3-C ) :   1.3925 
B(  2-C ,  4-H ) :   0.9672 B(  3-C ,  5-C ) :   1.2920 B(  3-C , 11-C ) :   0.9926 
B(  5-C ,  6-C ) :   1.3925 B(  5-C ,  7-H ) :   0.9673 B(  6-C ,  8-C ) :   1.2920 
B(  6-C ,  9-C ) :   0.9925 B(  8-C , 10-H ) :   0.9673 B(  9-C , 12-H ) :   0.9918 
B(  9-C , 88-N ) :   1.9529 B( 11-C , 14-H ) :   0.9918 B( 11-C ,114-N ) :   1.9530 
B( 15-C , 16-C ) :   0.9925 B( 15-C , 17-C ) :   1.2921 B( 15-C , 23-C ) :   1.3924 
B( 16-C , 28-H ) :   0.9918 B( 16-C , 65-N ) :   1.9529 B( 17-C , 18-C ) :   1.3924 
B( 17-C , 19-H ) :   0.9673 B( 18-C , 20-C ) :   1.2920 B( 18-C , 26-C ) :   0.9924 
B( 20-C , 21-C ) :   1.3924 B( 20-C , 22-H ) :   0.9673 B( 21-C , 23-C ) :   1.2920 
B( 21-C , 24-C ) :   0.9925 B( 23-C , 25-H ) :   0.9673 B( 24-C , 27-H ) :   0.9918 
B( 24-C ,166-N ) :   1.9529 B( 26-C , 29-H ) :   0.9918 B( 26-C ,140-N ) :   1.9529 
B( 30-C , 31-C ) :   0.9924 B( 30-C , 32-C ) :   1.2920 B( 30-C , 38-C ) :   1.3925 
B( 31-C , 43-H ) :   0.9918 B( 31-C , 91-N ) :   1.9530 B( 32-C , 33-C ) :   1.3924 
B( 32-C , 34-H ) :   0.9673 B( 33-C , 35-C ) :   1.2920 B( 33-C , 41-C ) :   0.9926 
B( 35-C , 36-C ) :   1.3925 B( 35-C , 37-H ) :   0.9673 B( 36-C , 38-C ) :   1.2920 
B( 36-C , 39-C ) :   0.9925 B( 38-C , 40-H ) :   0.9672 B( 39-C , 42-H ) :   0.9919 
B( 39-C ,143-N ) :   1.9528 B( 41-C , 44-H ) :   0.9918 B( 41-C ,192-N ) :   1.9529 
B( 45-C , 46-C ) :   0.9927 B( 45-C , 47-C ) :   1.2920 B( 45-C , 53-C ) :   1.3925 
B( 46-C , 58-H ) :   0.9919 B( 46-C ,117-N ) :   1.9529 B( 47-C , 48-C ) :   1.3925 
B( 47-C , 49-H ) :   0.9673 B( 48-C , 50-C ) :   1.2920 B( 48-C , 56-C ) :   0.9924 
B( 50-C , 51-C ) :   1.3925 B( 50-C , 52-H ) :   0.9673 B( 51-C , 53-C ) :   1.2920 
B( 51-C , 54-C ) :   0.9926 B( 53-C , 55-H ) :   0.9673 B( 54-C , 57-H ) :   0.9918 
B( 54-C ,195-N ) :   1.9530 B( 56-C , 59-H ) :   0.9918 B( 56-C ,169-N ) :   1.9530 
B( 60-C , 61-C ) :   0.9796 B( 60-C , 62-N ) :   0.9271 B( 60-C , 63-H ) :   0.9759 
B( 60-C , 64-C ) :   0.9426 B( 61-C , 65-N ) :   0.9271 B( 61-C , 66-H ) :   0.9758 
B( 61-C , 67-C ) :   0.9426 B( 64-C , 68-H ) :   0.9789 B( 64-C , 69-C ) :   0.9493 
B( 64-C , 70-C ) :   0.9479 B( 67-C , 71-H ) :   0.9789 B( 67-C , 72-C ) :   0.9493 
B( 67-C , 73-C ) :   0.9479 B( 69-C , 77-H ) :   0.9874 B( 69-C , 78-H ) :   0.9839 
B( 69-C , 79-H ) :   0.9741 B( 70-C , 74-H ) :   0.9812 B( 70-C , 75-H ) :   0.9860 
B( 70-C , 76-H ) :   0.9878 B( 72-C , 83-H ) :   0.9874 B( 72-C , 84-H ) :   0.9839 
B( 72-C , 85-H ) :   0.9741 B( 73-C , 80-H ) :   0.9812 B( 73-C , 81-H ) :   0.9860 
B( 73-C , 82-H ) :   0.9878 B( 86-C , 87-C ) :   0.9798 B( 86-C , 88-N ) :   0.9271 
B( 86-C , 89-H ) :   0.9759 B( 86-C , 90-C ) :   0.9427 B( 87-C , 91-N ) :   0.9271 
B( 87-C , 92-H ) :   0.9759 B( 87-C , 93-C ) :   0.9427 B( 90-C , 94-H ) :   0.9789 
B( 90-C , 95-C ) :   0.9493 B( 90-C , 96-C ) :   0.9479 B( 93-C , 97-H ) :   0.9789 
B( 93-C , 98-C ) :   0.9493 B( 93-C , 99-C ) :   0.9480 B( 95-C ,103-H ) :   0.9874 
B( 95-C ,104-H ) :   0.9839 B( 95-C ,105-H ) :   0.9741 B( 96-C ,100-H ) :   0.9878 
B( 96-C ,101-H ) :   0.9812 B( 96-C ,102-H ) :   0.9860 B( 98-C ,109-H ) :   0.9874 
B( 98-C ,110-H ) :   0.9839 B( 98-C ,111-H ) :   0.9741 B( 99-C ,106-H ) :   0.9812 
B( 99-C ,107-H ) :   0.9860 B( 99-C ,108-H ) :   0.9877 B(112-C ,113-C ) :   0.9798 
B(112-C ,114-N ) :   0.9271 B(112-C ,115-H ) :   0.9759 B(112-C ,116-C ) :   0.9427 
B(113-C ,117-N ) :   0.9271 B(113-C ,118-H ) :   0.9759 B(113-C ,119-C ) :   0.9427 
B(116-C ,120-H ) :   0.9789 B(116-C ,121-C ) :   0.9493 B(116-C ,122-C ) :   0.9480 
B(119-C ,123-H ) :   0.9789 B(119-C ,124-C ) :   0.9492 B(119-C ,125-C ) :   0.9479 
B(121-C ,129-H ) :   0.9839 B(121-C ,130-H ) :   0.9741 B(121-C ,131-H ) :   0.9874 
B(122-C ,126-H ) :   0.9860 B(122-C ,127-H ) :   0.9877 B(122-C ,128-H ) :   0.9812 
B(124-C ,135-H ) :   0.9741 B(124-C ,136-H ) :   0.9874 B(124-C ,137-H ) :   0.9839 
B(125-C ,132-H ) :   0.9877 B(125-C ,133-H ) :   0.9812 B(125-C ,134-H ) :   0.9860 
B(138-C ,139-C ) :   0.9798 B(138-C ,140-N ) :   0.9271 B(138-C ,141-H ) :   0.9759 
B(138-C ,142-C ) :   0.9427 B(139-C ,143-N ) :   0.9271 B(139-C ,144-H ) :   0.9759 
B(139-C ,145-C ) :   0.9427 B(142-C ,146-H ) :   0.9789 B(142-C ,147-C ) :   0.9493 
B(142-C ,148-C ) :   0.9480 B(145-C ,149-H ) :   0.9789 B(145-C ,150-C ) :   0.9492 
B(145-C ,151-C ) :   0.9479 B(147-C ,155-H ) :   0.9741 B(147-C ,156-H ) :   0.9874 
B(147-C ,157-H ) :   0.9839 B(148-C ,152-H ) :   0.9812 B(148-C ,153-H ) :   0.9860 
B(148-C ,154-H ) :   0.9877 B(150-C ,161-H ) :   0.9874 B(150-C ,162-H ) :   0.9839 
B(150-C ,163-H ) :   0.9741 B(151-C ,158-H ) :   0.9878 B(151-C ,159-H ) :   0.9812 
B(151-C ,160-H ) :   0.9860 B(164-C ,165-C ) :   0.9798 B(164-C ,166-N ) :   0.9271 
B(164-C ,167-H ) :   0.9759 B(164-C ,168-C ) :   0.9427 B(165-C ,169-N ) :   0.9270 
B(165-C ,170-H ) :   0.9759 B(165-C ,171-C ) :   0.9427 B(168-C ,172-H ) :   0.9789 
B(168-C ,173-C ) :   0.9493 B(168-C ,174-C ) :   0.9479 B(171-C ,175-H ) :   0.9789 
B(171-C ,176-C ) :   0.9493 B(171-C ,177-C ) :   0.9480 B(173-C ,181-H ) :   0.9839 
B(173-C ,182-H ) :   0.9741 B(173-C ,183-H ) :   0.9874 B(174-C ,178-H ) :   0.9860 
B(174-C ,179-H ) :   0.9878 B(174-C ,180-H ) :   0.9812 B(176-C ,187-H ) :   0.9741 
B(176-C ,188-H ) :   0.9874 B(176-C ,189-H ) :   0.9839 B(177-C ,184-H ) :   0.9877 
B(177-C ,185-H ) :   0.9812 B(177-C ,186-H ) :   0.9860 B(190-C ,191-C ) :   0.9797 
B(190-C ,192-N ) :   0.9271 B(190-C ,193-H ) :   0.9758 B(190-C ,194-C ) :   0.9426 
B(191-C ,195-N ) :   0.9270 B(191-C ,196-H ) :   0.9758 B(191-C ,197-C ) :   0.9427 
B(194-C ,198-H ) :   0.9789 B(194-C ,199-C ) :   0.9492 B(194-C ,200-C ) :   0.9479 
B(197-C ,201-H ) :   0.9789 B(197-C ,202-C ) :   0.9493 B(197-C ,203-C ) :   0.9479 
B(199-C ,207-H ) :   0.9742 B(199-C ,208-H ) :   0.9874 B(199-C ,209-H ) :   0.9839 
B(200-C ,204-H ) :   0.9812 B(200-C ,205-H ) :   0.9860 B(200-C ,206-H ) :   0.9877 
B(202-C ,213-H ) :   0.9839 B(202-C ,214-H ) :   0.9741 B(202-C ,215-H ) :   0.9874 
B(203-C ,210-H ) :   0.9812 B(203-C ,211-H ) :   0.9860 B(203-C ,212-H ) :   0.9878 


-------
TIMINGS
-------

Total SCF time: 0 days 1 hours 16 min 45 sec 

Total time                  ....    4605.328 sec
Sum of individual times     ....    4494.326 sec  ( 97.6%)

Fock matrix formation       ....    4276.258 sec  ( 92.9%)
Diagonalization             ....      11.659 sec  (  0.3%)
Density matrix formation    ....       0.830 sec  (  0.0%)
Population analysis         ....      74.984 sec  (  1.6%)
Initial guess               ....      81.679 sec  (  1.8%)
Orbital Transformation      ....       0.000 sec  (  0.0%)
Orbital Orthonormalization  ....      80.605 sec  (  1.8%)
DIIS solution               ....      37.056 sec  (  0.8%)
SOSCF solution              ....      11.861 sec  (  0.3%)


           ************************************************************
           *        Program running with 12 parallel MPI-processes    *
           *              working on a common directory               *
           ************************************************************

------------------------------------------------------------------------------
                                ORCA  MP2 
------------------------------------------------------------------------------

Freezing NCore=192 chemical core electrons

-------------
RI-MP2 ENERGY
-------------
Dimension of the basis                    ... 4560
Memory devoted to MP2                     ... 6000 MB   
Data format for buffers                   ... DOUBLE
Compression type for matrix containers    ... UNCOMPRESSED
Overall scaling of the MP2 energy         ...   1.000e+00
Calculating two index integrals           ... done (    0.968 sec)
Cholesky decomposition of V**-1           ... done (   31.611 sec)

-----------------
RI-TRANSFORMATION (AUX index driven)
-----------------

Dimension of the orbital-basis         ... 4560
Dimension of the aux-basis             ... 11376
Transformation of internal/external MOs...   96- 353 to  354-4559
Number Format for Storage              ... Double (8 Byte)
Integral mode                          ... Direct

First Phase: integral generation and transformation of MO indices
  Aux angular momentum 0               ... done (  358.804 sec)
  Aux angular momentum 1               ... done (  796.302 sec)
  Aux angular momentum 2               ... done ( 1017.731 sec)
  Aux angular momentum 3               ... done (  806.281 sec)
  Aux angular momentum 4               ... done (  245.123 sec)
Closing buffer VIA (91.97 GB; CompressionRatio= 1.00)
  Phase 1 completed in  3251.241 sec
Second Phase: sorting and transformation of aux index

IA-Transformation
Memory available                       ... 3351 MB 
Max. # MO pairs treated in a batch     ... 8    
# of internal orbitals                 ... 258
# batches for internal orbitals        ... 3
Closing buffer IAV ( 7.84 GB; CompressionRatio= 1.00)
(ia|v) transformation done in  4297.815 sec

  Phase 2 completed in  4533.448 sec
RI-Integral transformation completed in  7784.727 sec
Opening buffers                              ... done

Starting loop over batches of integrals:

Operator 0  - window                       ... ( 96-353)x(354-4559)
Operator 0  - Memory available             ...  6000 MB
Operator 0  - Memory needed per MO         ... 365.0 MB
Operator 0  - Number of orbitals per batch ... 9
Operator 0  - Number of batches            ... 3

OPERATOR  0   PASS   0:  MOs    96 ...  104 +  105 ...  113 +  114 ...  122 +  123 ...  131
                            +  132 ...  140 +  141 ...  149 +  150 ...  158 +  159 ...  167
                            +  168 ...  176 +  177 ...  185 +  186 ...  194 +  195 ...  203
  Reading integrals       ... ok
  Internal MO  98
  Internal MO 101
  Internal MO 104
OPERATOR  0   PASS   1:  MOs   204 ...  212 +  213 ...  221 +  222 ...  230 +  231 ...  239
                            +  240 ...  248 +  249 ...  257 +  258 ...  266 +  267 ...  275
                            +  276 ...  284 +  285 ...  293 +  294 ...  302 +  303 ...  311
  Reading integrals       ... ok
  Internal MO 305
  Internal MO 308
  Internal MO 311
OPERATOR  0   PASS   2:  MOs   312 ...  315 +  316 ...  319 +  320 ...  323 +  324 ...  327
                            +  328 ...  331 +  332 ...  335 +  336 ...  338 +  339 ...  341
                            +  342 ...  344 +  345 ...  347 +  348 ...  350 +  351 ...  353
  Reading integrals       ... ok
  Internal MO 314
Time spent in pair loops = 146444.175 sec
Deleting buffer (Ka|jb)[aa] ...done

-----------------------------------------------
 RI-MP2 CORRELATION ENERGY:    -16.459041294 Eh
-----------------------------------------------


-------
TIMINGS
-------

Total time                : 157082.207 sec
Integral trafo            : 7784.936 sec (  5.0%)
I/O of integrals          :   27.097 sec (  0.0%)
K(i,j) Operators          : 110034.271 sec ( 70.0%)
T(i,j) pair energies      :  303.393 sec (  0.2%)
V-calculation             :    0.968 sec (  0.0%)
V**(-1/2)                 :   31.611 sec (  0.0%)
Gamma(ia|P)               :    0.000 sec (  0.0%)
Gamma-Trafo               :    0.000 sec (  0.0%)
D(virtual)                :    0.000 sec (  0.0%)
D(internal)               :    0.000 sec (  0.0%)
W(virtual)                :    0.000 sec (  0.0%)
W(internal)               :    0.000 sec (  0.0%)
L(virtual)                :    0.000 sec (  0.0%)
L(internal)               :    0.000 sec (  0.0%)
G(D)                      :    0.000 sec (  0.0%)
G(Z)                      :    0.000 sec (  0.0%)
Z-Vector Solution         :    0.000 sec (  0.0%)
3-Index Derivative        :    0.000 sec (  0.0%)
2-Index Derivative        :    0.000 sec (  0.0%)
Separable Gradient        :    0.000 sec (  0.0%)


---------------------------------------
MP2 TOTAL ENERGY:    -3921.831508719 Eh
---------------------------------------

-------------------------   --------------------
FINAL SINGLE POINT ENERGY     -3921.831508718649
-------------------------   --------------------


                            ***************************************
                            *     ORCA property calculations      *
                            ***************************************


  WARNING: The energy has been calculated at the MP2 level but the densities
           used in the property calculations are still SCF densities
           MP2 response densities have not been calculated 
           use %mp2 Density relaxed end
           or  %mp2 Density unrelaxed end

                                    ---------------------
                                    Active property flags
                                    ---------------------
   (+) Dipole Moment


------------------------------------------------------------------------------
                       ORCA ELECTRIC PROPERTIES CALCULATION
------------------------------------------------------------------------------

Dipole Moment Calculation                       ... on
Quadrupole Moment Calculation                   ... off
Polarizability Calculation                      ... off
GBWName                                         ... _o_4_alde1_6_ami1_1_opt_MP2.gbw
Electron density file                           ... _o_4_alde1_6_ami1_1_opt_MP2.scfp
The origin for moment calculation is the CENTER OF MASS  = (-0.000012,  0.000048 -0.000002)

-------------
DIPOLE MOMENT
-------------
                                X             Y             Z
Electronic contribution:     -0.01248       0.00389      -0.00665
Nuclear contribution   :      0.01194      -0.00355       0.00696
                        -----------------------------------------
Total Dipole Moment    :     -0.00054       0.00033       0.00031
                        -----------------------------------------
Magnitude (a.u.)       :      0.00071
Magnitude (Debye)      :      0.00180



--------------------
Rotational spectrum 
--------------------
 
Rotational constants in cm-1:     0.000433     0.000433     0.000433 
Rotational constants in MHz :    12.986156    12.985615    12.984979 

 Dipole components along the rotational axes: 
x,y,z [a.u.] :    -0.000115     0.000262     0.000647 
x,y,z [Debye]:    -0.000292     0.000666     0.001644 

 

Timings for individual modules:

Sum of individual times         ...   161894.235 sec (=2698.237 min)
GTO integral calculation        ...       56.210 sec (=   0.937 min)   0.0 %
SCF iterations                  ...     4637.675 sec (=  77.295 min)   2.9 %
MP2 module                      ...   157200.351 sec (=2620.006 min)  97.1 %
                             ****ORCA TERMINATED NORMALLY****
TOTAL RUN TIME: 1 days 20 hours 58 minutes 46 seconds 946 msec
