Job execution start: Thu Mar 10 21:19:38 GMT 2022
Shared library path: /work/e05/e05/atarzia/orca_4_2_1_linux_x86-64_openmpi314:/work/e05/e05/atarzia/openmpi-3.1.4/lib:/opt/cray/pe/papi/6.0.0.6/lib64:/opt/cray/libfabric/1.11.0.4.71/lib64
Slurm Job ID is: 1235827
Slurm Job name is: o_4_alde1_6_ami4_1_opt_MP2
nid001280

                                 *****************
                                 * O   R   C   A *
                                 *****************

           --- An Ab Initio, DFT and Semiempirical electronic structure package ---

                  #######################################################
                  #                        -***-                        #
                  #          Department of theory and spectroscopy      #
                  #               Directorship: Frank Neese             #
                  #        Max Planck Institute fuer Kohlenforschung    #
                  #                Kaiser Wilhelm Platz 1               #
                  #                 D-45470 Muelheim/Ruhr               #
                  #                      Germany                        #
                  #                                                     #
                  #                  All rights reserved                #
                  #                        -***-                        #
                  #######################################################


                         Program Version 4.2.1 -  RELEASE  -


 With contributions from (in alphabetic order):
   Daniel Aravena         : Magnetic Suceptibility
   Michael Atanasov       : Ab Initio Ligand Field Theory (pilot matlab implementation)
   Alexander A. Auer      : GIAO ZORA, VPT2
   Ute Becker             : Parallelization
   Giovanni Bistoni       : ED, misc. LED, open-shell LED, HFLD
   Martin Brehm           : Molecular dynamics
   Dmytro Bykov           : SCF Hessian
   Vijay G. Chilkuri      : MRCI spin determinant printing, contributions to CSF-ICE
   Dipayan Datta          : RHF DLPNO-CCSD density
   Achintya Kumar Dutta   : EOM-CC, STEOM-CC
   Dmitry Ganyushin       : Spin-Orbit,Spin-Spin,Magnetic field MRCI
   Miquel Garcia          : C-PCM Hessian, Gaussian charge scheme
   Yang Guo               : DLPNO-NEVPT2, CIM, IAO-localization
   Andreas Hansen         : Spin unrestricted coupled pair/coupled cluster methods
   Benjamin Helmich-Paris : CASSCF linear response (MC-RPA)
   Lee Huntington         : MR-EOM, pCC
   Robert Izsak           : Overlap fitted RIJCOSX, COSX-SCS-MP3, EOM
   Christian Kollmar      : KDIIS, OOCD, Brueckner-CCSD(T), CCSD density
   Simone Kossmann        : Meta GGA functionals, TD-DFT gradient, OOMP2, MP2 Hessian
   Martin Krupicka        : AUTO-CI
   Lucas Lang             : DCDCAS
   Dagmar Lenk            : GEPOL surface, SMD
   Dimitrios Liakos       : Extrapolation schemes; Compound Job, initial MDCI parallelization
   Dimitrios Manganas     : Further ROCIS development; embedding schemes
   Dimitrios Pantazis     : SARC Basis sets
   Taras Petrenko         : DFT Hessian,TD-DFT gradient, ASA, ECA, R-Raman, ABS, FL, XAS/XES, NRVS
   Peter Pinski           : DLPNO-MP2, DLPNO-MP2 Gradient
   Christoph Reimann      : Effective Core Potentials
   Marius Retegan         : Local ZFS, SOC
   Christoph Riplinger    : Optimizer, TS searches, QM/MM, DLPNO-CCSD(T), (RO)-DLPNO pert. Triples
   Tobias Risthaus        : Range-separated hybrids, TD-DFT gradient, RPA, STAB
   Michael Roemelt        : Original ROCIS implementation
   Masaaki Saitow         : Open-shell DLPNO-CCSD energy and density
   Barbara Sandhoefer     : DKH picture change effects
   Avijit Sen             : IP-ROCIS
   Kantharuban Sivalingam : CASSCF convergence, NEVPT2, FIC-MRCI
   Bernardo de Souza      : ESD, SOC TD-DFT
   Georgi Stoychev        : AutoAux, RI-MP2 NMR
   Willem Van den Heuvel  : Paramagnetic NMR
   Boris Wezisla          : Elementary symmetry handling
   Frank Wennmohs         : Technical directorship


 We gratefully acknowledge several colleagues who have allowed us to
 interface, adapt or use parts of their codes:
   Stefan Grimme, W. Hujo, H. Kruse,             : VdW corrections, initial TS optimization,
                  C. Bannwarth                     DFT functionals, gCP, sTDA/sTD-DF
   Ed Valeev, F. Pavosevic, A. Kumar             : LibInt (2-el integral package), F12 methods
   Garnet Chan, S. Sharma, J. Yang, R. Olivares  : DMRG
   Ulf Ekstrom                                   : XCFun DFT Library
   Mihaly Kallay                                 : mrcc  (arbitrary order and MRCC methods)
   Andreas Klamt, Michael Diedenhofen            : otool_cosmo (COSMO solvation model)
   Jiri Pittner, Ondrej Demel                    : Mk-CCSD
   Frank Weinhold                                : gennbo (NPA and NBO analysis)
   Christopher J. Cramer and Donald G. Truhlar   : smd solvation model
   Lars Goerigk                                  : TD-DFT with DH, B97 family of functionals
   V. Asgeirsson, H. Jonsson                     : NEB implementation
   FAccTs GmbH                                   : IRC, NEB, NEB-TS, Multilevel, MM, QM/MM, CI optimization
   S Lehtola, MJT Oliveira, MAL Marques          : LibXC Library


 Your calculation uses the libint2 library for the computation of 2-el integrals
 For citations please refer to: http://libint.valeyev.net

 Your ORCA version has been built with support for libXC version: 4.2.3
 For citations please refer to: https://tddft.org/programs/libxc/

 This ORCA versions uses:
   CBLAS   interface :  Fast vector & matrix operations
   LAPACKE interface :  Fast linear algebra routines
   SCALAPACK package :  Parallel linear algebra routines




***************************************
The coordinates will be read from file: _o_4_alde1_6_ami4_1_opt_B97-3c.xyz
***************************************


----- Orbital basis set information -----
Your calculation utilizes the basis: cc-pVTZ 
       H, B-Ne : Obtained from the ccRepo (grant-hill.group.shef.ac.uk/ccrepo) Feb. 2017
                 T. H. Dunning, Jr., J. Chem. Phys. 90, 1007 (1989)
            He : Obtained from the ccRepo (grant-hill.group.shef.ac.uk/ccrepo) Feb. 2017
                 D. E. Woon, T. H. Dunning, Jr., J. Chem. Phys. 100, 2975 (1994)
  Li-Be, Na-Mg : Obtained from the ccRepo (grant-hill.group.shef.ac.uk/ccrepo) Feb. 2017
                 B. P. Prascher, D. E. Woon, K. A. Peterson, T. H. Dunning, Jr., A. K. Wilson, Theor. Chem. Acc. 128, 69 (2011)
         Al-Ar : Obtained from the ccRepo (grant-hill.group.shef.ac.uk/ccrepo) Feb. 2017
                 D. E. Woon, T. H. Dunning, Jr., J. Chem. Phys. 98, 1358 (1993)
            Ca : Obtained from the Peterson Research Group Website (tyr0.chem.wsu.edu/~kipeters) Feb. 2017
                 J. Koput, K. A. Peterson, J. Phys. Chem. 106, 9595 (2002)
         Sc-Zn : Obtained from the ccRepo (grant-hill.group.shef.ac.uk/ccrepo) Feb. 2017
                 N. B. Balabanov, K. A. Peterson, J. Chem. Phys. 123, 064107 (2005)
                 N. B. Balabanov, K. A. Peterson, J. Chem. Phys. 125, 074110 (2006)
         Ga-Kr : Obtained from the ccRepo (grant-hill.group.shef.ac.uk/ccrepo) Feb. 2017
                 A. K. Wilson, D. E. Woon, K. A. Peterson, T. H. Dunning, Jr., J. Chem. Phys. 110, 7667 (1999)
             Y : Obtained from the ccRepo (grant-hill.group.shef.ac.uk/ccrepo) Feb. 2017
                 K. A. Peterson, D. Figgen, M. Dolg, H. Stoll, J. Chem. Phys. 126, 124101 (2007)
        Ag, Au : Obtained from the Peterson Research Group Website (tyr0.chem.wsu.edu/~kipeters) Feb. 2017
                 K. A. Peterson, C. Puzzarini, Theor. Chem. Acc. 114, 283 (2005)

----- AuxC basis set information -----
Your calculation utilizes the auxiliary basis: cc-pVTZ/C 
  Obtained from the EMSL Basis Set Exchange (bse.pnl.gov) Feb. 2017
  H-He, B-F, Al-Ar, Ga-Kr : F. Weigend, A. Kohn, C. Hattig, J. Chem. Phys. 116, 3175 (2002)
             Li-Be, Na-Mg : C. Haettig, Phys. Chem. Chem. Phys. 7, 59 (2005)
                       Ne : C. Haettig, Phys. Chem. Chem. Phys. 7, 59 (2005)
                            F. Weigend, A. Kohn, C. Hattig, J. Chem. Phys. 116, 3175 (2002)
                    Sc-Zn : J. G. Hill, J. A. Platts, J. Chem. Phys. 128, 044104 (2008)

================================================================================
                                        WARNINGS
                       Please study these warnings very carefully!
================================================================================


WARNING: No MP2 level density has been requested!
         To caclulate MP2 level properties use
         %mp2 Density relaxed end
         or
         %mp2 Density unrelaxed end

WARNING: Post HF methods need fully converged wavefunctions
  ===> : Setting SCFConvForced true
         You can overwrite this default with %scf ConvForced false 


INFO   : the flag for use of LIBINT has been found!

================================================================================
                                       INPUT FILE
================================================================================
NAME = o_4_alde1_6_ami4_1_opt_MP2.in
|  1> ! RI-MP2 cc-pVTZ cc-pVTZ/C TIGHTSCF printbasis Grid6 NOFINALGRID SlowConv
|  2> 
|  3> %base "_o_4_alde1_6_ami4_1_opt_MP2"
|  4> %maxcore 3000
|  5> %pal
|  6>    nprocs 32
|  7> end
|  8> 
|  9> * xyzfile 0 1 _o_4_alde1_6_ami4_1_opt_B97-3c.xyz
| 10> 
| 11>                          ****END OF INPUT****
================================================================================

                       ****************************
                       * Single Point Calculation *
                       ****************************

---------------------------------
CARTESIAN COORDINATES (ANGSTROEM)
---------------------------------
  C     -1.007701   -0.959950    4.190187
  C     -2.052470   -1.980855    4.235815
  C     -1.320832    0.403375    4.186311
  C     -0.317697    1.360939    4.190107
  H     -2.362831    0.694472    4.198204
  C      1.019549    0.950482    4.182185
  C      1.347168   -0.397063    4.186140
  H      1.792731    1.707303    4.190826
  C      0.323085   -1.349919    4.182432
  C      2.753681   -0.791918    4.227724
  H      0.592035   -2.397887    4.191244
  C     -0.679189    2.776264    4.235716
  H      3.476534    0.029446    4.122875
  H     -1.702340   -3.017528    4.131628
  H     -1.752250    2.991520    4.133997
  C     -3.978432   -1.911610   -0.109918
  C     -4.602387   -1.851813    1.210293
  C     -3.190273   -3.001281   -0.494792
  C     -2.643338   -3.065809   -1.767549
  H     -3.031310   -3.801118    0.216299
  C     -2.874524   -2.018156   -2.665180
  C     -3.653502   -0.930620   -2.299569
  H     -2.446836   -2.083249   -3.656903
  C     -4.197852   -0.881377   -1.011963
  C     -3.915485    0.123316   -3.277558
  H     -4.808411   -0.030235   -0.741021
  C     -1.865600   -4.241379   -2.153555
  H     -3.357674    0.039223   -4.220914
  H     -5.113960   -0.908137    1.446689
  H     -1.657849   -4.954838   -1.343657
  C      3.643594   -2.492673   -0.121661
  C      3.907238   -3.064770    1.197097
  C      4.191645   -1.264241   -0.505472
  C      3.970815   -0.755938   -1.776698
  H      4.806185   -0.727706    0.205258
  C      3.177477   -1.478692   -2.673884
  C      2.626720   -2.698143   -2.309400
  H      3.017442   -1.073974   -3.664468
  C      2.859366   -3.196516   -1.023217
  C      1.843415   -3.450598   -3.287242
  H      2.428599   -4.151563   -0.753104
  C      4.598636    0.506397   -2.161692
  H      1.635150   -2.923795   -4.229173
  H      3.346482   -3.979998    1.433846
  H      5.114187    1.041747   -1.351914
  C      0.334116    4.402841   -0.113380
  C      0.701144    4.915414    1.205125
  C     -1.004624    4.264405   -0.494580
  C     -1.337183    3.820735   -1.765719
  H     -1.774964    4.527889    0.218025
  C     -0.316585    3.495734   -2.665398
  C      1.015654    3.627310   -2.303485
  H     -0.589274    3.156121   -3.655821
  C      1.333761    4.076275   -1.017419
  C      2.056732    3.325958   -3.283901
  H      2.376846    4.179965   -0.749299
  C     -2.745066    3.733882   -2.148112
  H      1.702409    2.883676   -4.225695
  H      1.774768    4.886948    1.438922
  H     -3.465061    3.910775   -1.336670
  C     -4.222567   -2.794630    4.435497
  C     -5.232817   -2.650356    3.302122
  N     -3.279555   -1.705423    4.408116
  N     -4.584034   -2.823259    2.027140
  H     -5.745176   -1.683777    3.395529
  H     -5.976523   -3.441914    3.418074
  H     -3.742655   -3.779893    4.368670
  H     -4.772729   -2.747683    5.377955
  C      4.543043   -2.265922    4.421160
  C      4.919376   -3.212912    3.286435
  N      3.128443   -1.992742    4.397607
  N      4.741451   -2.563923    2.012287
  H      4.338062   -4.139517    3.381233
  H      5.976912   -3.461899    3.399314
  H      5.156881   -1.358151    4.352968
  H      4.779559   -2.766375    5.362817
  C     -0.297874    5.062623    4.432386
  C      0.329729    5.863762    3.296476
  N      0.173473    3.701192    4.405339
  N     -0.147348    5.386494    2.023309
  H      1.423179    5.824130    3.387478
  H      0.016412    6.903787    3.411691
  H     -1.391219    5.139858    4.368001
  H      0.020239    5.516616    5.373553
  C     -0.710727   -5.643364   -3.606679
  C      0.678935   -5.283405   -4.121748
  N     -1.472267   -4.448944   -3.342455
  N      1.446017   -4.639221   -3.085878
  H      0.581122   -4.670766   -5.027632
  H      1.183183   -6.213552   -4.393170
  H     -0.613004   -6.293459   -2.727308
  H     -1.219488   -6.207337   -4.391650
  C     -4.922113    2.047853   -4.110862
  C     -4.539687    3.431999   -3.597219
  N     -4.745165    1.062321   -3.074674
  N     -3.124066    3.495929   -3.335981
  H     -5.150084    3.672108   -2.716720
  H     -4.776117    4.154008   -4.382020
  H     -4.343766    1.826226   -5.017440
  H     -5.980210    2.074941   -4.380681
  C      5.231974    2.210209   -3.613218
  C      4.224091    3.234681   -4.123709
  N      4.579158    0.952905   -3.349776
  N      3.285352    3.575334   -3.084890
  H      3.739974    2.845315   -5.028990
  H      4.776885    4.136844   -4.395042
  H      5.748505    2.618162   -2.734426
  H      5.972708    2.053180   -4.400453

----------------------------
CARTESIAN COORDINATES (A.U.)
----------------------------
  NO LB      ZA    FRAG     MASS         X           Y           Z
   0 C     6.0000    0    12.011   -1.904278   -1.814043    7.918307
   1 C     6.0000    0    12.011   -3.878606   -3.743273    8.004531
   2 C     6.0000    0    12.011   -2.496010    0.762269    7.910982
   3 C     6.0000    0    12.011   -0.600360    2.571801    7.918156
   4 H     1.0000    0     1.008   -4.465104    1.312362    7.933457
   5 C     6.0000    0    12.011    1.926669    1.796151    7.903183
   6 C     6.0000    0    12.011    2.545779   -0.750341    7.910658
   7 H     1.0000    0     1.008    3.387772    3.226336    7.919513
   8 C     6.0000    0    12.011    0.610542   -2.550977    7.903652
   9 C     6.0000    0    12.011    5.203704   -1.496507    7.989240
  10 H     1.0000    0     1.008    1.118784   -4.531350    7.920303
  11 C     6.0000    0    12.011   -1.283482    5.246380    8.004342
  12 H     1.0000    0     1.008    6.569696    0.055646    7.791104
  13 H     1.0000    0     1.008   -3.216957   -5.702301    7.807645
  14 H     1.0000    0     1.008   -3.311272    5.653153    7.812122
  15 C     6.0000    0    12.011   -7.518147   -3.612419   -0.207715
  16 C     6.0000    0    12.011   -8.697250   -3.499420    2.287123
  17 C     6.0000    0    12.011   -6.028743   -5.671600   -0.935021
  18 C     6.0000    0    12.011   -4.995185   -5.793539   -3.340184
  19 H     1.0000    0     1.008   -5.728346   -7.183071    0.408747
  20 C     6.0000    0    12.011   -5.432064   -3.813762   -5.036460
  21 C     6.0000    0    12.011   -6.904118   -1.758618   -4.345555
  22 H     1.0000    0     1.008   -4.623851   -3.936771   -6.910544
  23 C     6.0000    0    12.011   -7.932790   -1.665562   -1.912333
  24 C     6.0000    0    12.011   -7.399194    0.233033   -6.193688
  25 H     1.0000    0     1.008   -9.086580   -0.057136   -1.400327
  26 C     6.0000    0    12.011   -3.525473   -8.015045   -4.069630
  27 H     1.0000    0     1.008   -6.345085    0.074121   -7.976371
  28 H     1.0000    0     1.008   -9.663984   -1.716130    2.733847
  29 H     1.0000    0     1.008   -3.132880   -9.363286   -2.539143
  30 C     6.0000    0    12.011    6.885394   -4.710469   -0.229906
  31 C     6.0000    0    12.011    7.383610   -5.791577    2.262186
  32 C     6.0000    0    12.011    7.921062   -2.389070   -0.955204
  33 C     6.0000    0    12.011    7.503754   -1.428516   -3.357473
  34 H     1.0000    0     1.008    9.082373   -1.375166    0.387882
  35 C     6.0000    0    12.011    6.004560   -2.794323   -5.052908
  36 C     6.0000    0    12.011    4.963781   -5.098752   -4.364133
  37 H     1.0000    0     1.008    5.702140   -2.029517   -6.924842
  38 C     6.0000    0    12.011    5.403419   -6.040540   -1.933599
  39 C     6.0000    0    12.011    3.483550   -6.520686   -6.211988
  40 H     1.0000    0     1.008    4.589387   -7.845316   -1.423160
  41 C     6.0000    0    12.011    8.690163    0.956951   -4.085006
  42 H     1.0000    0     1.008    3.089986   -5.525172   -7.991979
  43 H     1.0000    0     1.008    6.323935   -7.521105    2.709576
  44 H     1.0000    0     1.008    9.664412    1.968616   -2.554747
  45 C     6.0000    0    12.011    0.631388    8.320163   -0.214257
  46 C     6.0000    0    12.011    1.324971    9.288787    2.277356
  47 C     6.0000    0    12.011   -1.898464    8.058558   -0.934621
  48 C     6.0000    0    12.011   -2.526910    7.220143   -3.336725
  49 H     1.0000    0     1.008   -3.354196    8.556469    0.412008
  50 C     6.0000    0    12.011   -0.598258    6.605980   -5.036872
  51 C     6.0000    0    12.011    1.919307    6.854622   -4.352956
  52 H     1.0000    0     1.008   -1.113566    5.964204   -6.908500
  53 C     6.0000    0    12.011    2.520443    7.703044   -1.922644
  54 C     6.0000    0    12.011    3.886660    6.285150   -6.205674
  55 H     1.0000    0     1.008    4.491589    7.898989   -1.415969
  56 C     6.0000    0    12.011   -5.187423    7.056015   -4.059343
  57 H     1.0000    0     1.008    3.217086    5.449358   -7.985405
  58 H     1.0000    0     1.008    3.353825    9.234994    2.719169
  59 H     1.0000    0     1.008   -6.548016    7.390293   -2.525940
  60 C     6.0000    0    12.011   -7.979494   -5.281086    8.381875
  61 C     6.0000    0    12.011   -9.888592   -5.008447    6.240107
  62 N     7.0000    0    14.007   -6.197460   -3.222782    8.330132
  63 N     7.0000    0    14.007   -8.662570   -5.335187    3.830740
  64 H     1.0000    0     1.008  -10.856809   -3.181878    6.416619
  65 H     1.0000    0     1.008  -11.293991   -6.504274    6.459224
  66 H     1.0000    0     1.008   -7.072593   -7.142963    8.255590
  67 H     1.0000    0     1.008   -9.019151   -5.192369   10.162863
  68 C     6.0000    0    12.011    8.585107   -4.281971    8.354782
  69 C     6.0000    0    12.011    9.296274   -6.071524    6.210461
  70 N     7.0000    0    14.007    5.911901   -3.765737    8.310273
  71 N     7.0000    0    14.007    8.960043   -4.845113    3.802671
  72 H     1.0000    0     1.008    8.197749   -7.822553    6.389603
  73 H     1.0000    0     1.008   11.294727   -6.542040    6.423772
  74 H     1.0000    0     1.008    9.745093   -2.566533    8.225918
  75 H     1.0000    0     1.008    9.032058   -5.227690   10.134255
  76 C     6.0000    0    12.011   -0.562901    9.566971    8.375995
  77 C     6.0000    0    12.011    0.623098   11.080905    6.229437
  78 N     7.0000    0    14.007    0.327817    6.994239    8.324884
  79 N     7.0000    0    14.007   -0.278447   10.178999    3.823501
  80 H     1.0000    0     1.008    2.689419   11.006011    6.401406
  81 H     1.0000    0     1.008    0.031015   13.046266    6.447161
  82 H     1.0000    0     1.008   -2.629023    9.712924    8.254326
  83 H     1.0000    0     1.008    0.038246   10.424893   10.154543
  84 C     6.0000    0    12.011   -1.343080  -10.664413   -6.815635
  85 C     6.0000    0    12.011    1.283002   -9.984188   -7.788975
  86 N     7.0000    0    14.007   -2.782181   -8.407285   -6.316325
  87 N     7.0000    0    14.007    2.732576   -8.766858   -5.831464
  88 H     1.0000    0     1.008    1.098162   -8.826469   -9.500847
  89 H     1.0000    0     1.008    2.235891  -11.741912   -8.301888
  90 H     1.0000    0     1.008   -1.158409  -11.892914   -5.153866
  91 H     1.0000    0     1.008   -2.304499  -11.730167   -8.299016
  92 C     6.0000    0    12.011   -9.301445    3.869882   -7.768403
  93 C     6.0000    0    12.011   -8.578766    6.485538   -6.797758
  94 N     7.0000    0    14.007   -8.967062    2.007497   -5.810291
  95 N     7.0000    0    14.007   -5.903629    6.606348   -6.304090
  96 H     1.0000    0     1.008   -9.732248    6.939279   -5.133856
  97 H     1.0000    0     1.008   -9.025554    7.849938   -8.280817
  98 H     1.0000    0     1.008   -8.208528    3.451067   -9.481587
  99 H     1.0000    0     1.008  -11.300959    3.921070   -8.278288
 100 C     6.0000    0    12.011    9.886998    4.176689   -6.827992
 101 C     6.0000    0    12.011    7.982376    6.112661   -7.792681
 102 N     7.0000    0    14.007    8.653354    1.800729   -6.330159
 103 N     7.0000    0    14.007    6.208416    6.756403   -5.829597
 104 H     1.0000    0     1.008    7.067527    5.376865   -9.503413
 105 H     1.0000    0     1.008    9.027004    7.817501   -8.305426
 106 H     1.0000    0     1.008   10.863099    4.947609   -5.167317
 107 H     1.0000    0     1.008   11.286782    3.879948   -8.315650

--------------------------------
INTERNAL COORDINATES (ANGSTROEM)
--------------------------------
 C      0   0   0     0.000000000000     0.00000000     0.00000000
 C      1   0   0     1.461461791935     0.00000000     0.00000000
 C      1   2   0     1.398828866952   121.39128698     0.00000000
 C      3   1   2     1.386802392254   120.73233714   177.72406567
 H      3   1   2     1.081962040849   118.53987601   358.80422317
 C      4   3   1     1.398844246719   119.26637286     0.73785670
 C      6   4   3     1.386804885648   120.72645878   359.25533077
 H      6   4   3     1.081972059104   118.54477946   180.33580369
 C      1   2   3     1.386768560852   119.32465597   178.45630492
 C      7   6   4     1.461477949834   119.33812458   182.25319713
 H      9   1   2     1.081965091837   120.72153283     1.13888570
 C      4   3   1     1.461473350803   119.33058941   182.24115889
 H     10   7   6     1.099157672393   115.35984694   352.43087420
 H      2   1   3     1.099152406072   115.35096181   174.02890769
 H     12   4   3     1.099154400835   115.35601145   352.44117563
 C      2   1   3     4.753895802190   104.53115129    73.25231841
 C     16   2   1     1.461456132171    49.29011400   230.32334962
 C     16   2   1     1.398822831835    90.68189568    97.70617350
 C     18  16   2     1.386799704797   120.72886574   218.52661156
 H     18  16   2     1.081969565704   118.54287380    39.60501512
 C     19  18  16     1.398843882452   119.26813539     0.73772437
 C     21  19  18     1.386798884928   120.72937068   359.26570203
 H     21  19  18     1.081974240766   118.54066999   180.33900902
 C     16   2   1     1.386798101200   132.03048660   325.72018764
 C     22  21  19     1.461464871611   119.32749994   182.22023604
 H     24  16   2     1.081959234992   120.71744979   301.20392068
 C     19  18  16     1.461452254940   119.32169699   182.23592158
 H     25  22  21     1.099155672167   115.35242782   352.45706014
 H     17  16   2     1.099142997828   115.34870174   114.46463180
 H     27  19  18     1.099145178992   115.34678757   352.46594223
 C     10   7   6     4.754120259401   104.52308502   251.60091520
 C     31  10   7     1.461480879527    49.32880297   230.35310811
 C     31  10   7     1.398826717543    90.58413476    97.68405556
 C     33  31  10     1.386777926571   120.73150908   218.51923183
 H     33  31  10     1.081973077993   118.54020458    39.59328628
 C     34  33  31     1.398821724441   119.26647475     0.73208950
 C     36  34  33     1.386810256140   120.73048723   359.26495230
 H     36  34  33     1.081972813907   118.54373048   180.34072799
 C     31  10   7     1.386798803659   132.10299418   325.75719655
 C     37  36  34     1.461482301435   119.32284666   182.23359961
 H     39  31  10     1.081959038415   120.72005393   301.11972465
 C     34  33  31     1.461461463006   119.31877818   182.24312173
 H     40  37  36     1.099149305768   115.35118579   352.46422276
 H     32  31  10     1.099153310141   115.35797502   114.51989551
 H     42  34  33     1.099151036279   115.34778693   352.45406745
 C     12   4   3     4.752596229558   104.48629262   251.66677356
 C     46  12   4     1.461470928559    49.30739903   230.31464977
 C     46  12   4     1.398822279884    90.65628526    97.68781240
 C     48  46  12     1.386806637061   120.72706821   218.54221374
 H     48  46  12     1.081967608339   118.54285141    39.61929857
 C     49  48  46     1.398809954463   119.26810899     0.72909296
 C     51  49  48     1.386777691115   120.73237419   359.27089084
 H     51  49  48     1.081958442858   118.54193719   180.33889938
 C     46  12   4     1.386802470236   132.03901987   325.72317792
 C     52  51  49     1.461462032904   119.32094650   182.23517504
 H     54  46  12     1.081974029980   120.71776203   301.17117723
 C     49  48  46     1.461472366533   119.33055802   182.22172509
 H     55  52  51     1.099151092022   115.34970899   352.46562151
 H     47  46  12     1.099153368974   115.34822152   114.47476541
 H     57  49  48     1.099146195030   115.35997038   352.40335611
 C      2   1   3     2.326246684685   156.05594702   352.78482764
 C     61   2   1     1.525109906211   121.40364695    74.60444886
 N      2   1   3     1.269365191025   122.93803811   352.76690313
 N     17  16   2     1.269363515538   122.94478542   293.19640213
 H     62  61   2     1.097957510500   109.21844679   272.62116509
 H     62  61   2     1.092293758739   107.67226790   155.42983405
 H     61   2   1     1.097963529212    84.31488236   183.68041430
 H     61   2   1     1.092295982401   121.93075633   291.52884653
 C     10   7   6     2.326353400648   156.03501888   171.17913773
 C     69  10   7     1.525129742826   121.42326934    74.54767717
 N     10   7   6     1.269364893291   122.92403819   171.16088798
 N     32  31  10     1.269366859477   122.92821035   293.25960511
 H     70  69  10     1.097956430971   109.21639950   272.62675711
 H     70  69  10     1.092299327691   107.67108341   155.43012212
 H     69  10   7     1.097950628339    84.31834857   183.62888254
 H     69  10   7     1.092295900668   121.90629330   291.48103436
 C     12   4   3     2.326266401924   156.05057714   171.23813703
 C     77  12   4     1.525123351496   121.38385786    74.56093248
 N     12   4   3     1.269368468583   122.93346461   171.18098442
 N     47  46  12     1.269362507332   122.94269331   293.21147557
 H     78  77  12     1.097945644793   109.21608273   272.60406708
 H     78  77  12     1.092287593238   107.67153551   155.40797137
 H     77  12   4     1.097958862365    84.31562682   183.63248383
 H     77  12   4     1.092291802737   121.94382421   291.48720530
 C     27  19  18     2.326125816906   156.06711640   171.23820858
 C     85  27  19     1.525132777896   121.40613510    74.58214250
 N     27  19  18     1.269360930478   122.94383120   171.20928344
 N     40  37  36     1.269369207189   122.94013688   171.20800929
 H     86  85  27     1.097960925375   109.21781798   272.60598083
 H     86  85  27     1.092295863677   107.67226681   155.41142018
 H     85  27  19     1.097936746267    84.30236220   183.64678663
 H     85  27  19     1.092283225316   121.93021146   291.49392941
 C     25  22  21     2.326271611038   156.04900574   171.21917449
 C     93  25  22     1.525102464840   121.44579571    74.49230192
 N     25  22  21     1.269355241907   122.93466522   171.19737734
 N     57  49  48     1.269368140267   122.93014509   171.14989939
 H     94  93  25     1.097959305008   109.21775895   272.66801447
 H     94  93  25     1.092295648749   107.67704681   155.46785122
 H     93  25  22     1.097946814880    84.30946011   183.57023077
 H     93  25  22     1.092293591254   121.88237322   291.41532030
 C     42  34  33     2.326159338144   156.06434448   171.18533061
 C    101  42  34     1.525113741894   121.39633287    74.65204206
 N     42  34  33     1.269366595749   122.94265826   171.18209206
 N     55  52  51     1.269370869002   122.94279420   171.19856499
 H    102 101  42     1.097956428773   109.21762293   272.61529417
 H    102 101  42     1.092290989548   107.66838289   155.42481660
 H    101  42  34     1.097954450267    84.30655454   183.72406520
 H    101  42  34     1.092283791843   121.94275567   291.56873629

---------------------------
INTERNAL COORDINATES (A.U.)
---------------------------
 C      0   0   0     0.000000000000     0.00000000     0.00000000
 C      1   0   0     2.761762541946     0.00000000     0.00000000
 C      1   2   0     2.643403466762   121.39128698     0.00000000
 C      3   1   2     2.620676723227   120.73233714   177.72406567
 H      3   1   2     2.044611944503   118.53987601   358.80422317
 C      4   3   1     2.643432530311   119.26637286     0.73785670
 C      6   4   3     2.620681435058   120.72645878   359.25533077
 H      6   4   3     2.044630876261   118.54477946   180.33580369
 C      1   2   3     2.620612791141   119.32465597   178.45630492
 C      7   6   4     2.761793075952   119.33812458   182.25319713
 H      9   1   2     2.044617710034   120.72153283     1.13888570
 C      4   3   1     2.761784385042   119.33058941   182.24115889
 H     10   7   6     2.077106978821   115.35984694   352.43087420
 H      2   1   3     2.077097026917   115.35096181   174.02890769
 H     12   4   3     2.077100796472   115.35601145   352.44117563
 C      2   1   3     8.983561135337   104.53115129    73.25231841
 C     16   2   1     2.761751846543    49.29011400   230.32334962
 C     16   2   1     2.643392062044    90.68189568    97.70617350
 C     18  16   2     2.620671644670   120.72886574   218.52661156
 H     18  16   2     2.044626164419   118.54287380    39.60501512
 C     19  18  16     2.643431841945   119.26813539     0.73772437
 C     21  19  18     2.620670095341   120.72937068   359.26570203
 H     21  19  18     2.044634999006   118.54066999   180.33900902
 C     16   2   1     2.620668614309   132.03048660   325.72018764
 C     22  21  19     2.761768361691   119.32749994   182.22023604
 H     24  16   2     2.044606642202   120.71744979   301.20392068
 C     19  18  16     2.761744519639   119.32169699   182.23592158
 H     25  22  21     2.077103198941   115.35242782   352.45706014
 H     17  16   2     2.077079247912   115.34870174   114.46463180
 H     27  19  18     2.077083369714   115.34678757   352.46594223
 C     10   7   6     8.983985297995   104.52308502   251.60091520
 C     31  10   7     2.761798612268    49.32880297   230.35310811
 C     31  10   7     2.643399404969    90.58413476    97.68405556
 C     33  31  10     2.620630489786   120.73150908   218.51923183
 H     33  31  10     2.044632801682   118.54020458    39.59328628
 C     34  33  31     2.643389969372   119.26647475     0.73208950
 C     36  34  33     2.620691583818   120.73048723   359.26495230
 H     36  34  33     2.044632302633   118.54373048   180.34072799
 C     31  10   7     2.620669941765   132.10299418   325.75719655
 C     37  36  34     2.761801299285   119.32284666   182.23359961
 H     39  31  10     2.044606270725   120.72005393   301.11972465
 C     34  33  31     2.761761920362   119.31877818   182.24312173
 H     40  37  36     2.077091168192   115.35118579   352.46422276
 H     32  31  10     2.077098735359   115.35797502   114.51989551
 H     42  34  33     2.077094438384   115.34778693   352.45406745
 C     12   4   3     8.981105298971   104.48629262   251.66677356
 C     46  12   4     2.761779807664    49.30739903   230.31464977
 C     46  12   4     2.643391019009    90.65628526    97.68781240
 C     48  46  12     2.620684744750   120.72706821   218.54221374
 H     48  46  12     2.044622465534   118.54285141    39.61929857
 C     49  48  46     2.643367727338   119.26810899     0.72909296
 C     51  49  48     2.620630044838   120.73237419   359.27089084
 H     51  49  48     2.044605145285   118.54193719   180.33889938
 C     46  12   4     2.620676870592   132.03901987   325.72317792
 C     52  51  49     2.761762997313   119.32094650   182.23517504
 H     54  46  12     2.044634600678   120.71776203   301.17117723
 C     49  48  46     2.761782525041   119.33055802   182.22172509
 H     55  52  51     2.077094543721   115.34970899   352.46562151
 H     47  46  12     2.077098846537   115.34822152   114.47476541
 H     57  49  48     2.077085289748   115.35997038   352.40335611
 C      2   1   3     4.395969153997   156.05594702   352.78482764
 C     61   2   1     2.882040046869   121.40364695    74.60444886
 N      2   1   3     2.398752574970   122.93803811   352.76690313
 N     17  16   2     2.398749408758   122.94478542   293.19640213
 H     62  61   2     2.074839001528   109.21844679   272.62116509
 H     62  61   2     2.064136061807   107.67226790   155.42983405
 H     61   2   1     2.074850375244    84.31488236   183.68041430
 H     61   2   1     2.064140263921   121.93075633   291.52884653
 C     10   7   6     4.396170817941   156.03501888   171.17913773
 C     69  10   7     2.882077532639   121.42326934    74.54767717
 N     10   7   6     2.398752012334   122.92403819   171.16088798
 N     32  31  10     2.398755727888   122.92821035   293.25960511
 H     70  69  10     2.074836961512   109.21639950   272.62675711
 H     70  69  10     2.064146585603   107.67108341   155.43012212
 H     69  10   7     2.074825996127    84.31834857   183.62888254
 H     69  10   7     2.064140109468   121.90629330   291.48103436
 C     12   4   3     4.396006414178   156.05057714   171.23813703
 C     77  12   4     2.882065454775   121.38385786    74.56093248
 N     12   4   3     2.398758768656   122.93346461   171.18098442
 N     47  46  12     2.398747503525   122.94269331   293.21147557
 H     78  77  12     2.074816578590   109.21608273   272.60406708
 H     78  77  12     2.064124410700   107.67153551   155.40797137
 H     77  12   4     2.074841556182    84.31562682   183.63248383
 H     77  12   4     2.064132365501   121.94382421   291.48720530
 C     27  19  18     4.395740746995   156.06711640   171.23820858
 C     85  27  19     2.882083268090   121.40613510    74.58214250
 N     27  19  18     2.398744523704   122.94383120   171.20928344
 N     40  37  36     2.398760164420   122.94013688   171.20800929
 H     86  85  27     2.074845454705   109.21781798   272.60598083
 H     86  85  27     2.064140039564   107.67226681   155.41142018
 H     85  27  19     2.074799762813    84.30236220   183.64678663
 H     85  27  19     2.064116156523   121.93021146   291.49392941
 C     25  22  21     4.396016257978   156.04900574   171.21917449
 C     93  25  22     2.882025984716   121.44579571    74.49230192
 N     25  22  21     2.398733773861   122.93466522   171.19737734
 N     57  49  48     2.398758148229   122.93014509   171.14989939
 H     94  93  25     2.074842392655   109.21775895   272.66801447
 H     94  93  25     2.064139633410   107.67704681   155.46785122
 H     93  25  22     2.074818789734    84.30946011   183.57023077
 H     93  25  22     2.064135745307   121.88237322   291.41532030
 C     42  34  33     4.395804092955   156.06434448   171.18533061
 C    101  42  34     2.882047295259   121.39633287    74.65204206
 N     42  34  33     2.398755229514   122.94265826   171.18209206
 N     55  52  51     2.398763304792   122.94279420   171.19856499
 H    102 101  42     2.074836957359   109.21762293   272.61529417
 H    102 101  42     2.064130828795   107.66838289   155.42481660
 H    101  42  34     2.074833218524    84.30655454   183.72406520
 H    101  42  34     2.064117227105   121.94275567   291.56873629

---------------------
BASIS SET INFORMATION
---------------------
There are 3 groups of distinct atoms

 Group   1 Type C   : 18s5p2d1f contracted to 4s3p2d1f pattern {8811/311/11/1}
 Group   2 Type H   : 5s2p1d contracted to 3s2p1d pattern {311/11/1}
 Group   3 Type N   : 18s5p2d1f contracted to 4s3p2d1f pattern {8811/311/11/1}

Atom   0C    basis set group =>   1
Atom   1C    basis set group =>   1
Atom   2C    basis set group =>   1
Atom   3C    basis set group =>   1
Atom   4H    basis set group =>   2
Atom   5C    basis set group =>   1
Atom   6C    basis set group =>   1
Atom   7H    basis set group =>   2
Atom   8C    basis set group =>   1
Atom   9C    basis set group =>   1
Atom  10H    basis set group =>   2
Atom  11C    basis set group =>   1
Atom  12H    basis set group =>   2
Atom  13H    basis set group =>   2
Atom  14H    basis set group =>   2
Atom  15C    basis set group =>   1
Atom  16C    basis set group =>   1
Atom  17C    basis set group =>   1
Atom  18C    basis set group =>   1
Atom  19H    basis set group =>   2
Atom  20C    basis set group =>   1
Atom  21C    basis set group =>   1
Atom  22H    basis set group =>   2
Atom  23C    basis set group =>   1
Atom  24C    basis set group =>   1
Atom  25H    basis set group =>   2
Atom  26C    basis set group =>   1
Atom  27H    basis set group =>   2
Atom  28H    basis set group =>   2
Atom  29H    basis set group =>   2
Atom  30C    basis set group =>   1
Atom  31C    basis set group =>   1
Atom  32C    basis set group =>   1
Atom  33C    basis set group =>   1
Atom  34H    basis set group =>   2
Atom  35C    basis set group =>   1
Atom  36C    basis set group =>   1
Atom  37H    basis set group =>   2
Atom  38C    basis set group =>   1
Atom  39C    basis set group =>   1
Atom  40H    basis set group =>   2
Atom  41C    basis set group =>   1
Atom  42H    basis set group =>   2
Atom  43H    basis set group =>   2
Atom  44H    basis set group =>   2
Atom  45C    basis set group =>   1
Atom  46C    basis set group =>   1
Atom  47C    basis set group =>   1
Atom  48C    basis set group =>   1
Atom  49H    basis set group =>   2
Atom  50C    basis set group =>   1
Atom  51C    basis set group =>   1
Atom  52H    basis set group =>   2
Atom  53C    basis set group =>   1
Atom  54C    basis set group =>   1
Atom  55H    basis set group =>   2
Atom  56C    basis set group =>   1
Atom  57H    basis set group =>   2
Atom  58H    basis set group =>   2
Atom  59H    basis set group =>   2
Atom  60C    basis set group =>   1
Atom  61C    basis set group =>   1
Atom  62N    basis set group =>   3
Atom  63N    basis set group =>   3
Atom  64H    basis set group =>   2
Atom  65H    basis set group =>   2
Atom  66H    basis set group =>   2
Atom  67H    basis set group =>   2
Atom  68C    basis set group =>   1
Atom  69C    basis set group =>   1
Atom  70N    basis set group =>   3
Atom  71N    basis set group =>   3
Atom  72H    basis set group =>   2
Atom  73H    basis set group =>   2
Atom  74H    basis set group =>   2
Atom  75H    basis set group =>   2
Atom  76C    basis set group =>   1
Atom  77C    basis set group =>   1
Atom  78N    basis set group =>   3
Atom  79N    basis set group =>   3
Atom  80H    basis set group =>   2
Atom  81H    basis set group =>   2
Atom  82H    basis set group =>   2
Atom  83H    basis set group =>   2
Atom  84C    basis set group =>   1
Atom  85C    basis set group =>   1
Atom  86N    basis set group =>   3
Atom  87N    basis set group =>   3
Atom  88H    basis set group =>   2
Atom  89H    basis set group =>   2
Atom  90H    basis set group =>   2
Atom  91H    basis set group =>   2
Atom  92C    basis set group =>   1
Atom  93C    basis set group =>   1
Atom  94N    basis set group =>   3
Atom  95N    basis set group =>   3
Atom  96H    basis set group =>   2
Atom  97H    basis set group =>   2
Atom  98H    basis set group =>   2
Atom  99H    basis set group =>   2
Atom 100C    basis set group =>   1
Atom 101C    basis set group =>   1
Atom 102N    basis set group =>   3
Atom 103N    basis set group =>   3
Atom 104H    basis set group =>   2
Atom 105H    basis set group =>   2
Atom 106H    basis set group =>   2
Atom 107H    basis set group =>   2

-------------------------
BASIS SET IN INPUT FORMAT
-------------------------

 # Basis set for element : H 
 NewGTO H 
 S 3 
   1      33.8700000000      0.0254948632
   2       5.0950000000      0.1903627659
   3       1.1590000000      0.8521620222
 S 1 
   1       0.3258000000      1.0000000000
 S 1 
   1       0.1027000000      1.0000000000
 P 1 
   1       1.4070000000      1.0000000000
 P 1 
   1       0.3880000000      1.0000000000
 D 1 
   1       1.0570000000      1.0000000000
  end;

 # Basis set for element : C 
 NewGTO C 
 S 8 
   1    8236.0000000000      0.0005424302
   2    1235.0000000000      0.0041964279
   3     280.8000000000      0.0215409141
   4      79.2700000000      0.0836149496
   5      25.5900000000      0.2398716189
   6       8.9970000000      0.4437518201
   7       3.3190000000      0.3535796965
   8       0.3643000000     -0.0091763661
 S 8 
   1    8236.0000000000     -0.0001963922
   2    1235.0000000000     -0.0015259503
   3     280.8000000000     -0.0078904490
   4      79.2700000000     -0.0315148705
   5      25.5900000000     -0.0969100083
   6       8.9970000000     -0.2205415263
   7       3.3190000000     -0.2960691129
   8       0.3643000000      1.0405034329
 S 1 
   1       0.9059000000      1.0000000000
 S 1 
   1       0.1285000000      1.0000000000
 P 3 
   1      18.7100000000      0.0394263872
   2       4.1330000000      0.2440889849
   3       1.2000000000      0.8154920089
 P 1 
   1       0.3827000000      1.0000000000
 P 1 
   1       0.1209000000      1.0000000000
 D 1 
   1       1.0970000000      1.0000000000
 D 1 
   1       0.3180000000      1.0000000000
 F 1 
   1       0.7610000000      1.0000000000
  end;

 # Basis set for element : N 
 NewGTO N 
 S 8 
   1   11420.0000000000      0.0005349809
   2    1712.0000000000      0.0041376631
   3     389.3000000000      0.0212509149
   4     110.0000000000      0.0825762988
   5      35.5700000000      0.2384132727
   6      12.5400000000      0.4434316661
   7       4.6440000000      0.3554319088
   8       0.5118000000     -0.0087029018
 S 8 
   1   11420.0000000000     -0.0001987770
   2    1712.0000000000     -0.0015470035
   3     389.3000000000     -0.0079925633
   4     110.0000000000     -0.0320255651
   5      35.5700000000     -0.0991102048
   6      12.5400000000     -0.2282927747
   7       4.6440000000     -0.2981827627
   8       0.5118000000      1.0370005182
 S 1 
   1       1.2930000000      1.0000000000
 S 1 
   1       0.1787000000      1.0000000000
 P 3 
   1      26.6300000000      0.0398072123
   2       5.9480000000      0.2490026605
   3       1.7420000000      0.8104797267
 P 1 
   1       0.5550000000      1.0000000000
 P 1 
   1       0.1725000000      1.0000000000
 D 1 
   1       1.6540000000      1.0000000000
 D 1 
   1       0.4690000000      1.0000000000
 F 1 
   1       1.0930000000      1.0000000000
  end;

---------------------------------
AUXILIARY/C BASIS SET INFORMATION
---------------------------------
There are 3 groups of distinct atoms

 Group   1 Type C   : 8s6p5d3f1g contracted to 8s6p5d3f1g pattern {11111111/111111/11111/111/1}
 Group   2 Type H   : 4s3p2d1f contracted to 4s3p2d1f pattern {1111/111/11/1}
 Group   3 Type N   : 8s6p5d3f1g contracted to 8s6p5d3f1g pattern {11111111/111111/11111/111/1}

Atom   0C    basis set group =>   1
Atom   1C    basis set group =>   1
Atom   2C    basis set group =>   1
Atom   3C    basis set group =>   1
Atom   4H    basis set group =>   2
Atom   5C    basis set group =>   1
Atom   6C    basis set group =>   1
Atom   7H    basis set group =>   2
Atom   8C    basis set group =>   1
Atom   9C    basis set group =>   1
Atom  10H    basis set group =>   2
Atom  11C    basis set group =>   1
Atom  12H    basis set group =>   2
Atom  13H    basis set group =>   2
Atom  14H    basis set group =>   2
Atom  15C    basis set group =>   1
Atom  16C    basis set group =>   1
Atom  17C    basis set group =>   1
Atom  18C    basis set group =>   1
Atom  19H    basis set group =>   2
Atom  20C    basis set group =>   1
Atom  21C    basis set group =>   1
Atom  22H    basis set group =>   2
Atom  23C    basis set group =>   1
Atom  24C    basis set group =>   1
Atom  25H    basis set group =>   2
Atom  26C    basis set group =>   1
Atom  27H    basis set group =>   2
Atom  28H    basis set group =>   2
Atom  29H    basis set group =>   2
Atom  30C    basis set group =>   1
Atom  31C    basis set group =>   1
Atom  32C    basis set group =>   1
Atom  33C    basis set group =>   1
Atom  34H    basis set group =>   2
Atom  35C    basis set group =>   1
Atom  36C    basis set group =>   1
Atom  37H    basis set group =>   2
Atom  38C    basis set group =>   1
Atom  39C    basis set group =>   1
Atom  40H    basis set group =>   2
Atom  41C    basis set group =>   1
Atom  42H    basis set group =>   2
Atom  43H    basis set group =>   2
Atom  44H    basis set group =>   2
Atom  45C    basis set group =>   1
Atom  46C    basis set group =>   1
Atom  47C    basis set group =>   1
Atom  48C    basis set group =>   1
Atom  49H    basis set group =>   2
Atom  50C    basis set group =>   1
Atom  51C    basis set group =>   1
Atom  52H    basis set group =>   2
Atom  53C    basis set group =>   1
Atom  54C    basis set group =>   1
Atom  55H    basis set group =>   2
Atom  56C    basis set group =>   1
Atom  57H    basis set group =>   2
Atom  58H    basis set group =>   2
Atom  59H    basis set group =>   2
Atom  60C    basis set group =>   1
Atom  61C    basis set group =>   1
Atom  62N    basis set group =>   3
Atom  63N    basis set group =>   3
Atom  64H    basis set group =>   2
Atom  65H    basis set group =>   2
Atom  66H    basis set group =>   2
Atom  67H    basis set group =>   2
Atom  68C    basis set group =>   1
Atom  69C    basis set group =>   1
Atom  70N    basis set group =>   3
Atom  71N    basis set group =>   3
Atom  72H    basis set group =>   2
Atom  73H    basis set group =>   2
Atom  74H    basis set group =>   2
Atom  75H    basis set group =>   2
Atom  76C    basis set group =>   1
Atom  77C    basis set group =>   1
Atom  78N    basis set group =>   3
Atom  79N    basis set group =>   3
Atom  80H    basis set group =>   2
Atom  81H    basis set group =>   2
Atom  82H    basis set group =>   2
Atom  83H    basis set group =>   2
Atom  84C    basis set group =>   1
Atom  85C    basis set group =>   1
Atom  86N    basis set group =>   3
Atom  87N    basis set group =>   3
Atom  88H    basis set group =>   2
Atom  89H    basis set group =>   2
Atom  90H    basis set group =>   2
Atom  91H    basis set group =>   2
Atom  92C    basis set group =>   1
Atom  93C    basis set group =>   1
Atom  94N    basis set group =>   3
Atom  95N    basis set group =>   3
Atom  96H    basis set group =>   2
Atom  97H    basis set group =>   2
Atom  98H    basis set group =>   2
Atom  99H    basis set group =>   2
Atom 100C    basis set group =>   1
Atom 101C    basis set group =>   1
Atom 102N    basis set group =>   3
Atom 103N    basis set group =>   3
Atom 104H    basis set group =>   2
Atom 105H    basis set group =>   2
Atom 106H    basis set group =>   2
Atom 107H    basis set group =>   2

-------------------------------------
AUXILIARY/C BASIS SET IN INPUT FORMAT
-------------------------------------

 # Auxiliary/C basis set for element : H 
 NewAuxCGTO H 
 S 1 
   1       8.5128275910      1.0000000000
 S 1 
   1       1.8730891166      1.0000000000
 S 1 
   1       0.5261842694      1.0000000000
 S 1 
   1       0.2897398994      1.0000000000
 P 1 
   1       2.3725491635      1.0000000000
 P 1 
   1       1.1804084468      1.0000000000
 P 1 
   1       0.6038220424      1.0000000000
 D 1 
   1       1.8096373189      1.0000000000
 D 1 
   1       1.1439726055      1.0000000000
 F 1 
   1       1.8063060576      1.0000000000
  end;

 # Auxiliary/C basis set for element : C 
 NewAuxCGTO C 
 S 1 
   1     280.5566118800      1.0000000000
 S 1 
   1      60.2302471910      1.0000000000
 S 1 
   1      22.1166508240      1.0000000000
 S 1 
   1       6.8620932896      1.0000000000
 S 1 
   1       1.5622549539      1.0000000000
 S 1 
   1       0.9124504549      1.0000000000
 S 1 
   1       0.5027491704      1.0000000000
 S 1 
   1       0.2158234875      1.0000000000
 P 1 
   1      24.2318651760      1.0000000000
 P 1 
   1       6.4764514185      1.0000000000
 P 1 
   1       2.1290884677      1.0000000000
 P 1 
   1       1.0375639746      1.0000000000
 P 1 
   1       0.5494127505      1.0000000000
 P 1 
   1       0.2815265223      1.0000000000
 D 1 
   1       9.7189810815      1.0000000000
 D 1 
   1       3.0351475003      1.0000000000
 D 1 
   1       1.4677737562      1.0000000000
 D 1 
   1       0.5737082791      1.0000000000
 D 1 
   1       0.2905558967      1.0000000000
 F 1 
   1       2.2756201303      1.0000000000
 F 1 
   1       1.1968898852      1.0000000000
 F 1 
   1       0.5415748722      1.0000000000
 G 1 
   1       1.2166101638      1.0000000000
  end;

 # Auxiliary/C basis set for element : N 
 NewAuxCGTO N 
 S 1 
   1     287.5092694700      1.0000000000
 S 1 
   1      64.2760308980      1.0000000000
 S 1 
   1      21.6819240160      1.0000000000
 S 1 
   1       7.9068743193      1.0000000000
 S 1 
   1       2.4319673913      1.0000000000
 S 1 
   1       1.2226681474      1.0000000000
 S 1 
   1       0.7667482736      1.0000000000
 S 1 
   1       0.3115884699      1.0000000000
 P 1 
   1      34.9650273710      1.0000000000
 P 1 
   1      10.3238966480      1.0000000000
 P 1 
   1       2.8981582643      1.0000000000
 P 1 
   1       1.4077404555      1.0000000000
 P 1 
   1       0.8508338654      1.0000000000
 P 1 
   1       0.3735327414      1.0000000000
 D 1 
   1      13.9086370890      1.0000000000
 D 1 
   1       4.5847232531      1.0000000000
 D 1 
   1       2.2101848651      1.0000000000
 D 1 
   1       0.8376830121      1.0000000000
 D 1 
   1       0.4194837561      1.0000000000
 F 1 
   1       3.4730665788      1.0000000000
 F 1 
   1       1.5589463548      1.0000000000
 F 1 
   1       0.8467763824      1.0000000000
 G 1 
   1       1.7764066281      1.0000000000
  end;



           ************************************************************
           *        Program running with 32 parallel MPI-processes    *
           *              working on a common directory               *
           ************************************************************
------------------------------------------------------------------------------
                           ORCA GTO INTEGRAL CALCULATION
------------------------------------------------------------------------------

                         BASIS SET STATISTICS AND STARTUP INFO

 # of primitive gaussian shells          ... 1944
 # of primitive gaussian functions       ... 3768
 # of contracted shells                  ...  888
 # of contracted basis functions         ... 2472
 Highest angular momentum                ...    3
 Maximum contraction depth               ...    8
 Integral package used                   ... LIBINT
 Integral threshhold            Thresh   ...  2.500e-11
 Primitive cut-off              TCut     ...  2.500e-12


------------------------------ INTEGRAL EVALUATION ----------------------------


 * One electron integrals 
 Pre-screening matrix                    ... done
 Shell pair data                         ... done (   0.055 sec)



           ************************************************************
           *        Program running with 32 parallel MPI-processes    *
           *              working on a common directory               *
           ************************************************************
-------------------------------------------------------------------------------
                                 ORCA SCF
-------------------------------------------------------------------------------

------------
SCF SETTINGS
------------
Hamiltonian:
 Ab initio Hamiltonian  Method          .... Hartree-Fock(GTOs)


General Settings:
 Integral files         IntName         .... _o_4_alde1_6_ami4_1_opt_MP2
 Hartree-Fock type      HFTyp           .... RHF
 Total Charge           Charge          ....    0
 Multiplicity           Mult            ....    1
 Number of Electrons    NEL             ....  420
 Basis Dimension        Dim             .... 2472
 Nuclear Repulsion      ENuc            ....   8061.6121312658 Eh

Convergence Acceleration:
 DIIS                   CNVDIIS         .... on
   Start iteration      DIISMaxIt       ....     0
   Startup error        DIISStart       ....  0.200000
   # of expansion vecs  DIISMaxEq       ....     5
   Bias factor          DIISBfac        ....   1.050
   Max. coefficient     DIISMaxC        ....  10.000
 Newton-Raphson         CNVNR           .... off
 SOSCF                  CNVSOSCF        .... on
   Start iteration      SOSCFMaxIt      ....   150
   Startup grad/error   SOSCFStart      ....  0.001000
 Level Shifting         CNVShift        .... on
   Level shift para.    LevelShift      ....    0.2500
   Turn off err/grad.   ShiftErr        ....    0.0000
 Zerner damping         CNVZerner       .... off
 Static damping         CNVDamp         .... on
   Fraction old density DampFac         ....    0.8500
   Max. Damping (<1)    DampMax         ....    0.9800
   Min. Damping (>=0)   DampMin         ....    0.0000
   Turn off err/grad.   DampErr         ....    0.0300
 Fernandez-Rico         CNVRico         .... off

SCF Procedure:
 Maximum # iterations   MaxIter         ....   125
 SCF integral mode      SCFMode         .... Direct
   Integral package                     .... LIBINT
 Reset frequency        DirectResetFreq ....    20
 Integral Threshold     Thresh          ....  2.500e-11 Eh
 Primitive CutOff       TCut            ....  2.500e-12 Eh

Convergence Tolerance:
 Convergence Check Mode ConvCheckMode   .... Total+1el-Energy
 Convergence forced     ConvForced      .... 1
 Energy Change          TolE            ....  1.000e-08 Eh
 1-El. energy change                    ....  1.000e-05 Eh
 Orbital Gradient       TolG            ....  1.000e-05
 Orbital Rotation angle TolX            ....  1.000e-05
 DIIS Error             TolErr          ....  5.000e-07


Diagonalization of the overlap matrix:
Smallest eigenvalue                        ... 2.541e-05
Time for diagonalization                   ...    3.013 sec
Threshold for overlap eigenvalues          ... 1.000e-08
Number of eigenvalues below threshold      ... 0
Time for construction of square roots      ...    0.749 sec
Total time needed                          ...    3.774 sec

-------------------
DFT GRID GENERATION
-------------------

General Integration Accuracy     IntAcc      ...  5.340
Radial Grid Type                 RadialGrid  ... Gauss-Chebyshev
Angular Grid (max. acc.)         AngularGrid ... Lebedev-590
Angular grid pruning method      GridPruning ... 3 (G Style)
Weight generation scheme         WeightScheme... Becke
Basis function cutoff            BFCut       ...    1.0000e-11
Integration weight cutoff        WCut        ...    1.0000e-14
Grids for H and He will be reduced by one unit

# of grid points (after initial pruning)     ... 1516560 (   0.0 sec)
# of grid points (after weights+screening)   ... 1267259 (   3.4 sec)
nearest neighbour list constructed           ...    0.0 sec
Grid point re-assignment to atoms done       ...    0.2 sec
Grid point division into batches done        ...   12.7 sec
Reduced shell lists constructed in   13.8 sec

Total number of grid points                  ...  1267259
Total number of batches                      ...    19858
Average number of points per batch           ...       63
Average number of grid points per atom       ...    11734
Average number of shells per batch           ...   201.43 (22.68%)
Average number of basis functions per batch  ...   480.49 (19.44%)
Average number of large shells per batch     ...   105.40 (52.33%)
Average number of large basis fcns per batch ...   270.75 (56.35%)
Maximum spatial batch extension              ...  13.84, 10.24, 15.96 au
Average spatial batch extension              ...   0.03,  0.03,  0.03 au

Time for grid setup =   17.705 sec

------------------------------
INITIAL GUESS: MODEL POTENTIAL
------------------------------
Loading Hartree-Fock densities                     ... done
Calculating cut-offs                               ... done
Setting up the integral package                    ... done
Initializing the effective Hamiltonian             ... done
Starting the Coulomb interaction                   ... done (   1.1 sec)
Reading the grid                                   ... done
Mapping shells                                     ... done
Starting the XC term evaluation                    ... done (   0.8 sec)
Transforming the Hamiltonian                       ... done (   0.5 sec)
Diagonalizing the Hamiltonian                      ... done (   0.8 sec)
Back transforming the eigenvectors                 ... done (   0.3 sec)
Now organizing SCF variables                       ... done
                      ------------------
                      INITIAL GUESS DONE (  21.5 sec)
                      ------------------
--------------
SCF ITERATIONS
--------------
ITER       Energy         Delta-E        Max-DP      RMS-DP      [F,P]     Damp
               ***  Starting incremental Fock matrix formation  ***
  0  -2497.4021586068   0.000000000000 0.02605441  0.00017681  0.2451498 0.8500
  1  -2497.7976238946  -0.395465287753 0.03338731  0.00020162  0.2012240 0.8500
                               ***Turning on DIIS***
  2  -2498.1177780885  -0.320154193891 0.02811710  0.00017275  0.1606884 0.8500
  3  -2505.9709858730  -7.853207784548 0.01614802  0.00011777  0.1282414 0.8500
  4  -2509.6990981574  -3.728112284440 0.00809455  0.00008154  0.1061236 0.8500
  5  -2509.7961964218  -0.097098264383 0.00699206  0.00006296  0.0903001 0.8500
  6  -2508.8340797033   0.962116718578 0.00599569  0.00005194  0.0774993 0.8500
  7  -2507.2018346300   1.632245073226 0.00511369  0.00004439  0.0665441 0.8500
  8  -2505.8687623599   1.333072270165 0.00435364  0.00003797  0.0567504 0.8500
  9  -2504.8538946547   1.014867705115 0.00370404  0.00003230  0.0482406 0.8500
 10  -2504.0505844548   0.803310199899 0.00315099  0.00002744  0.0410220 0.8500
 11  -2503.3879187185   0.662665736379 0.00268078  0.00002336  0.0349220 0.8500
 12  -2502.8261709019   0.561747816606 0.01520674  0.00013281  0.0297410 0.0000
                      *** Initiating the SOSCF procedure ***
                           *** Shutting down DIIS ***
                      *** Re-Reading the Fockian *** 
                      *** Removing any level shift *** 
ITER      Energy       Delta-E        Grad      Rot      Max-DP    RMS-DP
 13  -2499.71378232   3.1123885787  0.000368  0.000368  0.002023  0.000011
               *** Restarting incremental Fock matrix formation ***
 14  -2499.70246039   0.0113219297  0.000251  0.000588  0.001220  0.000007
 15  -2499.70248439  -0.0000239951  0.000109  0.000600  0.001721  0.000008
 16  -2499.70249129  -0.0000068976  0.000080  0.000144  0.000226  0.000001
 17  -2499.70249240  -0.0000011127  0.000022  0.000077  0.000055  0.000000
 18  -2499.70249261  -0.0000002089  0.000013  0.000092  0.000048  0.000000
 19  -2499.70249256   0.0000000446  0.000004  0.000014  0.000017  0.000000
                  ***Gradient check signals convergence***
              ***Rediagonalizing the Fockian in SOSCF/NRSCF***

               *****************************************************
               *                     SUCCESS                       *
               *           SCF CONVERGED AFTER  20 CYCLES          *
               *****************************************************


----------------
TOTAL SCF ENERGY
----------------

Total Energy       :        -2499.70249262 Eh          -68020.36291 eV

Components:
Nuclear Repulsion  :         8061.61213127 Eh          219367.61853 eV
Electronic Energy  :       -10561.31462388 Eh         -287387.98144 eV
One Electron Energy:       -19458.73018522 Eh         -529498.96755 eV
Two Electron Energy:         8897.41556134 Eh          242110.98611 eV

Virial components:
Potential Energy   :        -4996.69656145 Eh         -135967.02587 eV
Kinetic Energy     :         2496.99406883 Eh           67946.66295 eV
Virial Ratio       :            2.00108467


---------------
SCF CONVERGENCE
---------------

  Last Energy change         ...   -5.4508e-08  Tolerance :   1.0000e-08
  Last MAX-Density change    ...    6.6540e-06  Tolerance :   1.0000e-07
  Last RMS-Density change    ...    5.4423e-08  Tolerance :   5.0000e-09
  Last Orbital Gradient      ...    1.7609e-06  Tolerance :   1.0000e-05
  Last Orbital Rotation      ...    5.6178e-06  Tolerance :   1.0000e-05

             **** THE GBW FILE WAS UPDATED (_o_4_alde1_6_ami4_1_opt_MP2.gbw) ****
             **** DENSITY FILE WAS UPDATED (_o_4_alde1_6_ami4_1_opt_MP2.scfp) ****
             **** ENERGY FILE WAS UPDATED (_o_4_alde1_6_ami4_1_opt_MP2.en.tmp) ****
             **** THE GBW FILE WAS UPDATED (_o_4_alde1_6_ami4_1_opt_MP2.gbw) ****
             **** DENSITY FILE WAS UPDATED (_o_4_alde1_6_ami4_1_opt_MP2.scfp) ****
----------------
ORBITAL ENERGIES
----------------

  NO   OCC          E(Eh)            E(eV) 
   0   2.0000     -15.554094      -423.2484 
   1   2.0000     -15.554087      -423.2482 
   2   2.0000     -15.554085      -423.2482 
   3   2.0000     -15.554084      -423.2481 
   4   2.0000     -15.554083      -423.2481 
   5   2.0000     -15.554080      -423.2480 
   6   2.0000     -15.554079      -423.2480 
   7   2.0000     -15.554079      -423.2480 
   8   2.0000     -15.554078      -423.2480 
   9   2.0000     -15.554076      -423.2479 
  10   2.0000     -15.554074      -423.2479 
  11   2.0000     -15.554073      -423.2478 
  12   2.0000     -11.279858      -306.9405 
  13   2.0000     -11.279855      -306.9405 
  14   2.0000     -11.279851      -306.9404 
  15   2.0000     -11.279847      -306.9402 
  16   2.0000     -11.279846      -306.9402 
  17   2.0000     -11.279845      -306.9402 
  18   2.0000     -11.279844      -306.9402 
  19   2.0000     -11.279844      -306.9402 
  20   2.0000     -11.279842      -306.9401 
  21   2.0000     -11.279841      -306.9401 
  22   2.0000     -11.279839      -306.9400 
  23   2.0000     -11.279838      -306.9400 
  24   2.0000     -11.250811      -306.1501 
  25   2.0000     -11.250807      -306.1500 
  26   2.0000     -11.250806      -306.1500 
  27   2.0000     -11.250802      -306.1499 
  28   2.0000     -11.250801      -306.1499 
  29   2.0000     -11.250800      -306.1498 
  30   2.0000     -11.250186      -306.1331 
  31   2.0000     -11.250182      -306.1330 
  32   2.0000     -11.250181      -306.1330 
  33   2.0000     -11.250177      -306.1329 
  34   2.0000     -11.250177      -306.1329 
  35   2.0000     -11.250175      -306.1328 
  36   2.0000     -11.246937      -306.0447 
  37   2.0000     -11.246928      -306.0445 
  38   2.0000     -11.246927      -306.0444 
  39   2.0000     -11.246917      -306.0442 
  40   2.0000     -11.246500      -306.0328 
  41   2.0000     -11.246493      -306.0326 
  42   2.0000     -11.246492      -306.0326 
  43   2.0000     -11.246492      -306.0326 
  44   2.0000     -11.246484      -306.0324 
  45   2.0000     -11.246482      -306.0323 
  46   2.0000     -11.246482      -306.0323 
  47   2.0000     -11.246471      -306.0320 
  48   2.0000     -11.244527      -305.9791 
  49   2.0000     -11.244525      -305.9791 
  50   2.0000     -11.244521      -305.9790 
  51   2.0000     -11.244520      -305.9789 
  52   2.0000     -11.244518      -305.9789 
  53   2.0000     -11.244515      -305.9788 
  54   2.0000     -11.244511      -305.9787 
  55   2.0000     -11.244505      -305.9785 
  56   2.0000     -11.244053      -305.9662 
  57   2.0000     -11.244046      -305.9660 
  58   2.0000     -11.244045      -305.9660 
  59   2.0000     -11.244035      -305.9657 
  60   2.0000      -1.251866       -34.0650 
  61   2.0000      -1.249881       -34.0110 
  62   2.0000      -1.249875       -34.0108 
  63   2.0000      -1.249867       -34.0106 
  64   2.0000      -1.248589       -33.9758 
  65   2.0000      -1.248581       -33.9756 
  66   2.0000      -1.228917       -33.4405 
  67   2.0000      -1.228915       -33.4405 
  68   2.0000      -1.228909       -33.4403 
  69   2.0000      -1.224278       -33.3143 
  70   2.0000      -1.224275       -33.3142 
  71   2.0000      -1.224270       -33.3141 
  72   2.0000      -1.170154       -31.8415 
  73   2.0000      -1.164271       -31.6814 
  74   2.0000      -1.164264       -31.6812 
  75   2.0000      -1.164255       -31.6810 
  76   2.0000      -1.070957       -29.1422 
  77   2.0000      -1.070950       -29.1420 
  78   2.0000      -1.065173       -28.9848 
  79   2.0000      -1.065167       -28.9847 
  80   2.0000      -1.065162       -28.9845 
  81   2.0000      -1.049778       -28.5659 
  82   2.0000      -1.049775       -28.5658 
  83   2.0000      -1.049767       -28.5656 
  84   2.0000      -1.016893       -27.6711 
  85   2.0000      -1.000282       -27.2191 
  86   2.0000      -1.000273       -27.2188 
  87   2.0000      -1.000269       -27.2187 
  88   2.0000      -0.993813       -27.0430 
  89   2.0000      -0.993807       -27.0429 
  90   2.0000      -0.908954       -24.7339 
  91   2.0000      -0.908945       -24.7337 
  92   2.0000      -0.908939       -24.7335 
  93   2.0000      -0.906737       -24.6736 
  94   2.0000      -0.906727       -24.6733 
  95   2.0000      -0.906723       -24.6732 
  96   2.0000      -0.872505       -23.7421 
  97   2.0000      -0.872494       -23.7418 
  98   2.0000      -0.862954       -23.4822 
  99   2.0000      -0.862949       -23.4820 
 100   2.0000      -0.862947       -23.4820 
 101   2.0000      -0.833389       -22.6777 
 102   2.0000      -0.824403       -22.4331 
 103   2.0000      -0.824399       -22.4330 
 104   2.0000      -0.824397       -22.4330 
 105   2.0000      -0.800313       -21.7776 
 106   2.0000      -0.800305       -21.7774 
 107   2.0000      -0.800296       -21.7772 
 108   2.0000      -0.752011       -20.4633 
 109   2.0000      -0.752007       -20.4632 
 110   2.0000      -0.752003       -20.4630 
 111   2.0000      -0.745739       -20.2926 
 112   2.0000      -0.745729       -20.2923 
 113   2.0000      -0.745106       -20.2754 
 114   2.0000      -0.745104       -20.2753 
 115   2.0000      -0.745099       -20.2752 
 116   2.0000      -0.707412       -19.2497 
 117   2.0000      -0.703834       -19.1523 
 118   2.0000      -0.703827       -19.1521 
 119   2.0000      -0.703824       -19.1520 
 120   2.0000      -0.687315       -18.7028 
 121   2.0000      -0.684979       -18.6392 
 122   2.0000      -0.684974       -18.6391 
 123   2.0000      -0.684971       -18.6390 
 124   2.0000      -0.667819       -18.1723 
 125   2.0000      -0.667809       -18.1720 
 126   2.0000      -0.667803       -18.1718 
 127   2.0000      -0.658553       -17.9201 
 128   2.0000      -0.658542       -17.9198 
 129   2.0000      -0.657636       -17.8952 
 130   2.0000      -0.657632       -17.8951 
 131   2.0000      -0.657627       -17.8950 
 132   2.0000      -0.643084       -17.4992 
 133   2.0000      -0.643064       -17.4987 
 134   2.0000      -0.643061       -17.4986 
 135   2.0000      -0.641842       -17.4654 
 136   2.0000      -0.618141       -16.8205 
 137   2.0000      -0.618139       -16.8204 
 138   2.0000      -0.618135       -16.8203 
 139   2.0000      -0.615831       -16.7576 
 140   2.0000      -0.613516       -16.6946 
 141   2.0000      -0.613495       -16.6940 
 142   2.0000      -0.610692       -16.6178 
 143   2.0000      -0.610686       -16.6176 
 144   2.0000      -0.610680       -16.6174 
 145   2.0000      -0.601192       -16.3593 
 146   2.0000      -0.601189       -16.3592 
 147   2.0000      -0.601182       -16.3590 
 148   2.0000      -0.589894       -16.0518 
 149   2.0000      -0.589879       -16.0514 
 150   2.0000      -0.581440       -15.8218 
 151   2.0000      -0.581432       -15.8216 
 152   2.0000      -0.581419       -15.8212 
 153   2.0000      -0.578355       -15.7378 
 154   2.0000      -0.546564       -14.8728 
 155   2.0000      -0.546548       -14.8723 
 156   2.0000      -0.546539       -14.8721 
 157   2.0000      -0.544438       -14.8149 
 158   2.0000      -0.544418       -14.8144 
 159   2.0000      -0.544405       -14.8140 
 160   2.0000      -0.537446       -14.6246 
 161   2.0000      -0.535026       -14.5588 
 162   2.0000      -0.535022       -14.5587 
 163   2.0000      -0.533265       -14.5109 
 164   2.0000      -0.533260       -14.5108 
 165   2.0000      -0.533257       -14.5106 
 166   2.0000      -0.527409       -14.3515 
 167   2.0000      -0.527401       -14.3513 
 168   2.0000      -0.527392       -14.3511 
 169   2.0000      -0.517922       -14.0934 
 170   2.0000      -0.502433       -13.6719 
 171   2.0000      -0.502422       -13.6716 
 172   2.0000      -0.502413       -13.6714 
 173   2.0000      -0.496686       -13.5155 
 174   2.0000      -0.496684       -13.5155 
 175   2.0000      -0.496674       -13.5152 
 176   2.0000      -0.496618       -13.5137 
 177   2.0000      -0.496610       -13.5135 
 178   2.0000      -0.461684       -12.5631 
 179   2.0000      -0.461679       -12.5629 
 180   2.0000      -0.461673       -12.5628 
 181   2.0000      -0.452807       -12.3215 
 182   2.0000      -0.452805       -12.3214 
 183   2.0000      -0.452794       -12.3212 
 184   2.0000      -0.446593       -12.1524 
 185   2.0000      -0.446585       -12.1522 
 186   2.0000      -0.412114       -11.2142 
 187   2.0000      -0.412105       -11.2140 
 188   2.0000      -0.412102       -11.2139 
 189   2.0000      -0.411900       -11.2084 
 190   2.0000      -0.408572       -11.1178 
 191   2.0000      -0.408563       -11.1176 
 192   2.0000      -0.408559       -11.1175 
 193   2.0000      -0.407869       -11.0987 
 194   2.0000      -0.407866       -11.0986 
 195   2.0000      -0.406998       -11.0750 
 196   2.0000      -0.406996       -11.0749 
 197   2.0000      -0.406993       -11.0748 
 198   2.0000      -0.401325       -10.9206 
 199   2.0000      -0.401321       -10.9205 
 200   2.0000      -0.401308       -10.9202 
 201   2.0000      -0.392646       -10.6844 
 202   2.0000      -0.325008        -8.8439 
 203   2.0000      -0.325003        -8.8438 
 204   2.0000      -0.324998        -8.8436 
 205   2.0000      -0.322483        -8.7752 
 206   2.0000      -0.322480        -8.7751 
 207   2.0000      -0.322475        -8.7750 
 208   2.0000      -0.321014        -8.7352 
 209   2.0000      -0.321012        -8.7352 
 210   0.0000       0.073660         2.0044 
 211   0.0000       0.073671         2.0047 
 212   0.0000       0.073674         2.0048 
 213   0.0000       0.077824         2.1177 
 214   0.0000       0.077831         2.1179 
 215   0.0000       0.077835         2.1180 
 216   0.0000       0.078443         2.1345 
 217   0.0000       0.078454         2.1348 
 218   0.0000       0.131477         3.5777 
 219   0.0000       0.132686         3.6106 
 220   0.0000       0.132687         3.6106 
 221   0.0000       0.132694         3.6108 
 222   0.0000       0.140562         3.8249 
 223   0.0000       0.140572         3.8252 
 224   0.0000       0.140581         3.8254 
 225   0.0000       0.141463         3.8494 
 226   0.0000       0.157417         4.2835 
 227   0.0000       0.157423         4.2837 
 228   0.0000       0.158075         4.3014 
 229   0.0000       0.158080         4.3016 
 230   0.0000       0.158101         4.3021 
 231   0.0000       0.162761         4.4290 
 232   0.0000       0.162766         4.4291 
 233   0.0000       0.162778         4.4294 
 234   0.0000       0.171638         4.6705 
 235   0.0000       0.171643         4.6707 
 236   0.0000       0.171664         4.6712 
 237   0.0000       0.177781         4.8377 
 238   0.0000       0.179599         4.8871 
 239   0.0000       0.179623         4.8878 
 240   0.0000       0.201498         5.4830 
 241   0.0000       0.201500         5.4831 
 242   0.0000       0.201506         5.4833 
 243   0.0000       0.204678         5.5696 
 244   0.0000       0.204686         5.5698 
 245   0.0000       0.204693         5.5700 
 246   0.0000       0.207899         5.6572 
 247   0.0000       0.207902         5.6573 
 248   0.0000       0.207912         5.6576 
 249   0.0000       0.211844         5.7646 
 250   0.0000       0.211848         5.7647 
 251   0.0000       0.211855         5.7649 
 252   0.0000       0.215926         5.8757 
 253   0.0000       0.215996         5.8776 
 254   0.0000       0.222071         6.0429 
 255   0.0000       0.222080         6.0431 
 256   0.0000       0.222101         6.0437 
 257   0.0000       0.228808         6.2262 
 258   0.0000       0.228862         6.2276 
 259   0.0000       0.228879         6.2281 
 260   0.0000       0.230327         6.2675 
 261   0.0000       0.232958         6.3391 
 262   0.0000       0.232965         6.3393 
 263   0.0000       0.232970         6.3394 
 264   0.0000       0.244668         6.6577 
 265   0.0000       0.244697         6.6586 
 266   0.0000       0.258192         7.0258 
 267   0.0000       0.258200         7.0260 
 268   0.0000       0.259353         7.0573 
 269   0.0000       0.259356         7.0574 
 270   0.0000       0.259366         7.0577 
 271   0.0000       0.271095         7.3769 
 272   0.0000       0.271103         7.3771 
 273   0.0000       0.271115         7.3774 
 274   0.0000       0.281563         7.6617 
 275   0.0000       0.282626         7.6906 
 276   0.0000       0.282635         7.6909 
 277   0.0000       0.282658         7.6915 
 278   0.0000       0.293997         8.0001 
 279   0.0000       0.296765         8.0754 
 280   0.0000       0.305999         8.3267 
 281   0.0000       0.306005         8.3268 
 282   0.0000       0.306015         8.3271 
 283   0.0000       0.315311         8.5801 
 284   0.0000       0.315332         8.5806 
 285   0.0000       0.315353         8.5812 
 286   0.0000       0.320082         8.7099 
 287   0.0000       0.320090         8.7101 
 288   0.0000       0.320095         8.7102 
 289   0.0000       0.321473         8.7477 
 290   0.0000       0.321496         8.7483 
 291   0.0000       0.331427         9.0186 
 292   0.0000       0.331427         9.0186 
 293   0.0000       0.331436         9.0188 
 294   0.0000       0.334606         9.1051 
 295   0.0000       0.341806         9.3010 
 296   0.0000       0.341815         9.3012 
 297   0.0000       0.341819         9.3014 
 298   0.0000       0.346407         9.4262 
 299   0.0000       0.346441         9.4271 
 300   0.0000       0.349511         9.5107 
 301   0.0000       0.349541         9.5115 
 302   0.0000       0.349565         9.5121 
 303   0.0000       0.360217         9.8020 
 304   0.0000       0.360245         9.8028 
 305   0.0000       0.360259         9.8032 
 306   0.0000       0.385762        10.4971 
 307   0.0000       0.385782        10.4977 
 308   0.0000       0.385793        10.4980 
 309   0.0000       0.393376        10.7043 
 310   0.0000       0.394645        10.7388 
 311   0.0000       0.394710        10.7406 
 312   0.0000       0.398006        10.8303 
 313   0.0000       0.398042        10.8313 
 314   0.0000       0.398093        10.8326 
 315   0.0000       0.403367        10.9762 
 316   0.0000       0.403380        10.9765 
 317   0.0000       0.403418        10.9776 
 318   0.0000       0.408165        11.1067 
 319   0.0000       0.408221        11.1083 
 320   0.0000       0.409083        11.1317 
 321   0.0000       0.419678        11.4200 
 322   0.0000       0.419727        11.4214 
 323   0.0000       0.419736        11.4216 
 324   0.0000       0.422386        11.4937 
 325   0.0000       0.422422        11.4947 
 326   0.0000       0.422464        11.4958 
 327   0.0000       0.428514        11.6605 
 328   0.0000       0.428542        11.6612 
 329   0.0000       0.428568        11.6619 
 330   0.0000       0.440352        11.9826 
 331   0.0000       0.440779        11.9942 
 332   0.0000       0.440828        11.9955 
 333   0.0000       0.442571        12.0430 
 334   0.0000       0.442590        12.0435 
 335   0.0000       0.442606        12.0439 
 336   0.0000       0.445009        12.1093 
 337   0.0000       0.445035        12.1100 
 338   0.0000       0.445055        12.1106 
 339   0.0000       0.448066        12.1925 
 340   0.0000       0.448082        12.1929 
 341   0.0000       0.448090        12.1932 
 342   0.0000       0.452093        12.3021 
 343   0.0000       0.459001        12.4900 
 344   0.0000       0.459021        12.4906 
 345   0.0000       0.459037        12.4910 
 346   0.0000       0.463063        12.6006 
 347   0.0000       0.463072        12.6008 
 348   0.0000       0.469192        12.7674 
 349   0.0000       0.473499        12.8846 
 350   0.0000       0.473519        12.8851 
 351   0.0000       0.473522        12.8852 
 352   0.0000       0.479919        13.0593 
 353   0.0000       0.479950        13.0601 
 354   0.0000       0.479972        13.0607 
 355   0.0000       0.495663        13.4877 
 356   0.0000       0.495670        13.4879 
 357   0.0000       0.495686        13.4883 
 358   0.0000       0.496488        13.5101 
 359   0.0000       0.496500        13.5105 
 360   0.0000       0.499439        13.5904 
 361   0.0000       0.499452        13.5908 
 362   0.0000       0.499454        13.5908 
 363   0.0000       0.508688        13.8421 
 364   0.0000       0.508717        13.8429 
 365   0.0000       0.508739        13.8435 
 366   0.0000       0.512694        13.9511 
 367   0.0000       0.512709        13.9515 
 368   0.0000       0.512746        13.9525 
 369   0.0000       0.518555        14.1106 
 370   0.0000       0.519324        14.1315 
 371   0.0000       0.519347        14.1321 
 372   0.0000       0.523645        14.2491 
 373   0.0000       0.523680        14.2501 
 374   0.0000       0.523703        14.2507 
 375   0.0000       0.530532        14.4365 
 376   0.0000       0.530537        14.4367 
 377   0.0000       0.531259        14.4563 
 378   0.0000       0.531268        14.4565 
 379   0.0000       0.531276        14.4567 
 380   0.0000       0.533830        14.5263 
 381   0.0000       0.533842        14.5266 
 382   0.0000       0.533867        14.5273 
 383   0.0000       0.539318        14.6756 
 384   0.0000       0.539334        14.6760 
 385   0.0000       0.539344        14.6763 
 386   0.0000       0.541755        14.7419 
 387   0.0000       0.543892        14.8000 
 388   0.0000       0.543908        14.8005 
 389   0.0000       0.543920        14.8008 
 390   0.0000       0.553383        15.0583 
 391   0.0000       0.553409        15.0590 
[...]
      dxy     :     0.004664


                      *****************************
                      * MAYER POPULATION ANALYSIS *
                      *****************************

  NA   - Mulliken gross atomic population
  ZA   - Total nuclear charge
  QA   - Mulliken gross atomic charge
  VA   - Mayer's total valence
  BVA  - Mayer's bonded valence
  FA   - Mayer's free valence

  ATOM       NA         ZA         QA         VA         BVA        FA
  0 C      5.8437     6.0000     0.1563     3.6013     3.6013    -0.0000
  1 C      6.0796     6.0000    -0.0796     4.0220     4.0220    -0.0000
  2 C      6.1972     6.0000    -0.1972     3.9171     3.9171    -0.0000
  3 C      5.8436     6.0000     0.1564     3.6012     3.6012    -0.0000
  4 H      0.8450     1.0000     0.1550     1.0183     1.0183    -0.0000
  5 C      6.1972     6.0000    -0.1972     3.9171     3.9171    -0.0000
  6 C      5.8437     6.0000     0.1563     3.6012     3.6012    -0.0000
  7 H      0.8450     1.0000     0.1550     1.0183     1.0183    -0.0000
  8 C      6.1972     6.0000    -0.1972     3.9171     3.9171    -0.0000
  9 C      6.0796     6.0000    -0.0796     4.0220     4.0220    -0.0000
 10 H      0.8450     1.0000     0.1550     1.0183     1.0183    -0.0000
 11 C      6.0797     6.0000    -0.0797     4.0220     4.0220    -0.0000
 12 H      0.9097     1.0000     0.0903     0.9991     0.9991    -0.0000
 13 H      0.9097     1.0000     0.0903     0.9991     0.9991    -0.0000
 14 H      0.9097     1.0000     0.0903     0.9991     0.9991    -0.0000
 15 C      5.8437     6.0000     0.1563     3.6013     3.6013    -0.0000
 16 C      6.0796     6.0000    -0.0796     4.0221     4.0221    -0.0000
 17 C      6.1972     6.0000    -0.1972     3.9171     3.9171    -0.0000
 18 C      5.8436     6.0000     0.1564     3.6013     3.6013    -0.0000
 19 H      0.8450     1.0000     0.1550     1.0183     1.0183     0.0000
 20 C      6.1972     6.0000    -0.1972     3.9171     3.9171    -0.0000
 21 C      5.8436     6.0000     0.1564     3.6012     3.6012    -0.0000
 22 H      0.8450     1.0000     0.1550     1.0183     1.0183    -0.0000
 23 C      6.1972     6.0000    -0.1972     3.9171     3.9171    -0.0000
 24 C      6.0796     6.0000    -0.0796     4.0220     4.0220    -0.0000
 25 H      0.8450     1.0000     0.1550     1.0183     1.0183    -0.0000
 26 C      6.0796     6.0000    -0.0796     4.0221     4.0221    -0.0000
 27 H      0.9097     1.0000     0.0903     0.9991     0.9991    -0.0000
 28 H      0.9097     1.0000     0.0903     0.9991     0.9991    -0.0000
 29 H      0.9097     1.0000     0.0903     0.9991     0.9991    -0.0000
 30 C      5.8436     6.0000     0.1564     3.6012     3.6012    -0.0000
 31 C      6.0796     6.0000    -0.0796     4.0220     4.0220    -0.0000
 32 C      6.1972     6.0000    -0.1972     3.9171     3.9171    -0.0000
 33 C      5.8436     6.0000     0.1564     3.6012     3.6012    -0.0000
 34 H      0.8450     1.0000     0.1550     1.0183     1.0183    -0.0000
 35 C      6.1972     6.0000    -0.1972     3.9172     3.9172    -0.0000
 36 C      5.8436     6.0000     0.1564     3.6012     3.6012    -0.0000
 37 H      0.8450     1.0000     0.1550     1.0183     1.0183    -0.0000
 38 C      6.1972     6.0000    -0.1972     3.9172     3.9172    -0.0000
 39 C      6.0796     6.0000    -0.0796     4.0220     4.0220    -0.0000
 40 H      0.8450     1.0000     0.1550     1.0183     1.0183    -0.0000
 41 C      6.0796     6.0000    -0.0796     4.0221     4.0221    -0.0000
 42 H      0.9097     1.0000     0.0903     0.9991     0.9991    -0.0000
 43 H      0.9097     1.0000     0.0903     0.9991     0.9991    -0.0000
 44 H      0.9097     1.0000     0.0903     0.9991     0.9991    -0.0000
 45 C      5.8436     6.0000     0.1564     3.6012     3.6012    -0.0000
 46 C      6.0796     6.0000    -0.0796     4.0220     4.0220    -0.0000
 47 C      6.1972     6.0000    -0.1972     3.9171     3.9171    -0.0000
 48 C      5.8436     6.0000     0.1564     3.6011     3.6011    -0.0000
 49 H      0.8450     1.0000     0.1550     1.0183     1.0183    -0.0000
 50 C      6.1972     6.0000    -0.1972     3.9171     3.9171    -0.0000
 51 C      5.8437     6.0000     0.1563     3.6012     3.6012    -0.0000
 52 H      0.8450     1.0000     0.1550     1.0183     1.0183    -0.0000
 53 C      6.1972     6.0000    -0.1972     3.9171     3.9171    -0.0000
 54 C      6.0796     6.0000    -0.0796     4.0221     4.0221    -0.0000
 55 H      0.8450     1.0000     0.1550     1.0183     1.0183    -0.0000
 56 C      6.0797     6.0000    -0.0797     4.0220     4.0220    -0.0000
 57 H      0.9097     1.0000     0.0903     0.9991     0.9991    -0.0000
 58 H      0.9097     1.0000     0.0903     0.9991     0.9991    -0.0000
 59 H      0.9097     1.0000     0.0903     0.9991     0.9991     0.0000
 60 C      6.0339     6.0000    -0.0339     3.8805     3.8805    -0.0000
 61 C      6.0339     6.0000    -0.0339     3.8804     3.8804    -0.0000
 62 N      7.2554     7.0000    -0.2554     2.9912     2.9912    -0.0000
 63 N      7.2554     7.0000    -0.2554     2.9913     2.9913    -0.0000
 64 H      0.9388     1.0000     0.0612     0.9922     0.9922    -0.0000
 65 H      0.8968     1.0000     0.1032     0.9806     0.9806    -0.0000
 66 H      0.9388     1.0000     0.0612     0.9922     0.9922    -0.0000
 67 H      0.8968     1.0000     0.1032     0.9806     0.9806    -0.0000
 68 C      6.0339     6.0000    -0.0339     3.8805     3.8805    -0.0000
 69 C      6.0339     6.0000    -0.0339     3.8805     3.8805    -0.0000
 70 N      7.2554     7.0000    -0.2554     2.9912     2.9912    -0.0000
 71 N      7.2554     7.0000    -0.2554     2.9912     2.9912    -0.0000
 72 H      0.9388     1.0000     0.0612     0.9923     0.9923    -0.0000
 73 H      0.8968     1.0000     0.1032     0.9806     0.9806    -0.0000
 74 H      0.9388     1.0000     0.0612     0.9923     0.9923    -0.0000
 75 H      0.8968     1.0000     0.1032     0.9806     0.9806    -0.0000
 76 C      6.0339     6.0000    -0.0339     3.8805     3.8805    -0.0000
 77 C      6.0339     6.0000    -0.0339     3.8804     3.8804    -0.0000
 78 N      7.2554     7.0000    -0.2554     2.9912     2.9912    -0.0000
 79 N      7.2554     7.0000    -0.2554     2.9912     2.9912    -0.0000
 80 H      0.9388     1.0000     0.0612     0.9922     0.9922    -0.0000
 81 H      0.8968     1.0000     0.1032     0.9806     0.9806    -0.0000
 82 H      0.9388     1.0000     0.0612     0.9922     0.9922    -0.0000
 83 H      0.8968     1.0000     0.1032     0.9806     0.9806    -0.0000
 84 C      6.0339     6.0000    -0.0339     3.8804     3.8804    -0.0000
 85 C      6.0339     6.0000    -0.0339     3.8804     3.8804    -0.0000
 86 N      7.2554     7.0000    -0.2554     2.9912     2.9912    -0.0000
 87 N      7.2554     7.0000    -0.2554     2.9912     2.9912    -0.0000
 88 H      0.9388     1.0000     0.0612     0.9922     0.9922    -0.0000
 89 H      0.8968     1.0000     0.1032     0.9806     0.9806    -0.0000
 90 H      0.9388     1.0000     0.0612     0.9922     0.9922    -0.0000
 91 H      0.8968     1.0000     0.1032     0.9806     0.9806    -0.0000
 92 C      6.0339     6.0000    -0.0339     3.8804     3.8804    -0.0000
 93 C      6.0339     6.0000    -0.0339     3.8805     3.8805    -0.0000
 94 N      7.2554     7.0000    -0.2554     2.9912     2.9912    -0.0000
 95 N      7.2554     7.0000    -0.2554     2.9912     2.9912    -0.0000
 96 H      0.9388     1.0000     0.0612     0.9923     0.9923    -0.0000
 97 H      0.8968     1.0000     0.1032     0.9806     0.9806    -0.0000
 98 H      0.9388     1.0000     0.0612     0.9923     0.9923    -0.0000
 99 H      0.8968     1.0000     0.1032     0.9806     0.9806    -0.0000
100 C      6.0339     6.0000    -0.0339     3.8804     3.8804    -0.0000
101 C      6.0339     6.0000    -0.0339     3.8804     3.8804    -0.0000
102 N      7.2554     7.0000    -0.2554     2.9912     2.9912    -0.0000
103 N      7.2554     7.0000    -0.2554     2.9912     2.9912    -0.0000
104 H      0.9388     1.0000     0.0612     0.9922     0.9922    -0.0000
105 H      0.8968     1.0000     0.1032     0.9806     0.9806    -0.0000
106 H      0.9388     1.0000     0.0612     0.9922     0.9922    -0.0000
107 H      0.8968     1.0000     0.1032     0.9806     0.9806    -0.0000

  Mayer bond orders larger than 0.100000
B(  0-C ,  1-C ) :   0.9943 B(  0-C ,  2-C ) :   1.2978 B(  0-C ,  8-C ) :   1.3925 
B(  1-C , 13-H ) :   0.9904 B(  1-C , 62-N ) :   1.9856 B(  2-C ,  3-C ) :   1.3925 
B(  2-C ,  4-H ) :   0.9642 B(  3-C ,  5-C ) :   1.2978 B(  3-C , 11-C ) :   0.9942 
B(  5-C ,  6-C ) :   1.3925 B(  5-C ,  7-H ) :   0.9642 B(  6-C ,  8-C ) :   1.2978 
B(  6-C ,  9-C ) :   0.9943 B(  8-C , 10-H ) :   0.9642 B(  9-C , 12-H ) :   0.9904 
B(  9-C , 70-N ) :   1.9855 B( 11-C , 14-H ) :   0.9904 B( 11-C , 78-N ) :   1.9856 
B( 15-C , 16-C ) :   0.9943 B( 15-C , 17-C ) :   1.2978 B( 15-C , 23-C ) :   1.3925 
B( 16-C , 28-H ) :   0.9904 B( 16-C , 63-N ) :   1.9856 B( 17-C , 18-C ) :   1.3925 
B( 17-C , 19-H ) :   0.9643 B( 18-C , 20-C ) :   1.2978 B( 18-C , 26-C ) :   0.9943 
B( 20-C , 21-C ) :   1.3925 B( 20-C , 22-H ) :   0.9643 B( 21-C , 23-C ) :   1.2978 
B( 21-C , 24-C ) :   0.9943 B( 23-C , 25-H ) :   0.9643 B( 24-C , 27-H ) :   0.9904 
B( 24-C , 94-N ) :   1.9856 B( 26-C , 29-H ) :   0.9904 B( 26-C , 86-N ) :   1.9856 
B( 30-C , 31-C ) :   0.9943 B( 30-C , 32-C ) :   1.2978 B( 30-C , 38-C ) :   1.3925 
B( 31-C , 43-H ) :   0.9904 B( 31-C , 71-N ) :   1.9856 B( 32-C , 33-C ) :   1.3925 
B( 32-C , 34-H ) :   0.9642 B( 33-C , 35-C ) :   1.2978 B( 33-C , 41-C ) :   0.9943 
B( 35-C , 36-C ) :   1.3925 B( 35-C , 37-H ) :   0.9643 B( 36-C , 38-C ) :   1.2978 
B( 36-C , 39-C ) :   0.9943 B( 38-C , 40-H ) :   0.9643 B( 39-C , 42-H ) :   0.9904 
B( 39-C , 87-N ) :   1.9856 B( 41-C , 44-H ) :   0.9904 B( 41-C ,102-N ) :   1.9856 
B( 45-C , 46-C ) :   0.9943 B( 45-C , 47-C ) :   1.2978 B( 45-C , 53-C ) :   1.3925 
B( 46-C , 58-H ) :   0.9904 B( 46-C , 79-N ) :   1.9856 B( 47-C , 48-C ) :   1.3925 
B( 47-C , 49-H ) :   0.9643 B( 48-C , 50-C ) :   1.2978 B( 48-C , 56-C ) :   0.9942 
B( 50-C , 51-C ) :   1.3924 B( 50-C , 52-H ) :   0.9643 B( 51-C , 53-C ) :   1.2978 
B( 51-C , 54-C ) :   0.9943 B( 53-C , 55-H ) :   0.9643 B( 54-C , 57-H ) :   0.9904 
B( 54-C ,103-N ) :   1.9856 B( 56-C , 59-H ) :   0.9904 B( 56-C , 95-N ) :   1.9856 
B( 60-C , 61-C ) :   0.9403 B( 60-C , 62-N ) :   0.9709 B( 60-C , 66-H ) :   0.9743 
B( 60-C , 67-H ) :   0.9810 B( 61-C , 63-N ) :   0.9709 B( 61-C , 64-H ) :   0.9743 
B( 61-C , 65-H ) :   0.9810 B( 68-C , 69-C ) :   0.9403 B( 68-C , 70-N ) :   0.9710 
B( 68-C , 74-H ) :   0.9743 B( 68-C , 75-H ) :   0.9810 B( 69-C , 71-N ) :   0.9710 
B( 69-C , 72-H ) :   0.9743 B( 69-C , 73-H ) :   0.9810 B( 76-C , 77-C ) :   0.9402 
B( 76-C , 78-N ) :   0.9709 B( 76-C , 82-H ) :   0.9743 B( 76-C , 83-H ) :   0.9810 
B( 77-C , 79-N ) :   0.9709 B( 77-C , 80-H ) :   0.9743 B( 77-C , 81-H ) :   0.9810 
B( 84-C , 85-C ) :   0.9403 B( 84-C , 86-N ) :   0.9709 B( 84-C , 90-H ) :   0.9743 
B( 84-C , 91-H ) :   0.9810 B( 85-C , 87-N ) :   0.9709 B( 85-C , 88-H ) :   0.9743 
B( 85-C , 89-H ) :   0.9810 B( 92-C , 93-C ) :   0.9403 B( 92-C , 94-N ) :   0.9709 
B( 92-C , 98-H ) :   0.9743 B( 92-C , 99-H ) :   0.9809 B( 93-C , 95-N ) :   0.9709 
B( 93-C , 96-H ) :   0.9743 B( 93-C , 97-H ) :   0.9810 B(100-C ,101-C ) :   0.9403 
B(100-C ,102-N ) :   0.9709 B(100-C ,106-H ) :   0.9743 B(100-C ,107-H ) :   0.9810 
B(101-C ,103-N ) :   0.9709 B(101-C ,104-H ) :   0.9743 B(101-C ,105-H ) :   0.9810 


-------
TIMINGS
-------

Total SCF time: 0 days 0 hours 47 min 12 sec 

Total time                  ....    2832.554 sec
Sum of individual times     ....    2807.398 sec  ( 99.1%)

Fock matrix formation       ....    2651.386 sec  ( 93.6%)
Diagonalization             ....      19.760 sec  (  0.7%)
Density matrix formation    ....       1.255 sec  (  0.0%)
Population analysis         ....      12.381 sec  (  0.4%)
Initial guess               ....       3.815 sec  (  0.1%)
Orbital Transformation      ....       0.000 sec  (  0.0%)
Orbital Orthonormalization  ....       0.000 sec  (  0.0%)
DIIS solution               ....      90.722 sec  (  3.2%)
SOSCF solution              ....      10.374 sec  (  0.4%)


           ************************************************************
           *        Program running with 32 parallel MPI-processes    *
           *              working on a common directory               *
           ************************************************************

------------------------------------------------------------------------------
                                ORCA  MP2 
------------------------------------------------------------------------------

Freezing NCore=120 chemical core electrons

-------------
RI-MP2 ENERGY
-------------
Dimension of the basis                    ... 2472
Memory devoted to MP2                     ... 3000 MB   
Data format for buffers                   ... DOUBLE
Compression type for matrix containers    ... UNCOMPRESSED
Overall scaling of the MP2 energy         ...   1.000e+00
Calculating two index integrals           ... done (    0.381 sec)
Cholesky decomposition of V**-1           ... done (    6.109 sec)

-----------------
RI-TRANSFORMATION (AUX index driven)
-----------------

Dimension of the orbital-basis         ... 2472
Dimension of the aux-basis             ... 6300
Transformation of internal/external MOs...   60- 209 to  210-2471
Number Format for Storage              ... Double (8 Byte)
Integral mode                          ... Direct

First Phase: integral generation and transformation of MO indices
  Aux angular momentum 0               ... done (    8.800 sec)
  Aux angular momentum 1               ... done (   18.855 sec)
  Aux angular momentum 2               ... done (   25.322 sec)
  Aux angular momentum 3               ... done (   21.542 sec)
  Aux angular momentum 4               ... done (    6.895 sec)
Closing buffer VIA (15.93 GB; CompressionRatio= 1.00)
  Phase 1 completed in    82.938 sec
Second Phase: sorting and transformation of aux index

IA-Transformation
Memory available                       ... 2211 MB 
Max. # MO pairs treated in a batch     ... 5    
# of internal orbitals                 ... 150
# batches for internal orbitals        ... 1
Closing buffer IAV ( 0.53 GB; CompressionRatio= 1.00)
(ia|v) transformation done in    92.525 sec

  Phase 2 completed in   135.756 sec
RI-Integral transformation completed in   218.715 sec
Opening buffers                              ... done

Starting loop over batches of integrals:

Operator 0  - window                       ... ( 60-209)x(210-2471)
Operator 0  - Memory available             ...  3000 MB
Operator 0  - Memory needed per MO         ... 108.7 MB
Operator 0  - Number of orbitals per batch ... 5
Operator 0  - Number of batches            ... 1

OPERATOR  0   PASS   0:  MOs    60 ...   64 +   65 ...   69 +   70 ...   74 +   75 ...   79
                            +   80 ...   84 +   85 ...   89 +   90 ...   94 +   95 ...   99
                            +  100 ...  104 +  105 ...  109 +  110 ...  114 +  115 ...  119
                            +  120 ...  124 +  125 ...  129 +  130 ...  134 +  135 ...  139
                            +  140 ...  144 +  145 ...  149 +  150 ...  154 +  155 ...  159
                            +  160 ...  164 +  165 ...  169 +  170 ...  174 +  175 ...  179
                            +  180 ...  184 +  185 ...  189 +  190 ...  194 +  195 ...  199
                            +  200 ...  204 +  205 ...  209
  Reading integrals       ... ok
  Internal MO  62
Time spent in pair loops =    94.723 sec
Deleting buffer (Ka|jb)[aa] ...done

-----------------------------------------------
 RI-MP2 CORRELATION ENERGY:    -10.021076019 Eh
-----------------------------------------------


-------
TIMINGS
-------

Total time                : 4916.122 sec
Integral trafo            :  218.720 sec (  4.4%)
I/O of integrals          :    0.318 sec (  0.0%)
K(i,j) Operators          :   93.602 sec (  1.9%)
T(i,j) pair energies      :    0.524 sec (  0.0%)
V-calculation             :    0.381 sec (  0.0%)
V**(-1/2)                 :    6.109 sec (  0.1%)
Gamma(ia|P)               :    0.000 sec (  0.0%)
Gamma-Trafo               :    0.000 sec (  0.0%)
D(virtual)                :    0.000 sec (  0.0%)
D(internal)               :    0.000 sec (  0.0%)
W(virtual)                :    0.000 sec (  0.0%)
W(internal)               :    0.000 sec (  0.0%)
L(virtual)                :    0.000 sec (  0.0%)
L(internal)               :    0.000 sec (  0.0%)
G(D)                      :    0.000 sec (  0.0%)
G(Z)                      :    0.000 sec (  0.0%)
Z-Vector Solution         :    0.000 sec (  0.0%)
3-Index Derivative        :    0.000 sec (  0.0%)
2-Index Derivative        :    0.000 sec (  0.0%)
Separable Gradient        :    0.000 sec (  0.0%)


---------------------------------------
MP2 TOTAL ENERGY:    -2509.723568636 Eh
---------------------------------------

-------------------------   --------------------
FINAL SINGLE POINT ENERGY     -2509.723568636289
-------------------------   --------------------


                            ***************************************
                            *     ORCA property calculations      *
                            ***************************************


  WARNING: The energy has been calculated at the MP2 level but the densities
           used in the property calculations are still SCF densities
           MP2 response densities have not been calculated 
           use %mp2 Density relaxed end
           or  %mp2 Density unrelaxed end

                                    ---------------------
                                    Active property flags
                                    ---------------------
   (+) Dipole Moment


------------------------------------------------------------------------------
                       ORCA ELECTRIC PROPERTIES CALCULATION
------------------------------------------------------------------------------

Dipole Moment Calculation                       ... on
Quadrupole Moment Calculation                   ... off
Polarizability Calculation                      ... off
GBWName                                         ... _o_4_alde1_6_ami4_1_opt_MP2.gbw
Electron density file                           ... _o_4_alde1_6_ami4_1_opt_MP2.scfp
The origin for moment calculation is the CENTER OF MASS  = ( 0.000126,  0.000037 -0.000038)

-------------
DIPOLE MOMENT
-------------
                                X             Y             Z
Electronic contribution:     -0.00070       0.00043      -0.00168
Nuclear contribution   :      0.00006      -0.00097       0.00178
                        -----------------------------------------
Total Dipole Moment    :     -0.00064      -0.00054       0.00010
                        -----------------------------------------
Magnitude (a.u.)       :      0.00084
Magnitude (Debye)      :      0.00213



--------------------
Rotational spectrum 
--------------------
 
Rotational constants in cm-1:     0.001081     0.001080     0.001080 
Rotational constants in MHz :    32.410213    32.392277    32.386215 

 Dipole components along the rotational axes: 
x,y,z [a.u.] :     0.000366     0.000201    -0.000728 
x,y,z [Debye]:     0.000930     0.000510    -0.001850 

 

Timings for individual modules:

Sum of individual times         ...     8268.930 sec (= 137.815 min)
GTO integral calculation        ...      143.356 sec (=   2.389 min)   1.7 %
SCF iterations                  ...     2927.708 sec (=  48.795 min)  35.4 %
MP2 module                      ...     5197.866 sec (=  86.631 min)  62.9 %
                             ****ORCA TERMINATED NORMALLY****
TOTAL RUN TIME: 0 days 2 hours 20 minutes 28 seconds 501 msec
