Job execution start: Wed Nov 10 22:53:57 GMT 2021
Shared library path: /work/e05/e05/atarzia/orca_4_2_1_linux_x86-64_openmpi314:/work/e05/e05/atarzia/openmpi-3.1.4/lib:/opt/cray/pe/papi/6.0.0.4/lib64:/opt/cray/libfabric/1.11.0.0.233/lib64
Slurm Job ID is: 630140
Slurm Job name is: o_ami2_opt_B97-3c
nid002019

                                 *****************
                                 * O   R   C   A *
                                 *****************

           --- An Ab Initio, DFT and Semiempirical electronic structure package ---

                  #######################################################
                  #                        -***-                        #
                  #          Department of theory and spectroscopy      #
                  #               Directorship: Frank Neese             #
                  #        Max Planck Institute fuer Kohlenforschung    #
                  #                Kaiser Wilhelm Platz 1               #
                  #                 D-45470 Muelheim/Ruhr               #
                  #                      Germany                        #
                  #                                                     #
                  #                  All rights reserved                #
                  #                        -***-                        #
                  #######################################################


                         Program Version 4.2.1 -  RELEASE  -


 With contributions from (in alphabetic order):
   Daniel Aravena         : Magnetic Suceptibility
   Michael Atanasov       : Ab Initio Ligand Field Theory (pilot matlab implementation)
   Alexander A. Auer      : GIAO ZORA, VPT2
   Ute Becker             : Parallelization
   Giovanni Bistoni       : ED, misc. LED, open-shell LED, HFLD
   Martin Brehm           : Molecular dynamics
   Dmytro Bykov           : SCF Hessian
   Vijay G. Chilkuri      : MRCI spin determinant printing, contributions to CSF-ICE
   Dipayan Datta          : RHF DLPNO-CCSD density
   Achintya Kumar Dutta   : EOM-CC, STEOM-CC
   Dmitry Ganyushin       : Spin-Orbit,Spin-Spin,Magnetic field MRCI
   Miquel Garcia          : C-PCM Hessian, Gaussian charge scheme
   Yang Guo               : DLPNO-NEVPT2, CIM, IAO-localization
   Andreas Hansen         : Spin unrestricted coupled pair/coupled cluster methods
   Benjamin Helmich-Paris : CASSCF linear response (MC-RPA)
   Lee Huntington         : MR-EOM, pCC
   Robert Izsak           : Overlap fitted RIJCOSX, COSX-SCS-MP3, EOM
   Christian Kollmar      : KDIIS, OOCD, Brueckner-CCSD(T), CCSD density
   Simone Kossmann        : Meta GGA functionals, TD-DFT gradient, OOMP2, MP2 Hessian
   Martin Krupicka        : AUTO-CI
   Lucas Lang             : DCDCAS
   Dagmar Lenk            : GEPOL surface, SMD
   Dimitrios Liakos       : Extrapolation schemes; Compound Job, initial MDCI parallelization
   Dimitrios Manganas     : Further ROCIS development; embedding schemes
   Dimitrios Pantazis     : SARC Basis sets
   Taras Petrenko         : DFT Hessian,TD-DFT gradient, ASA, ECA, R-Raman, ABS, FL, XAS/XES, NRVS
   Peter Pinski           : DLPNO-MP2, DLPNO-MP2 Gradient
   Christoph Reimann      : Effective Core Potentials
   Marius Retegan         : Local ZFS, SOC
   Christoph Riplinger    : Optimizer, TS searches, QM/MM, DLPNO-CCSD(T), (RO)-DLPNO pert. Triples
   Tobias Risthaus        : Range-separated hybrids, TD-DFT gradient, RPA, STAB
   Michael Roemelt        : Original ROCIS implementation
   Masaaki Saitow         : Open-shell DLPNO-CCSD energy and density
   Barbara Sandhoefer     : DKH picture change effects
   Avijit Sen             : IP-ROCIS
   Kantharuban Sivalingam : CASSCF convergence, NEVPT2, FIC-MRCI
   Bernardo de Souza      : ESD, SOC TD-DFT
   Georgi Stoychev        : AutoAux, RI-MP2 NMR
   Willem Van den Heuvel  : Paramagnetic NMR
   Boris Wezisla          : Elementary symmetry handling
   Frank Wennmohs         : Technical directorship


 We gratefully acknowledge several colleagues who have allowed us to
 interface, adapt or use parts of their codes:
   Stefan Grimme, W. Hujo, H. Kruse,             : VdW corrections, initial TS optimization,
                  C. Bannwarth                     DFT functionals, gCP, sTDA/sTD-DF
   Ed Valeev, F. Pavosevic, A. Kumar             : LibInt (2-el integral package), F12 methods
   Garnet Chan, S. Sharma, J. Yang, R. Olivares  : DMRG
   Ulf Ekstrom                                   : XCFun DFT Library
   Mihaly Kallay                                 : mrcc  (arbitrary order and MRCC methods)
   Andreas Klamt, Michael Diedenhofen            : otool_cosmo (COSMO solvation model)
   Jiri Pittner, Ondrej Demel                    : Mk-CCSD
   Frank Weinhold                                : gennbo (NPA and NBO analysis)
   Christopher J. Cramer and Donald G. Truhlar   : smd solvation model
   Lars Goerigk                                  : TD-DFT with DH, B97 family of functionals
   V. Asgeirsson, H. Jonsson                     : NEB implementation
   FAccTs GmbH                                   : IRC, NEB, NEB-TS, Multilevel, MM, QM/MM, CI optimization
   S Lehtola, MJT Oliveira, MAL Marques          : LibXC Library


 Your calculation uses the libint2 library for the computation of 2-el integrals
 For citations please refer to: http://libint.valeyev.net

 Your ORCA version has been built with support for libXC version: 4.2.3
 For citations please refer to: https://tddft.org/programs/libxc/

 This ORCA versions uses:
   CBLAS   interface :  Fast vector & matrix operations
   LAPACKE interface :  Fast linear algebra routines
   SCALAPACK package :  Parallel linear algebra routines




***************************************
The coordinates will be read from file: o_ami2_opt.xyz
***************************************


Your calculation utilizes the atom-pairwise dispersion correction
with the Becke-Johnson damping scheme (D3BJ)
Cite in your paper:
S.Grimme, S.Ehrlich, L.Goerigk, J Comput Chem, (2011), 32, 1456–1465 
S.Grimme, J.Antony, S.Ehrlich and H.Krieg, J.Chem.Phys., 132, (2010), 154104 
   

Your calculation employs the composite approach B97-3c by Grimme and coworkers.
For the correct reference, please check the publication list of the Grimme group:
http://www.thch.uni-bonn.de/tc/index.php?section=publikationen&subsection=grimme#2017
   

XCFun DFT library Copyright 2009-2010 Ulf Ekstrom and contributors.
See http://admol.org/xcfun for more information. This is free soft-
ware; see the source code for copying conditions. There is ABSOLUTELY
NO WARRANTY; not even for MERCHANTABILITY or FITNESS FOR A PARTICULAR
PURPOSE. For details see the documentation. Scientific users of this 
library should cite U. Ekstrom, L. Visscher, R. Bast, A. J. Thorvald-
sen and K. Ruud; J.Chem.Theor.Comp. 2010, DOI: 10.1021/ct100117s
XCFun Version 0.99 
----- Orbital basis set information -----
Your calculation utilizes the basis: def2-mTZVP
----- AuxJ basis set information -----
Your calculation utilizes the basis: def2-mTZVP/J
================================================================================
                                        WARNINGS
                       Please study these warnings very carefully!
================================================================================


WARNING: Geometry Optimization
  ===> : Switching off AutoStart
         For restart on a previous wavefunction, please use MOREAD

INFO   : the flag for use of LIBINT has been found!

================================================================================
                                       INPUT FILE
================================================================================
NAME = o_ami2_opt_B97-3c.in
|  1> ! DFT COPT B97-3c TightSCF printbasis  Grid6 NOFINALGRID SlowConv 
|  2> 
|  3> %base "_o_ami2_opt_B97-3c"
|  4> %maxcore 3000
|  5> %scf
|  6>    MaxIter 2000
|  7> end
|  8> %pal
|  9>    nprocs 32
| 10> end
| 11> 
| 12> * xyzfile 0 1 o_ami2_opt.xyz
| 13> # * xyzfile 0 1 _o_ami2_opt_B97-3c.xyz
| 14> 
| 15>                          ****END OF INPUT****
================================================================================

                       *****************************
                       * Geometry Optimization Run *
                       *****************************

Geometry optimization settings:
Update method            Update   .... BFGS
Choice of coordinates    CoordSys .... Cartesian
Initial Hessian          InHess   .... Unit Matrix

Convergence Tolerances:
Energy Change            TolE     ....  5.0000e-06 Eh
Max. Gradient            TolMAXG  ....  3.0000e-04 Eh/bohr
RMS Gradient             TolRMSG  ....  1.0000e-04 Eh/bohr
Max. Displacement        TolMAXD  ....  4.0000e-03 bohr
RMS Displacement         TolRMSD  ....  2.0000e-03 bohr
Strict Convergence                ....  False
------------------------------------------------------------------------------
                        ORCA OPTIMIZATION COORDINATE SETUP
------------------------------------------------------------------------------

The optimization will be done in cartesian displacement coordinates
Initial hessian                         ....done
Number of atoms                         .... 18
Number of degrees of freedom            .... 54

         *************************************************************
         *                GEOMETRY OPTIMIZATION CYCLE   1            *
         *************************************************************
---------------------------------
CARTESIAN COORDINATES (ANGSTROEM)
---------------------------------
  C     -0.643800    0.790100    0.353000
  C      0.849200    0.430800    0.558800
  N     -0.700900    2.222000    0.068400
  C     -1.432900    0.405900    1.614100
  C     -1.217600    0.049800   -0.857600
  N      1.734400    0.829200   -0.516000
  H     -0.364100    2.750800    0.866700
  H     -1.657300    2.507700   -0.112100
  H      1.514900    0.307600   -1.358100
  H      1.571800    1.810800   -0.720200
  H      0.946000   -0.647600    0.705600
  H      1.202800    0.928200    1.468300
  H     -1.066000   -1.021800   -0.755400
  H     -0.737000    0.393400   -1.770200
  H     -2.285000    0.242200   -0.946400
  H     -1.368800   -0.664300    1.793600
  H     -2.482600    0.674300    1.501600
  H     -1.035400    0.924500    2.485300

----------------------------
CARTESIAN COORDINATES (A.U.)
----------------------------
  NO LB      ZA    FRAG     MASS         X           Y           Z
   0 C     6.0000    0    12.011   -1.216606    1.493073    0.667073
   1 C     6.0000    0    12.011    1.604755    0.814094    1.055979
   2 N     7.0000    0    14.007   -1.324509    4.198971    0.129257
   3 C     6.0000    0    12.011   -2.707789    0.767040    3.050207
   4 C     6.0000    0    12.011   -2.300931    0.094108   -1.620629
   5 N     7.0000    0    14.007    3.277541    1.566961   -0.975099
   6 H     1.0000    0     1.008   -0.688049    5.198259    1.637826
   7 H     1.0000    0     1.008   -3.131843    4.738866   -0.211838
   8 H     1.0000    0     1.008    2.862746    0.581280   -2.566437
   9 H     1.0000    0     1.008    2.970272    3.421916   -1.360981
  10 H     1.0000    0     1.008    1.787681   -1.223787    1.333391
  11 H     1.0000    0     1.008    2.272963    1.754044    2.774685
  12 H     1.0000    0     1.008   -2.014448   -1.930922   -1.427499
  13 H     1.0000    0     1.008   -1.392728    0.743418   -3.345193
  14 H     1.0000    0     1.008   -4.318024    0.457692   -1.788437
  15 H     1.0000    0     1.008   -2.586657   -1.255345    3.389413
  16 H     1.0000    0     1.008   -4.691434    1.274242    2.837613
  17 H     1.0000    0     1.008   -1.956622    1.747052    4.696536

--------------------------------
INTERNAL COORDINATES (ANGSTROEM)
--------------------------------
 C      0   0   0     0.000000000000     0.00000000     0.00000000
 C      1   0   0     1.549354423623     0.00000000     0.00000000
 N      1   2   0     1.461025386501   106.90676566     0.00000000
 C      1   2   3     1.536444486469   109.14095264   237.90594778
 C      1   2   3     1.530634799683   110.74058001   117.14863781
 N      2   1   3     1.448273675795   115.25258717   306.46823188
 H      3   1   2     1.015059884933   110.14543422   296.69625956
 H      3   1   2     1.014349890324   110.33789055   177.77157922
 H      6   2   1     1.014583274059   110.01742104   293.99180797
 H      6   2   1     1.015714014868   108.49362651    50.94725037
 H      2   1   3     1.092642228728   109.39607733   183.93946155
 H      2   1   3     1.095276207173   108.42621955    66.45360991
 H      5   1   2     1.087085074868   110.49534695    55.23805997
 H      5   1   2     1.087141241974   110.20280295   294.46697885
 H      5   1   2     1.088230655698   110.28740666   175.30166818
 H      4   1   2     1.087040523624   110.57504453   298.52024476
 H      4   1   2     1.089295598082   110.39782117   178.50575508
 H      4   1   2     1.089009481134   110.49228801    58.50190232

---------------------------
INTERNAL COORDINATES (A.U.)
---------------------------
 C      0   0   0     0.000000000000     0.00000000     0.00000000
 C      1   0   0     2.927855545027     0.00000000     0.00000000
 N      1   2   0     2.760937855193   106.90676566     0.00000000
 C      1   2   3     2.903459299399   109.14095264   237.90594778
 C      1   2   3     2.892480582450   110.74058001   117.14863781
 N      2   1   3     2.736840614220   115.25258717   306.46823188
 H      3   1   2     1.918185192053   110.14543422   296.69625956
 H      3   1   2     1.916843496685   110.33789055   177.77157922
 H      6   2   1     1.917284528028   110.01742104   293.99180797
 H      6   2   1     1.919421318487   108.49362651    50.94725037
 H      2   1   3     2.064794574654   109.39607733   183.93946155
 H      2   1   3     2.069772072558   108.42621955    66.45360991
 H      5   1   2     2.054293075773   110.49534695    55.23805997
 H      5   1   2     2.054399216221   110.20280295   294.46697885
 H      5   1   2     2.056457909806   110.28740666   175.30166818
 H      4   1   2     2.054208886123   110.57504453   298.52024476
 H      4   1   2     2.058470359260   110.39782117   178.50575508
 H      4   1   2     2.057929676587   110.49228801    58.50190232

---------------------
BASIS SET INFORMATION
---------------------
There are 3 groups of distinct atoms

 Group   1 Type C   : 11s6p1d contracted to 5s3p1d pattern {62111/411/1}
 Group   2 Type N   : 11s6p1d contracted to 5s3p1d pattern {62111/411/1}
 Group   3 Type H   : 5s contracted to 3s pattern {311}

Atom   0C    basis set group =>   1
Atom   1C    basis set group =>   1
Atom   2N    basis set group =>   2
Atom   3C    basis set group =>   1
Atom   4C    basis set group =>   1
Atom   5N    basis set group =>   2
Atom   6H    basis set group =>   3
Atom   7H    basis set group =>   3
Atom   8H    basis set group =>   3
Atom   9H    basis set group =>   3
Atom  10H    basis set group =>   3
Atom  11H    basis set group =>   3
Atom  12H    basis set group =>   3
Atom  13H    basis set group =>   3
Atom  14H    basis set group =>   3
Atom  15H    basis set group =>   3
Atom  16H    basis set group =>   3
Atom  17H    basis set group =>   3

-------------------------
BASIS SET IN INPUT FORMAT
-------------------------

 # Basis set for element : H 
 NewGTO H 
 S 3 
   1      34.0613410000      0.0254393072
   2       5.1235746000      0.1900859489
   3       1.1646626000      0.8524411301
 S 1 
   1       0.3272304100      1.0000000000
 S 1 
   1       0.1030724100      1.0000000000
  end;

 # Basis set for element : C 
 NewGTO C 
 S 6 
   1   13575.3496820000      0.0006064549
   2    2035.2333680000      0.0046979088
   3     463.2256235900      0.0243324776
   4     131.2001959800      0.0973999683
   5      42.8530158910      0.3019558425
   6      15.5841857660      0.6623360915
 S 2 
   1       6.2067138508      0.6559530854
   2       2.5764896527      0.3758563329
 S 1 
   1       0.5769633942      1.0000000000
 S 1 
   1       0.2297283136      1.0000000000
 S 1 
   1       0.0951644400      1.0000000000
 P 4 
   1      34.6972322440      0.0113272200
   2       7.9582622826      0.0761696592
   3       2.3780826883      0.3019225220
   4       0.8143320818      0.7278502735
 P 1 
   1       0.2888754725      1.0000000000
 P 1 
   1       0.1005682367      1.0000000000
 D 1 
   1       0.8000000000      1.0000000000
  end;

 # Basis set for element : N 
 NewGTO N 
 S 6 
   1   19730.8006470000      0.0005862639
   2    2957.8958745000      0.0045428821
   3     673.2213359500      0.0235584136
   4     190.6824949400      0.0947091933
   5      62.2954418980      0.2971978492
   6      22.6541611820      0.6691624689
 S 2 
   1       8.9791477428      0.6459668363
   2       3.6863002370      0.3870057440
 S 1 
   1       0.8466007680      1.0000000000
 S 1 
   1       0.3364713377      1.0000000000
 S 1 
   1       0.1364765367      1.0000000000
 P 4 
   1      49.2003805100      0.0114488252
   2      11.3467905370      0.0784223379
   3       3.4273972411      0.3081809474
   4       1.1785525134      0.7202719637
 P 1 
   1       0.4164220497      1.0000000000
 P 1 
   1       0.1426082601      1.0000000000
 D 1 
   1       0.8000000000      1.0000000000
  end;

---------------------------------
AUXILIARY/J BASIS SET INFORMATION
---------------------------------
There are 3 groups of distinct atoms

 Group   1 Type C   : 8s3p3d contracted to 6s3p3d pattern {311111/111/111}
 Group   2 Type N   : 8s3p3d contracted to 6s3p3d pattern {311111/111/111}
 Group   3 Type H   : 5s2p contracted to 3s1p pattern {311/2}

Atom   0C    basis set group =>   1
Atom   1C    basis set group =>   1
Atom   2N    basis set group =>   2
Atom   3C    basis set group =>   1
Atom   4C    basis set group =>   1
Atom   5N    basis set group =>   2
Atom   6H    basis set group =>   3
Atom   7H    basis set group =>   3
Atom   8H    basis set group =>   3
Atom   9H    basis set group =>   3
Atom  10H    basis set group =>   3
Atom  11H    basis set group =>   3
Atom  12H    basis set group =>   3
Atom  13H    basis set group =>   3
Atom  14H    basis set group =>   3
Atom  15H    basis set group =>   3
Atom  16H    basis set group =>   3
Atom  17H    basis set group =>   3

-------------------------------------
AUXILIARY/J BASIS SET IN INPUT FORMAT
-------------------------------------

 # Auxiliary/J basis set for element : H 
 NewAuxJGTO H 
 S 3 
   1      15.6752927000      0.1007184237
   2       3.6063578000      0.3404257499
   3       1.2080016000      0.6491996172
 S 1 
   1       0.4726794000      1.0000000000
 S 1 
   1       0.2018100000      1.0000000000
 P 2 
   1       2.0281365000      0.5596620919
   2       0.5358730000      0.5596620919
  end;

 # Auxiliary/J basis set for element : C 
 NewAuxJGTO C 
 S 3 
   1     459.7023860000      0.1098751775
   2     132.9577920000      0.2844848472
   3      41.5658170000      0.6964707648
 S 1 
   1      13.9155610000      1.0000000000
 S 1 
   1       4.9305290000     -1.0000000000
 S 1 
   1       1.8229480000      1.0000000000
 S 1 
   1       0.6920510000      1.0000000000
 S 1 
   1       0.2650930000      1.0000000000
 P 1 
   1       0.3278473579      1.0000000000
 P 1 
   1       0.7868336591      1.0000000000
 P 1 
   1       1.9710183160      1.0000000000
 D 1 
   1       4.0133010000      1.0000000000
 D 1 
   1       1.2475050000      1.0000000000
 D 1 
   1       0.4081480000      1.0000000000
  end;

 # Auxiliary/J basis set for element : N 
 NewAuxJGTO N 
 S 3 
   1     680.5425300000      0.1043830093
   2     196.7562140000      0.2751518961
   3      61.2707930000      0.7090825511
 S 1 
   1      20.3644630000      1.0000000000
 S 1 
   1       7.1424770000     -1.0000000000
 S 1 
   1       2.6080260000      1.0000000000
 S 1 
   1       0.9763730000      1.0000000000
 S 1 
   1       0.3686330000      1.0000000000
 P 1 
   1       0.4707391941      1.0000000000
 P 1 
   1       1.1297740658     -1.0000000000
 P 1 
   1       2.8300840347      1.0000000000
 D 1 
   1       5.8329865000      1.0000000000
 D 1 
   1       1.7326865000      1.0000000000
 D 1 
   1       0.5452425000      1.0000000000
  end;



           ************************************************************
           *        Program running with 32 parallel MPI-processes    *
           *              working on a common directory               *
           ************************************************************
------------------------------------------------------------------------------
                           ORCA GTO INTEGRAL CALCULATION
                           -- RI-GTO INTEGRALS CHOSEN --
------------------------------------------------------------------------------

                         BASIS SET STATISTICS AND STARTUP INFO

Gaussian basis set:
 # of primitive gaussian shells          ...  168
 # of primitive gaussian functions       ...  264
 # of contracted shells                  ...   90
 # of contracted basis functions         ...  150
 Highest angular momentum                ...    2
 Maximum contraction depth               ...    6
Auxiliary gaussian basis set:
 # of primitive gaussian shells          ...  168
 # of primitive gaussian functions       ...  324
 # of contracted shells                  ...  120
 # of contracted aux-basis functions     ...  252
 Highest angular momentum                ...    2
 Maximum contraction depth               ...    3
Ratio of auxiliary to basis functions    ...  1.68
Integral package used                  ... LIBINT
 One Electron integrals                  ... done
 Ordering auxiliary basis shells         ... done
 Integral threshhold             Thresh  ...  2.500e-11
 Primitive cut-off               TCut    ...  2.500e-12
 Pre-screening matrix                    ... done
 Shell pair data                         ... 
 Ordering of the shell pairs             ... done (   0.001 sec) 3930 of 4095 pairs
 Determination of significant pairs      ... done (   0.000 sec)
 Creation of shell pair data             ... done (   0.000 sec)
 Storage of shell pair data              ... done (   0.003 sec)
 Shell pair data done in (   0.004 sec)
 Computing two index integrals           ... done
 Cholesky decomposition of the V-matrix  ... done


Timings:
 Total evaluation time                   ...   0.332 sec (  0.006 min)
 One electron matrix time                ...   0.037 sec (  0.001 min) = 11.2%
 Schwartz matrix evaluation time         ...   0.068 sec (  0.001 min) = 20.5%
 Two index repulsion integral time       ...   0.007 sec (  0.000 min) =  2.2%
 Cholesky decomposition of V             ...   0.180 sec (  0.003 min) = 54.3%
 Three index repulsion integral time     ...   0.001 sec (  0.000 min) =  0.2%



           ************************************************************
           *        Program running with 32 parallel MPI-processes    *
           *              working on a common directory               *
           ************************************************************
-------------------------------------------------------------------------------
                                 ORCA SCF
-------------------------------------------------------------------------------

------------
SCF SETTINGS
------------
Hamiltonian:
 Density Functional     Method          .... DFT(GTOs)
 Exchange Functional    Exchange        .... B973C
 Correlation Functional Correlation     .... B973C
 Gradients option       PostSCFGGA      .... off
   Density functional embedding theory  .... OFF
 RI-approximation to the Coulomb term is turned on
   Number of auxiliary basis functions  .... 252


General Settings:
 Integral files         IntName         .... _o_ami2_opt_B97-3c
 Hartree-Fock type      HFTyp           .... RHF
 Total Charge           Charge          ....    0
 Multiplicity           Mult            ....    1
 Number of Electrons    NEL             ....   50
 Basis Dimension        Dim             ....  150
 Nuclear Repulsion      ENuc            ....    270.6881110186 Eh

Convergence Acceleration:
 DIIS                   CNVDIIS         .... on
   Start iteration      DIISMaxIt       ....     0
   Startup error        DIISStart       ....  0.200000
   # of expansion vecs  DIISMaxEq       ....     5
   Bias factor          DIISBfac        ....   1.050
   Max. coefficient     DIISMaxC        ....  10.000
 Newton-Raphson         CNVNR           .... off
 SOSCF                  CNVSOSCF        .... on
   Start iteration      SOSCFMaxIt      ....   150
   Startup grad/error   SOSCFStart      ....  0.001000
 Level Shifting         CNVShift        .... on
   Level shift para.    LevelShift      ....    0.2500
   Turn off err/grad.   ShiftErr        ....    0.0000
 Zerner damping         CNVZerner       .... off
 Static damping         CNVDamp         .... on
   Fraction old density DampFac         ....    0.8500
   Max. Damping (<1)    DampMax         ....    0.9800
   Min. Damping (>=0)   DampMin         ....    0.0000
   Turn off err/grad.   DampErr         ....    0.0300
 Fernandez-Rico         CNVRico         .... off

SCF Procedure:
 Maximum # iterations   MaxIter         ....  2000
 SCF integral mode      SCFMode         .... Direct
   Integral package                     .... LIBINT
 Reset frequency        DirectResetFreq ....    20
 Integral Threshold     Thresh          ....  2.500e-11 Eh
 Primitive CutOff       TCut            ....  2.500e-12 Eh

Convergence Tolerance:
 Convergence Check Mode ConvCheckMode   .... Total+1el-Energy
 Convergence forced     ConvForced      .... 0
 Energy Change          TolE            ....  1.000e-08 Eh
 1-El. energy change                    ....  1.000e-05 Eh
 Orbital Gradient       TolG            ....  1.000e-05
 Orbital Rotation angle TolX            ....  1.000e-05
 DIIS Error             TolErr          ....  5.000e-07


Diagonalization of the overlap matrix:
Smallest eigenvalue                        ... 2.218e-04
Time for diagonalization                   ...    0.140 sec
Threshold for overlap eigenvalues          ... 1.000e-08
Number of eigenvalues below threshold      ... 0
Time for construction of square roots      ...    0.015 sec
Total time needed                          ...    0.155 sec

--------------------------------
INITIAL GUESS: MINIMAL BASIS EHT
--------------------------------
The minimal basis has 42 functions
EHT matrix was diagonalized
Basis set overlap was calculated now projecting the orbitals
Using GuessMode=FMatrix for the initial guess
C*T matrix was formed
Effective Fockian was calculated
Effective Fockian was diagonalized
Initial density was built
                      ------------------
                      INITIAL GUESS DONE
                      ------------------
-------------------
DFT GRID GENERATION
-------------------

General Integration Accuracy     IntAcc      ...  5.340
Radial Grid Type                 RadialGrid  ... Gauss-Chebyshev
Angular Grid (max. acc.)         AngularGrid ... Lebedev-590
Angular grid pruning method      GridPruning ... 3 (G Style)
Weight generation scheme         WeightScheme... Becke
Basis function cutoff            BFCut       ...    1.0000e-11
Integration weight cutoff        WCut        ...    1.0000e-14
Grids for H and He will be reduced by one unit

# of grid points (after initial pruning)     ... 231072 (   0.0 sec)
# of grid points (after weights+screening)   ... 206303 (   0.1 sec)
nearest neighbour list constructed           ...    0.0 sec
Grid point re-assignment to atoms done       ...    0.0 sec
Grid point division into batches done        ...    2.0 sec
Reduced shell lists constructed in    2.1 sec

Total number of grid points                  ...   206303
Total number of batches                      ...     3234
Average number of points per batch           ...       63
Average number of grid points per atom       ...    11461
Average number of shells per batch           ...    78.43 (87.14%)
Average number of basis functions per batch  ...   137.03 (91.35%)
Average number of large shells per batch     ...    69.49 (88.60%)
Average number of large basis fcns per batch ...   124.90 (91.15%)
Maximum spatial batch extension              ...   1.24,  1.31,  1.24 au
Average spatial batch extension              ...   0.03,  0.03,  0.03 au

Time for grid setup =    2.347 sec

--------------
SCF ITERATIONS
--------------
ITER       Energy         Delta-E        Max-DP      RMS-DP      [F,P]     Damp
               ***  Starting incremental Fock matrix formation  ***
  0   -268.2736634191   0.000000000000 0.08222755  0.00282306  0.4430350 0.8500
  1   -268.3923895630  -0.118726143879 0.05967224  0.00214033  0.3779600 0.8500
                               ***Turning on DIIS***
  2   -268.4829497071  -0.090560144108 0.04863846  0.00157406  0.3217285 0.8500
  3   -268.5547696232  -0.071819916151 0.03759370  0.00114106  0.2737316 0.8500
  4   -268.6145660892  -0.059796466003 0.03020748  0.00094648  0.2325572 0.8500
  5   -268.6643020045  -0.049735915282 0.02587411  0.00081230  0.1974744 0.8500
  6   -268.7069428340  -0.042640829537 0.02247937  0.00069897  0.1677690 0.8500
  7   -268.7433948068  -0.036451972757 0.01961441  0.00060196  0.1425954 0.8500
  8   -268.7744632263  -0.031068419471 0.01655791  0.00051196  0.1212650 0.8500
  9   -268.8007356948  -0.026272468527 0.01380443  0.00043400  0.1031018 0.8500
 10   -268.8229671629  -0.022231468115 0.01167279  0.00036863  0.0876226 0.8500
 11   -268.8418494651  -0.018882302232 0.01000439  0.00031350  0.0744598 0.8500
 12   -268.8579110176  -0.016061552492 0.00857856  0.00026678  0.0632845 0.8500
 13   -268.8715612503  -0.013650232674 0.00728171  0.00022670  0.0537962 0.8500
 14   -268.8831506826  -0.011589432330 0.00614501  0.00019257  0.0457300 0.8500
 15   -268.8929910536  -0.009840370941 0.00520497  0.00016372  0.0388683 0.8500
 16   -268.9013512318  -0.008360178233 0.00443449  0.00013926  0.0330339 0.8500
 17   -268.9084563550  -0.007105123158 0.02521134  0.00078968  0.0280763 0.0000
                      *** Initiating the SOSCF procedure ***
                           *** Shutting down DIIS ***
                      *** Re-Reading the Fockian *** 
                      *** Removing any level shift *** 
ITER      Energy       Delta-E        Grad      Rot      Max-DP    RMS-DP
 18   -268.94867350  -0.0402171405  0.000123  0.000123  0.000395  0.000018
               *** Restarting incremental Fock matrix formation ***
 19   -268.94867347   0.0000000304  0.000120  0.000183  0.000539  0.000024
 20   -268.94867151   0.0000019556  0.000206  0.000119  0.000390  0.000017
 21   -268.94867428  -0.0000027742  0.000004  0.000007  0.000036  0.000001
 22   -268.94867428   0.0000000000  0.000004  0.000004  0.000013  0.000001
                  ***Gradient check signals convergence***
              ***Rediagonalizing the Fockian in SOSCF/NRSCF***

               *****************************************************
               *                     SUCCESS                       *
               *           SCF CONVERGED AFTER  23 CYCLES          *
               *****************************************************


----------------
TOTAL SCF ENERGY
----------------

Total Energy       :         -268.94867428 Eh           -7318.46549 eV

Components:
Nuclear Repulsion  :          270.68811102 Eh            7365.79797 eV
Electronic Energy  :         -539.63678530 Eh          -14684.26346 eV
One Electron Energy:         -899.03571088 Eh          -24464.00542 eV
Two Electron Energy:          359.39892558 Eh            9779.74196 eV

Virial components:
Potential Energy   :         -536.85638706 Eh          -14608.60498 eV
Kinetic Energy     :          267.90771277 Eh            7290.13949 eV
Virial Ratio       :            2.00388552


DFT components:
N(Alpha)           :       25.000002308316 electrons
N(Beta)            :       25.000002308316 electrons
N(Total)           :       50.000004616632 electrons
E(XC)              :      -39.847641734315 Eh       
DFET-embed. en.    :        0.000000000000 Eh       

---------------
SCF CONVERGENCE
---------------

  Last Energy change         ...    1.2784e-09  Tolerance :   1.0000e-08
  Last MAX-Density change    ...    1.6866e-05  Tolerance :   1.0000e-07
  Last RMS-Density change    ...    4.6994e-07  Tolerance :   5.0000e-09
  Last Orbital Gradient      ...    6.5151e-07  Tolerance :   1.0000e-05
  Last Orbital Rotation      ...    1.0572e-06  Tolerance :   1.0000e-05

             **** THE GBW FILE WAS UPDATED (_o_ami2_opt_B97-3c.gbw) ****
             **** DENSITY FILE WAS UPDATED (_o_ami2_opt_B97-3c.scfp) ****
             **** ENERGY FILE WAS UPDATED (_o_ami2_opt_B97-3c.en.tmp) ****
             **** THE GBW FILE WAS UPDATED (_o_ami2_opt_B97-3c.gbw) ****
             **** DENSITY FILE WAS UPDATED (_o_ami2_opt_B97-3c.scfp) ****
----------------
ORBITAL ENERGIES
----------------

  NO   OCC          E(Eh)            E(eV) 
   0   2.0000     -13.967951      -380.0873 
   1   2.0000     -13.952458      -379.6657 
   2   2.0000      -9.921138      -269.9679 
   3   2.0000      -9.903899      -269.4988 
   4   2.0000      -9.878778      -268.8152 
   5   2.0000      -9.878536      -268.8086 
   6   2.0000      -0.832850       -22.6630 
   7   2.0000      -0.788468       -21.4553 
   8   2.0000      -0.691146       -18.8071 
   9   2.0000      -0.628676       -17.1072 
  10   2.0000      -0.596036       -16.2190 
  11   2.0000      -0.503801       -13.7091 
  12   2.0000      -0.454995       -12.3810 
  13   2.0000      -0.439196       -11.9511 
  14   2.0000      -0.408666       -11.1204 
  15   2.0000      -0.393189       -10.6992 
  16   2.0000      -0.383313       -10.4305 
  17   2.0000      -0.351248        -9.5580 
  18   2.0000      -0.340646        -9.2694 
  19   2.0000      -0.329099        -8.9552 
  20   2.0000      -0.318137        -8.6569 
  21   2.0000      -0.310505        -8.4493 
  22   2.0000      -0.293711        -7.9923 
  23   2.0000      -0.200985        -5.4691 
  24   2.0000      -0.185020        -5.0346 
  25   0.0000       0.008665         0.2358 
  26   0.0000       0.047513         1.2929 
  27   0.0000       0.057393         1.5617 
  28   0.0000       0.063058         1.7159 
  29   0.0000       0.071151         1.9361 
  30   0.0000       0.087654         2.3852 
  31   0.0000       0.091468         2.4890 
  32   0.0000       0.113474         3.0878 
  33   0.0000       0.123588         3.3630 
  34   0.0000       0.128816         3.5053 
  35   0.0000       0.136312         3.7092 
  36   0.0000       0.137733         3.7479 
  37   0.0000       0.153695         4.1823 
  38   0.0000       0.157641         4.2896 
  39   0.0000       0.166920         4.5421 
  40   0.0000       0.173294         4.7156 
  41   0.0000       0.196388         5.3440 
  42   0.0000       0.227594         6.1931 
  43   0.0000       0.239947         6.5293 
  44   0.0000       0.253874         6.9083 
  45   0.0000       0.265527         7.2254 
  46   0.0000       0.291344         7.9279 
  47   0.0000       0.297355         8.0914 
  48   0.0000       0.304227         8.2784 
  49   0.0000       0.319387         8.6910 
  50   0.0000       0.332480         9.0472 
  51   0.0000       0.346371         9.4252 
  52   0.0000       0.378613        10.3026 
  53   0.0000       0.382683        10.4133 
  54   0.0000       0.392889        10.6910 
  55   0.0000       0.403699        10.9852 
  56   0.0000       0.407209        11.0807 
  57   0.0000       0.425866        11.5884 
  58   0.0000       0.429930        11.6990 
  59   0.0000       0.435065        11.8387 
  60   0.0000       0.437337        11.9005 
  61   0.0000       0.450298        12.2532 
  62   0.0000       0.459359        12.4998 
  63   0.0000       0.464388        12.6366 
  64   0.0000       0.469728        12.7820 
  65   0.0000       0.475238        12.9319 
  66   0.0000       0.492803        13.4098 
  67   0.0000       0.497997        13.5512 
  68   0.0000       0.506608        13.7855 
  69   0.0000       0.522335        14.2135 
  70   0.0000       0.547060        14.8863 
  71   0.0000       0.567152        15.4330 
  72   0.0000       0.592141        16.1130 
  73   0.0000       0.608515        16.5585 
  74   0.0000       0.692800        18.8521 
  75   0.0000       0.706381        19.2216 
  76   0.0000       0.737398        20.0656 
  77   0.0000       0.803674        21.8691 
  78   0.0000       1.174963        31.9724 
  79   0.0000       1.202277        32.7156 
  80   0.0000       1.307083        35.5675 
  81   0.0000       1.319724        35.9115 
  82   0.0000       1.369006        37.2525 
  83   0.0000       1.376421        37.4543 
  84   0.0000       1.393170        37.9101 
  85   0.0000       1.399470        38.0815 
  86   0.0000       1.434070        39.0230 
  87   0.0000       1.450348        39.4660 
  88   0.0000       1.470322        40.0095 
  89   0.0000       1.507707        41.0268 
  90   0.0000       1.514675        41.2164 
  91   0.0000       1.544844        42.0373 
  92   0.0000       1.574782        42.8520 
  93   0.0000       1.590695        43.2850 
  94   0.0000       1.616412        43.9848 
  95   0.0000       1.625440        44.2305 
  96   0.0000       1.644355        44.7452 
  97   0.0000       1.652049        44.9545 
  98   0.0000       1.720063        46.8053 
  99   0.0000       1.739591        47.3367 
 100   0.0000       1.743976        47.4560 
 101   0.0000       1.751454        47.6595 
 102   0.0000       1.770934        48.1896 
 103   0.0000       1.777758        48.3752 
 104   0.0000       1.785261        48.5794 
 105   0.0000       1.789281        48.6888 
 106   0.0000       1.794173        48.8219 
 107   0.0000       1.809673        49.2437 
 108   0.0000       1.821413        49.5632 
 109   0.0000       1.854362        50.4598 
 110   0.0000       1.928942        52.4892 
 111   0.0000       1.940045        52.7913 
 112   0.0000       1.966080        53.4997 
 113   0.0000       1.995813        54.3088 
 114   0.0000       2.003027        54.5051 
 115   0.0000       2.017333        54.8944 
 116   0.0000       2.069578        56.3161 
 117   0.0000       2.095102        57.0106 
 118   0.0000       2.107480        57.3474 
 119   0.0000       2.172743        59.1233 
 120   0.0000       2.215050        60.2746 
 121   0.0000       2.253440        61.3192 
 122   0.0000       2.298705        62.5509 
 123   0.0000       2.317862        63.0722 
 124   0.0000       2.342501        63.7427 
 125   0.0000       2.393853        65.1401 
 126   0.0000       2.461731        66.9871 
 127   0.0000       2.500736        68.0485 
 128   0.0000       2.559616        69.6507 
 129   0.0000       2.617611        71.2288 
 130   0.0000       2.716389        73.9167 
 131   0.0000       2.732870        74.3652 
 132   0.0000       2.739604        74.5484 
 133   0.0000       2.754052        74.9416 
 134   0.0000       2.779311        75.6289 
 135   0.0000       2.781605        75.6913 
 136   0.0000       2.836091        77.1740 
 137   0.0000       2.872906        78.1758 
 138   0.0000       3.035260        82.5936 
 139   0.0000       3.114836        84.7590 
 140   0.0000       3.197350        87.0043 
 141   0.0000       3.232606        87.9637 
 142   0.0000       3.400983        92.5455 
 143   0.0000       3.532508        96.1244 
 144   0.0000      21.545861       586.2927 
 145   0.0000      21.758972       592.0917 
 146   0.0000      21.781836       592.7139 
 147   0.0000      21.927058       596.6656 
 148   0.0000      31.553798       858.6225 
 149   0.0000      31.621799       860.4729 

                    ********************************
                    * MULLIKEN POPULATION ANALYSIS *
                    ********************************

-----------------------
MULLIKEN ATOMIC CHARGES
-----------------------
   0 C :   -0.062325
   1 C :   -0.276821
   2 N :   -0.648824
   3 C :   -0.413056
   4 C :   -0.530312
   5 N :   -0.601283
   6 H :    0.306407
   7 H :    0.306173
   8 H :    0.295139
   9 H :    0.310350
  10 H :    0.168358
  11 H :    0.165461
  12 H :    0.169894
  13 H :    0.178172
  14 H :    0.161314
  15 H :    0.153860
  16 H :    0.159954
  17 H :    0.157539
Sum of atomic charges:   -0.0000000

--------------------------------
MULLIKEN REDUCED ORBITAL CHARGES
--------------------------------
  0 C s       :     3.166232  s :     3.166232
      pz      :     0.955970  p :     2.829744
      px      :     1.012857
      py      :     0.860917
      dz2     :     0.013060  d :     0.066350
      dxz     :     0.011567
      dyz     :     0.014478
      dx2y2   :     0.017012
      dxy     :     0.010233
  1 C s       :     3.257081  s :     3.257081
      pz      :     0.949045  p :     2.962813
      px      :     0.893622
      py      :     1.120146
      dz2     :     0.013649  d :     0.056927
      dxz     :     0.012831
      dyz     :     0.007859
      dx2y2   :     0.017106
      dxy     :     0.005483
  2 N s       :     3.543144  s :     3.543144
      pz      :     1.554586  p :     4.068198
      px      :     1.373121
      py      :     1.140491
      dz2     :     0.007770  d :     0.037482
      dxz     :     0.002163
      dyz     :     0.010658
      dx2y2   :     0.011267
      dxy     :     0.005624
  3 C s       :     3.201661  s :     3.201661
      pz      :     1.008191  p :     3.173996
      px      :     1.067393
      py      :     1.098412
      dz2     :     0.009486  d :     0.037399
      dxz     :     0.006467
      dyz     :     0.006716
      dx2y2   :     0.011991
      dxy     :     0.002739
  4 C s       :     3.266990  s :     3.266990
      pz      :     1.026544  p :     3.225992
      px      :     1.128145
      py      :     1.071304
      dz2     :     0.010226  d :     0.037330
      dxz     :     0.006757
      dyz     :     0.005495
      dx2y2   :     0.012333
      dxy     :     0.002518
  5 N s       :     3.514116  s :     3.514116
      pz      :     1.135821  p :     4.049834
      px      :     1.726811
      py      :     1.187202
      dz2     :     0.007177  d :     0.037333
      dxz     :     0.009189
      dyz     :     0.007652
      dx2y2   :     0.008623
      dxy     :     0.004692
  6 H s       :     0.693593  s :     0.693593
  7 H s       :     0.693827  s :     0.693827
  8 H s       :     0.704861  s :     0.704861
  9 H s       :     0.689650  s :     0.689650
 10 H s       :     0.831642  s :     0.831642
 11 H s       :     0.834539  s :     0.834539
 12 H s       :     0.830106  s :     0.830106
 13 H s       :     0.821828  s :     0.821828
 14 H s       :     0.838686  s :     0.838686
 15 H s       :     0.846140  s :     0.846140
 16 H s       :     0.840046  s :     0.840046
 17 H s       :     0.842461  s :     0.842461


                     *******************************
                     * LOEWDIN POPULATION ANALYSIS *
                     *******************************

----------------------
LOEWDIN ATOMIC CHARGES
----------------------
   0 C :   -0.138920
   1 C :   -0.219846
   2 N :   -0.516292
   3 C :   -0.427464
   4 C :   -0.425949
   5 N :   -0.534006
   6 H :    0.257985
   7 H :    0.259824
   8 H :    0.253049
   9 H :    0.258855
  10 H :    0.154124
  11 H :    0.148354
  12 H :    0.159224
  13 H :    0.157168
  14 H :    0.154655
  15 H :    0.157019
  16 H :    0.151075
  17 H :    0.151143

-------------------------------
LOEWDIN REDUCED ORBITAL CHARGES
-------------------------------
  0 C s       :     2.867986  s :     2.867986
      pz      :     1.076344  p :     3.134084
      px      :     1.089212
      py      :     0.968529
      dz2     :     0.026412  d :     0.136849
      dxz     :     0.023926
      dyz     :     0.029862
      dx2y2   :     0.036583
      dxy     :     0.020068
  1 C s       :     2.931805  s :     2.931805
      pz      :     1.037215  p :     3.181924
      px      :     1.027296
      py      :     1.117413
      dz2     :     0.025241  d :     0.106117
      dxz     :     0.025331
      dyz     :     0.013736
      dx2y2   :     0.032235
      dxy     :     0.009574
  2 N s       :     3.281192  s :     3.281192
      pz      :     1.557329  p :     4.175896
      px      :     1.390657
      py      :     1.227910
      dz2     :     0.010337  d :     0.059203
      dxz     :     0.003053
      dyz     :     0.016695
      dx2y2   :     0.018449
      dxy     :     0.010669
  3 C s       :     2.996946  s :     2.996946
      pz      :     1.100643  p :     3.368910
      px      :     1.123782
      py      :     1.144485
      dz2     :     0.015822  d :     0.061608
      dxz     :     0.011759
      dyz     :     0.010983
      dx2y2   :     0.018781
      dxy     :     0.004262
  4 C s       :     2.988843  s :     2.988843
      pz      :     1.108207  p :     3.376285
      px      :     1.138887
      py      :     1.129192
      dz2     :     0.016863  d :     0.060821
      dxz     :     0.011549
      dyz     :     0.009442
      dx2y2   :     0.019078
      dxy     :     0.003890
  5 N s       :     3.280655  s :     3.280655
      pz      :     1.245508  p :     4.193907
      px      :     1.691205
      py      :     1.257193
      dz2     :     0.012737  d :     0.059444
      dxz     :     0.014537
      dyz     :     0.013669
      dx2y2   :     0.012382
      dxy     :     0.006119
  6 H s       :     0.742015  s :     0.742015
  7 H s       :     0.740176  s :     0.740176
  8 H s       :     0.746951  s :     0.746951
  9 H s       :     0.741145  s :     0.741145
 10 H s       :     0.845876  s :     0.845876
 11 H s       :     0.851646  s :     0.851646
 12 H s       :     0.840776  s :     0.840776
 13 H s       :     0.842832  s :     0.842832
 14 H s       :     0.845345  s :     0.845345
 15 H s       :     0.842981  s :     0.842981
 16 H s       :     0.848925  s :     0.848925
 17 H s       :     0.848857  s :     0.848857


                      *****************************
                      * MAYER POPULATION ANALYSIS *
                      *****************************

  NA   - Mulliken gross atomic population
  ZA   - Total nuclear charge
  QA   - Mulliken gross atomic charge
  VA   - Mayer's total valence
  BVA  - Mayer's bonded valence
  FA   - Mayer's free valence

  ATOM       NA         ZA         QA         VA         BVA        FA
  0 C      6.0623     6.0000    -0.0623     3.8120     3.8120    -0.0000
  1 C      6.2768     6.0000    -0.2768     3.6945     3.6945    -0.0000
  2 N      7.6488     7.0000    -0.6488     2.5924     2.5924    -0.0000
  3 C      6.4131     6.0000    -0.4131     3.5828     3.5828    -0.0000
  4 C      6.5303     6.0000    -0.5303     3.6826     3.6826    -0.0000
  5 N      7.6013     7.0000    -0.6013     2.8145     2.8145    -0.0000
  6 H      0.6936     1.0000     0.3064     0.8761     0.8761    -0.0000
  7 H      0.6938     1.0000     0.3062     0.8795     0.8795    -0.0000
  8 H      0.7049     1.0000     0.2951     0.8845     0.8845     0.0000
  9 H      0.6897     1.0000     0.3103     0.8907     0.8907    -0.0000
 10 H      0.8316     1.0000     0.1684     0.9486     0.9486    -0.0000
 11 H      0.8345     1.0000     0.1655     0.9413     0.9413    -0.0000
 12 H      0.8301     1.0000     0.1699     0.9513     0.9513    -0.0000
 13 H      0.8218     1.0000     0.1782     0.9671     0.9671     0.0000
 14 H      0.8387     1.0000     0.1613     0.9600     0.9600    -0.0000
 15 H      0.8461     1.0000     0.1539     0.9611     0.9611    -0.0000
 16 H      0.8400     1.0000     0.1600     0.9625     0.9625    -0.0000
 17 H      0.8425     1.0000     0.1575     0.9645     0.9645    -0.0000

  Mayer bond orders larger than 0.100000
B(  0-C ,  1-C ) :   0.9155 B(  0-C ,  2-N ) :   0.9703 B(  0-C ,  3-C ) :   0.9894 
B(  0-C ,  4-C ) :   0.9722 B(  1-C ,  5-N ) :   1.0754 B(  1-C , 10-H ) :   0.9588 
B(  1-C , 11-H ) :   0.9396 B(  2-N ,  6-H ) :   0.8622 B(  2-N ,  7-H ) :   0.8644 
B(  3-C , 15-H ) :   0.9449 B(  3-C , 16-H ) :   0.9543 B(  3-C , 17-H ) :   0.9482 
B(  4-C , 12-H ) :   0.9627 B(  4-C , 13-H ) :   0.9628 B(  4-C , 14-H ) :   0.9466 
B(  5-N ,  8-H ) :   0.8855 B(  5-N ,  9-H ) :   0.8640 

-------
TIMINGS
-------

Total SCF time: 0 days 0 hours 0 min 11 sec 

Total time                  ....      11.305 sec
Sum of individual times     ....      10.559 sec  ( 93.4%)

Fock matrix formation       ....       7.369 sec  ( 65.2%)
  Split-RI-J                ....       2.234 sec  ( 30.3% of F)
  XC integration            ....       3.622 sec  ( 49.2% of F)
    Basis function eval.    ....       0.367 sec  ( 10.1% of XC)
    Density eval.           ....       0.501 sec  ( 13.8% of XC)
    XC-Functional eval.     ....       0.356 sec  (  9.8% of XC)
    XC-Potential eval.      ....       0.280 sec  (  7.7% of XC)
Diagonalization             ....       0.303 sec  (  2.7%)
Density matrix formation    ....       0.021 sec  (  0.2%)
Population analysis         ....       0.042 sec  (  0.4%)
Initial guess               ....       0.156 sec  (  1.4%)
Orbital Transformation      ....       0.000 sec  (  0.0%)
Orbital Orthonormalization  ....       0.000 sec  (  0.0%)
DIIS solution               ....       0.212 sec  (  1.9%)
SOSCF solution              ....       0.109 sec  (  1.0%)
Grid generation             ....       2.347 sec  ( 20.8%)


-------------------------------------------------------------------------------
                          DFT DISPERSION CORRECTION                            
                                                                               
                              DFTD3 V3.1  Rev 1                                
                          USING Becke-Johnson damping                          
-------------------------------------------------------------------------------
The B97-3c composite method is recognized
Using three-body term ABC
Active option DFTDOPT                   ...         4   

molecular C6(AA) [au] = 2114.094502 


            DFT-D V3
 parameters
 s6 scaling factor         :     1.0000 
 a1 scaling factor         :     0.3700 
 s8 scaling factor         :     1.5000 
 a2 scaling factor         :     4.1000 
 Damping factor alpha9(ATM):    16.0000 
 ad hoc parameters k1-k3   :    16.0000     1.3333    -4.0000 

 Edisp/kcal,au: -21.090376536917  -0.033609650784 
 E6   /kcal   : -11.249229489 
 E8   /kcal   :  -9.889435331 
 E6(ABC)      :   0.048288283 
 % E8         :  46.890748079 
 % E6(ABC)    :  -0.228958847 

-------------------------   ----------------
Dispersion correction           -0.033609651
-------------------------   ----------------

------------------   -----------------
SRB correction            -0.043383299
------------------   -----------------

-------------------------   --------------------
FINAL SINGLE POINT ENERGY      -269.025667231486
-------------------------   --------------------



           ************************************************************
           *        Program running with 32 parallel MPI-processes    *
           *              working on a common directory               *
           ************************************************************
------------------------------------------------------------------------------
                         ORCA SCF GRADIENT CALCULATION
------------------------------------------------------------------------------

Gradient of the Kohn-Sham DFT energy:
Kohn-Sham wavefunction type      ... RKS
Hartree-Fock exchange scaling    ...    0.000
Number of operators              ...    1
Number of atoms                  ...   18
Basis set dimensions             ...  150
Integral neglect threshold       ... 2.5e-11
Integral primitive cutoff        ... 2.5e-12

Nuclear repulsion gradient       ... done
One Electron Gradient            ... done
Pre-screening matrix             ... done
RI-J gradient                    ... done
Exchange-correlation gradient    ... done
Dispersion correction            ... done
SRB correction                   ... done

------------------
CARTESIAN GRADIENT
------------------

   1   C   :    0.001901516    0.005209155   -0.003651003
   2   C   :    0.003474811   -0.003644740    0.005455178
   3   N   :   -0.000829733   -0.004244038    0.001982439
   4   C   :   -0.004149019   -0.001219274    0.006109244
   5   C   :   -0.004080199   -0.004118052   -0.004908911
   6   N   :   -0.006032726    0.001615824    0.001608328
   7   H   :    0.003659775    0.000373133   -0.000148415
   8   H   :   -0.001971848   -0.000562697   -0.001901239
   9   H   :   -0.000589003   -0.003050546   -0.001538880
  10   H   :    0.001642955    0.003736882    0.002031416
  11   H   :    0.000607587   -0.001876066   -0.002360373
  12   H   :    0.001658287    0.002628653   -0.001012385
  13   H   :    0.001279677    0.001248710    0.000588798
  14   H   :    0.000350972    0.000786863    0.000797288
  15   H   :    0.001233044    0.000704403    0.001021466
  16   H   :    0.001031011    0.002262837   -0.002092764
  17   H   :    0.000589499    0.000263365   -0.000872311
  18   H   :    0.000223395   -0.000114415   -0.001107876

Difference to translation invariance:
           :   -0.0000000000   -0.0000000000   -0.0000000000

Norm of the cartesian gradient     ...    0.0193000295
RMS gradient                       ...    0.0026264014
MAX gradient                       ...    0.0061092444

-------
TIMINGS
-------

Total SCF gradient time            ...        1.053 sec

One electron gradient       ....       0.039 sec  (  3.7%)
Prescreening matrices       ....       0.020 sec  (  1.9%)
RI-J Coulomb gradient       ....       0.150 sec  ( 14.3%)
XC gradient                 ....       0.477 sec  ( 45.3%)
------------------------------------------------------------------------------
                         ORCA GEOMETRY RELAXATION STEP
------------------------------------------------------------------------------

Reading the OPT-File                    ....done
Number of atoms                         ....  18
Number of degrees of freedom            ....  54
Current Energy                          ....  -269.025667231 Eh
Current gradient norm                   ....     0.019300030 Eh/bohr
# of structures/gradients available     ....   1
# of structures/gradients to be used    ....   1
First structure used                    ....   0
Maximum allowed component of the step   ....  0.300
Transforming the gradients              ....done
Building the approximate hessian        ....(skipped:first point)done
Eigenvalues of the approximate hessian:
  1.000000  1.000000  1.000000  1.000000  1.000000  1.000000
  1.000000  1.000000  1.000000  1.000000  1.000000  1.000000
  1.000000  1.000000  1.000000  1.000000  1.000000  1.000000
  1.000000  1.000000  1.000000  1.000000  1.000000  1.000000
  1.000000  1.000000  1.000000  1.000000  1.000000  1.000000
  1.000000  1.000000  1.000000  1.000000  1.000000  1.000000
  1.000000  1.000000  1.000000  1.000000  1.000000  1.000000
  1.000000  1.000000  1.000000  1.000000  1.000000  1.000000
 1000.000000 1000.000000 1000.000000 1000.000000 1000.000000 1000.000000

computing the step                      ....done

The length of the step is               ....     0.018919
Storing new coordinates                 ....done
The predicted energy change is          ....    -0.000178958

                                .--------------------.
          ----------------------|Geometry convergence|-------------------------
          Item                value                   Tolerance       Converged
          ---------------------------------------------------------------------
          RMS gradient        0.0026264014            0.0001000000      NO
          MAX gradient        0.0061092444            0.0003000000      NO
          RMS step            0.0025745050            0.0020000000      NO
          MAX step            0.0059228959            0.0040000000      NO
          -------------------------------------------------------------------------

The optimization has not yet converged - more geometry cycles are needed


         *************************************************************
         *                GEOMETRY OPTIMIZATION CYCLE   2            *
         *************************************************************
---------------------------------
CARTESIAN COORDINATES (ANGSTROEM)
---------------------------------
  C     -0.645352    0.786966    0.355266
  C      0.846831    0.432462    0.556329
  N     -0.701151    2.223839    0.067739
  C     -1.431295    0.406082    1.611146
  C     -1.215857    0.051581   -0.854717
  N      1.737056    0.828154   -0.516337
  H     -0.366247    2.750496    0.866891
  H     -1.656445    2.507868   -0.111005
  H      1.515094    0.309163   -1.357155
  H      1.570768    1.808769   -0.721134
  H      0.945547   -0.646683    0.706965
  H      1.201742    0.926734    1.468965
  H     -1.066776   -1.022573   -0.755633
  H     -0.737298    0.392884   -1.770529
  H     -2.285776    0.241689   -0.946875
  H     -1.369496   -0.665631    1.794783
  H     -2.483087    0.674004    1.502126
  H     -1.035716    0.924430    2.485977

----------------------------
CARTESIAN COORDINATES (A.U.)
----------------------------
  NO LB      ZA    FRAG     MASS         X           Y           Z
   0 C     6.0000    0    12.011   -1.219538    1.487150    0.671355
   1 C     6.0000    0    12.011    1.600279    0.817235    1.051309
   2 N     7.0000    0    14.007   -1.324983    4.202447    0.128007
   3 C     6.0000    0    12.011   -2.704756    0.767383    3.044625
   4 C     6.0000    0    12.011   -2.297637    0.097475   -1.615182
   5 N     7.0000    0    14.007    3.282560    1.564984   -0.975736
   6 H     1.0000    0     1.008   -0.692107    5.197685    1.638187
   7 H     1.0000    0     1.008   -3.130227    4.739184   -0.209769
   8 H     1.0000    0     1.008    2.863113    0.584233   -2.564650
   9 H     1.0000    0     1.008    2.968322    3.418078   -1.362746
  10 H     1.0000    0     1.008    1.786824   -1.222054    1.335970
  11 H     1.0000    0     1.008    2.270964    1.751274    2.775942
  12 H     1.0000    0     1.008   -2.015914   -1.932383   -1.427939
  13 H     1.0000    0     1.008   -1.393292    0.742444   -3.345815
  14 H     1.0000    0     1.008   -4.319490    0.456725   -1.789335
  15 H     1.0000    0     1.008   -2.587972   -1.257861    3.391649
  16 H     1.0000    0     1.008   -4.692355    1.273682    2.838607
  17 H     1.0000    0     1.008   -1.957219    1.746920    4.697816

--------------------------------
INTERNAL COORDINATES (ANGSTROEM)
--------------------------------
 C      0   0   0     0.000000000000     0.00000000     0.00000000
 C      1   0   0     1.546838385888     0.00000000     0.00000000
 N      1   2   0     1.466421236876   106.66376996     0.00000000
 C      1   2   3     1.529711058114   109.38128354   237.87555548
 C      1   2   3     1.526540578728   110.67978336   116.76741171
 N      2   1   3     1.449028543213   115.71195984   306.52713246
 H      3   1   2     1.013988804038   109.98820751   296.38148398
 H      3   1   2     1.012525789965   110.20481081   177.71253266
 H      6   2   1     1.012715480320   109.87792816   294.35487206
 H      6   2   1     1.015479841926   108.20322101    50.79398597
 H      2   1   3     1.094070526007   109.32881876   183.81716115
 H      2   1   3     1.096891978925   108.48192394    66.86500981
 H      5   1   2     1.088967930226   110.60325854    55.64239429
 H      5   1   2     1.088217556061   110.58618884   294.78274891
 H      5   1   2     1.090577816078   110.46594022   175.52973012
 H      4   1   2     1.089086901693   110.75033377   298.41379897
 H      4   1   2     1.090840968734   110.62117411   178.38157067
 H      4   1   2     1.091098859917   110.71380827    58.39089174

---------------------------
INTERNAL COORDINATES (A.U.)
---------------------------
 C      0   0   0     0.000000000000     0.00000000     0.00000000
 C      1   0   0     2.923100922766     0.00000000     0.00000000
 N      1   2   0     2.771134534662   106.66376996     0.00000000
 C      1   2   3     2.890734963866   109.38128354   237.87555548
 C      1   2   3     2.884743626114   110.67978336   116.76741171
 N      2   1   3     2.738267106907   115.71195984   306.52713246
 H      3   1   2     1.916161142495   109.98820751   296.38148398
 H      3   1   2     1.913396446565   110.20481081   177.71253266
 H      6   2   1     1.913754909387   109.87792816   294.35487206
 H      6   2   1     1.918978795759   108.20322101    50.79398597
 H      2   1   3     2.067493665348   109.32881876   183.81716115
 H      2   1   3     2.072825438664   108.48192394    66.86500981
 H      5   1   2     2.057851156750   110.60325854    55.64239429
 H      5   1   2     2.056433155080   110.58618884   294.78274891
 H      5   1   2     2.060893400118   110.46594022   175.52973012
 H      4   1   2     2.058075980241   110.75033377   298.41379897
 H      4   1   2     2.061390686569   110.62117411   178.38157067
 H      4   1   2     2.061878030276   110.71380827    58.39089174



           ************************************************************
           *        Program running with 32 parallel MPI-processes    *
           *              working on a common directory               *
           ************************************************************
 One Electron integrals                  ... done
 Pre-screening matrix                    ... done


           ************************************************************
           *        Program running with 32 parallel MPI-processes    *
           *              working on a common directory               *
           ************************************************************

Diagonalization of the overlap matrix:
Smallest eigenvalue                        ... 2.203e-04
Time for diagonalization                   ...    0.005 sec
Threshold for overlap eigenvalues          ... 1.000e-08
Number of eigenvalues below threshold      ... 0
Time for construction of square roots      ...    0.012 sec
Total time needed                          ...    0.018 sec

-------------------
DFT GRID GENERATION
-------------------

General Integration Accuracy     IntAcc      ...  5.340
Radial Grid Type                 RadialGrid  ... Gauss-Chebyshev
Angular Grid (max. acc.)         AngularGrid ... Lebedev-590
Angular grid pruning method      GridPruning ... 3 (G Style)
Weight generation scheme         WeightScheme... Becke
Basis function cutoff            BFCut       ...    1.0000e-11
Integration weight cutoff        WCut        ...    1.0000e-14
Grids for H and He will be reduced by one unit

# of grid points (after initial pruning)     ... 231072 (   0.0 sec)
# of grid points (after weights+screening)   ... 206300 (   0.1 sec)
nearest neighbour list constructed           ...    0.0 sec
Grid point re-assignment to atoms done       ...    0.0 sec
Grid point division into batches done        ...    2.0 sec
Reduced shell lists constructed in    2.1 sec

Total number of grid points                  ...   206300
Total number of batches                      ...     3235
Average number of points per batch           ...       63
Average number of grid points per atom       ...    11461
Average number of shells per batch           ...    78.37 (87.08%)
Average number of basis functions per batch  ...   137.03 (91.35%)
Average number of large shells per batch     ...    69.55 (88.75%)
Average number of large basis fcns per batch ...   124.93 (91.17%)
Maximum spatial batch extension              ...   1.24,  1.23,  1.33 au
Average spatial batch extension              ...   0.03,  0.03,  0.03 au

Time for grid setup =    2.253 sec

--------------
SCF ITERATIONS
--------------
ITER       Energy         Delta-E        Max-DP      RMS-DP      [F,P]     Damp
               ***  Starting incremental Fock matrix formation  ***
                      *** Initiating the SOSCF procedure ***
                      *** Re-Reading the Fockian *** 
                      *** Removing any level shift *** 
ITER      Energy       Delta-E        Grad      Rot      Max-DP    RMS-DP
  0   -268.94888994 -268.9488899436  0.000614  0.000614  0.001907  0.000105
               *** Restarting incremental Fock matrix formation ***
  1   -268.94894020  -0.0000502520  0.000166  0.000288  0.001102  0.000049
  2   -268.94894197  -0.0000017704  0.000159  0.000132  0.000476  0.000018
  3   -268.94894379  -0.0000018205  0.000045  0.000088  0.000213  0.000012
  4   -268.94894395  -0.0000001615  0.000023  0.000030  0.000111  0.000004
  5   -268.94894396  -0.0000000155  0.000018  0.000019  0.000069  0.000003
  6   -268.94894399  -0.0000000272  0.000005  0.000006  0.000051  0.000001
                  ***Gradient check signals convergence***
              ***Rediagonalizing the Fockian in SOSCF/NRSCF***

               *****************************************************
               *                     SUCCESS                       *
               *           SCF CONVERGED AFTER   7 CYCLES          *
               *****************************************************

Total Energy       :         -268.94894399 Eh           -7318.47283 eV
  Last Energy change         ...   -5.3285e-10  Tolerance :   1.0000e-08
  Last MAX-Density change    ...    2.0165e-05  Tolerance :   1.0000e-07
             **** THE GBW FILE WAS UPDATED (_o_ami2_opt_B97-3c.gbw) ****
             **** DENSITY FILE WAS UPDATED (_o_ami2_opt_B97-3c.scfp) ****
             **** ENERGY FILE WAS UPDATED (_o_ami2_opt_B97-3c.en.tmp) ****
             **** THE GBW FILE WAS UPDATED (_o_ami2_opt_B97-3c.gbw) ****
             **** DENSITY FILE WAS UPDATED (_o_ami2_opt_B97-3c.scfp) ****
Total SCF time: 0 days 0 hours 0 min 5 sec 


-------------------------------------------------------------------------------
                          DFT DISPERSION CORRECTION                            
                                                                               
                              DFTD3 V3.1  Rev 1                                
                          USING Becke-Johnson damping                          
-------------------------------------------------------------------------------
-------------------------   ----------------
Dispersion correction           -0.033615751
-------------------------   ----------------

------------------   -----------------
SRB correction            -0.043380743
------------------   -----------------

-------------------------   --------------------
FINAL SINGLE POINT ENERGY      -269.025940485696
-------------------------   --------------------



           ************************************************************
           *        Program running with 32 parallel MPI-processes    *
           *              working on a common directory               *
           ************************************************************
------------------------------------------------------------------------------
                         ORCA SCF GRADIENT CALCULATION
------------------------------------------------------------------------------

Gradient of the Kohn-Sham DFT energy:
Kohn-Sham wavefunction type      ... RKS
Hartree-Fock exchange scaling    ...    0.000
Number of operators              ...    1
Number of atoms                  ...   18
Basis set dimensions             ...  150
Integral neglect threshold       ... 2.5e-11
Integral primitive cutoff        ... 2.5e-12

Nuclear repulsion gradient       ... done
One Electron Gradient            ... done
Pre-screening matrix             ... done
RI-J gradient                    ... done
Exchange-correlation gradient    ... done
Dispersion correction            ... done
SRB correction                   ... done

------------------
CARTESIAN GRADIENT
------------------

   1   C   :    0.000213526    0.000819226   -0.000868968
   2   C   :    0.001329971   -0.001701961    0.002900714
   3   N   :   -0.001730263   -0.001484113    0.001643259
   4   C   :   -0.002305462   -0.000184802    0.002341948
   5   C   :   -0.001740434   -0.001843238   -0.002550542
   6   N   :   -0.004783505    0.000577722    0.000193475
   7   H   :    0.003268176   -0.000105294   -0.000855814
   8   H   :   -0.000475222   -0.000967768   -0.001550903
   9   H   :   -0.000401452   -0.001955321   -0.000165683
  10   H   :    0.001326570    0.003205249    0.002093398
  11   H   :    0.000762662   -0.002454960   -0.001950846
  12   H   :    0.002010528    0.002572406   -0.000069500
  13   H   :    0.001244857    0.000195375    0.000508305
  14   H   :    0.000320400    0.000683573   -0.000081804
  15   H   :   -0.000086385    0.000712689    0.000692872
  16   H   :    0.000941691    0.001137746   -0.001660969
  17   H   :   -0.000315450    0.000423597   -0.000637772
  18   H   :    0.000419790    0.000369873    0.000018831

Difference to translation invariance:
           :    0.0000000000   -0.0000000000    0.0000000000

Norm of the cartesian gradient     ...    0.0116328448
RMS gradient                       ...    0.0015830297
MAX gradient                       ...    0.0047835055

-------
TIMINGS
-------

Total SCF gradient time            ...        0.759 sec

One electron gradient       ....       0.006 sec  (  0.8%)
Prescreening matrices       ....       0.007 sec  (  0.9%)
RI-J Coulomb gradient       ....       0.109 sec  ( 14.3%)
XC gradient                 ....       0.444 sec  ( 58.5%)
------------------------------------------------------------------------------
                         ORCA GEOMETRY RELAXATION STEP
------------------------------------------------------------------------------

Reading the OPT-File                    ....done
Number of atoms                         ....  18
Number of degrees of freedom            ....  54
Current Energy                          ....  -269.025940486 Eh
Current gradient norm                   ....     0.011632845 Eh/bohr
# of structures/gradients available     ....   2
# of structures/gradients to be used    ....   2
First structure used                    ....   0
Maximum allowed component of the step   ....  0.300
Transforming the gradients              ....done
Building the approximate hessian        ....(BFGS)done
Eigenvalues of the approximate hessian:
  0.376754  1.000000  1.000000  1.000000  1.000000  1.000000
  1.000000  1.000000  1.000000  1.000000  1.000000  1.000000
  1.000000  1.000000  1.000000  1.000000  1.000000  1.000000
  1.000000  1.000000  1.000000  1.000000  1.000000  1.000000
  1.000000  1.000000  1.000000  1.000000  1.000000  1.000000
  1.000000  1.000000  1.000000  1.000000  1.000000  1.000000
  1.000000  1.000000  1.000000  1.000000  1.000000  1.000000
  1.000000  1.000000  1.000000  1.000000  1.000000  1.256931
 1000.000000 1000.000000 1000.000000 1000.000000 1000.000000 1000.000000

computing the step                      ....done

The length of the step is               ....     0.029553
Storing new coordinates                 ....done
The predicted energy change is          ....    -0.000165250
Previously predicted energy change      ....    -0.000178958
Actually observed energy change         ....    -0.000273254
Ratio of predicted to observed change   ....     1.526917701

                                .--------------------.
          ----------------------|Geometry convergence|-------------------------
          Item                value                   Tolerance       Converged
          ---------------------------------------------------------------------
          Energy change      -0.0002732542            0.0000050000      NO
          RMS gradient        0.0015830297            0.0001000000      NO
          MAX gradient        0.0047835055            0.0003000000      NO
          RMS step            0.0040216726            0.0020000000      NO
          MAX step            0.0096163940            0.0040000000      NO
          -------------------------------------------------------------------------

The optimization has not yet converged - more geometry cycles are needed


         *************************************************************
         *                GEOMETRY OPTIMIZATION CYCLE   3            *
         *************************************************************
---------------------------------
CARTESIAN COORDINATES (ANGSTROEM)
---------------------------------
  C     -0.647164    0.784493    0.357426
  C      0.843550    0.434624    0.552617
  N     -0.700662    2.225602    0.066279
  C     -1.429149    0.405623    1.607932
  C     -1.214286    0.053775   -0.850528
  N      1.742145    0.827072   -0.516249
  H     -0.371008    2.750365    0.868086
  H     -1.656002    2.508833   -0.108728
  H      1.515316    0.311868   -1.356550
  H      1.568585    1.804477   -0.723650
  H      0.944299   -0.643717    0.709683
  H      1.198834    0.923267    1.469385
  H     -1.068663   -1.023185   -0.756203
  H     -0.738055    0.391855   -1.770436
  H     -2.286229    0.240542   -0.947694
  H     -1.371020   -0.667566    1.797127
  H     -2.483193    0.673179    1.503145
  H     -1.036591    0.923776    2.486313

----------------------------
CARTESIAN COORDINATES (A.U.)
----------------------------
  NO LB      ZA    FRAG     MASS         X           Y           Z
   0 C     6.0000    0    12.011   -1.222962    1.482477    0.675438
   1 C     6.0000    0    12.011    1.594078    0.821320    1.044295
   2 N     7.0000    0    14.007   -1.324060    4.205779    0.125250
   3 C     6.0000    0    12.011   -2.700701    0.766517    3.038551
   4 C     6.0000    0    12.011   -2.294668    0.101620   -1.607264
   5 N     7.0000    0    14.007    3.292177    1.562940   -0.975570
   6 H     1.0000    0     1.008   -0.701104    5.197437    1.640445
   7 H     1.0000    0     1.008   -3.129391    4.741007   -0.205466
   8 H     1.0000    0     1.008    2.863532    0.589345   -2.563509
   9 H     1.0000    0     1.008    2.964197    3.409967   -1.367501
  10 H     1.0000    0     1.008    1.784466   -1.216449    1.341107
  11 H     1.0000    0     1.008    2.265467    1.744722    2.776735
  12 H     1.0000    0     1.008   -2.019480   -1.933540   -1.429016
  13 H     1.0000    0     1.008   -1.394722    0.740498   -3.345640
  14 H     1.0000    0     1.008   -4.320347    0.454558   -1.790882
  15 H     1.0000    0     1.008   -2.590852   -1.261516    3.396078
  16 H     1.0000    0     1.008   -4.692554    1.272123    2.840532
  17 H     1.0000    0     1.008   -1.958873    1.745683    4.698451

--------------------------------
INTERNAL COORDINATES (ANGSTROEM)
--------------------------------
 C      0   0   0     0.000000000000     0.00000000     0.00000000
 C      1   0   0     1.543610722579     0.00000000     0.00000000
 N      1   2   0     1.471198399272   106.38932861     0.00000000
 C      1   2   3     1.522763088479   109.61495094   237.74597384
 C      1   2   3     1.521423343163   110.58040125   116.37336573
 N      2   1   3     1.450505041958   116.34471222   306.67915942
 H      3   1   2     1.013381453434   109.80579794   295.77128146
 H      3   1   2     1.011692488342   110.04777029   177.74961875
 H      6   2   1     1.011431072284   109.60061414   294.87049252
 H      6   2   1     1.014128866249   107.78477037    50.29459039
 H      2   1   3     1.094367243851   109.29256268   183.57577613
 H      2   1   3     1.097935284219   108.49454265    67.48110524
 H      5   1   2     1.090846684870   110.83982902    56.04539753
 H      5   1   2     1.089645003194   110.99922227   295.11557379
 H      5   1   2     1.092421750765   110.74917463   175.78297662
 H      4   1   2     1.091287266307   111.08149513   298.32389737
 H      4   1   2     1.092508157034   110.83960695   178.26263192
 H      4   1   2     1.092766235263   110.95575715    58.38298332

---------------------------
INTERNAL COORDINATES (A.U.)
---------------------------
 C      0   0   0     0.000000000000     0.00000000     0.00000000
 C      1   0   0     2.917001523059     0.00000000     0.00000000
 N      1   2   0     2.780162063287   106.38932861     0.00000000
 C      1   2   3     2.877605204069   109.61495094   237.74597384
 C      1   2   3     2.875073452333   110.58040125   116.37336573
 N      2   1   3     2.741057285172   116.34471222   306.67915942
 H      3   1   2     1.915013416185   109.80579794   295.77128146
 H      3   1   2     1.911821734712   110.04777029   177.74961875
 H      6   2   1     1.911327729954   109.60061414   294.87049252
 H      6   2   1     1.916425821715   107.78477037    50.29459039
 H      2   1   3     2.068054380813   109.29256268   183.57577613
 H      2   1   3     2.074796999943   108.49454265    67.48110524
 H      5   1   2     2.061401488501   110.83982902    56.04539753
 H      5   1   2     2.059130639232   110.99922227   295.11557379
 H      5   1   2     2.064377931684   110.74917463   175.78297662
 H      4   1   2     2.062234066756   111.08149513   298.32389737
 H      4   1   2     2.064541215869   110.83960695   178.26263192
 H      4   1   2     2.065028913043   110.95575715    58.38298332



           ************************************************************
           *        Program running with 32 parallel MPI-processes    *
           *              working on a common directory               *
           ************************************************************
 One Electron integrals                  ... done
 Pre-screening matrix                    ... done


           ************************************************************
           *        Program running with 32 parallel MPI-processes    *
           *              working on a common directory               *
           ************************************************************

Diagonalization of the overlap matrix:
Smallest eigenvalue                        ... 2.185e-04
Time for diagonalization                   ...    0.004 sec
Threshold for overlap eigenvalues          ... 1.000e-08
Number of eigenvalues below threshold      ... 0
Time for construction of square roots      ...    0.012 sec
Total time needed                          ...    0.017 sec

-------------------
DFT GRID GENERATION
-------------------

General Integration Accuracy     IntAcc      ...  5.340
Radial Grid Type                 RadialGrid  ... Gauss-Chebyshev
Angular Grid (max. acc.)         AngularGrid ... Lebedev-590
Angular grid pruning method      GridPruning ... 3 (G Style)
Weight generation scheme         WeightScheme... Becke
Basis function cutoff            BFCut       ...    1.0000e-11
Integration weight cutoff        WCut        ...    1.0000e-14
Grids for H and He will be reduced by one unit

# of grid points (after initial pruning)     ... 231072 (   0.0 sec)
# of grid points (after weights+screening)   ... 206319 (   0.1 sec)
nearest neighbour list constructed           ...    0.0 sec
Grid point re-assignment to atoms done       ...    0.0 sec
Grid point division into batches done        ...    2.0 sec
Reduced shell lists constructed in    2.1 sec

Total number of grid points                  ...   206319
Total number of batches                      ...     3234
Average number of points per batch           ...       63
Average number of grid points per atom       ...    11462
Average number of shells per batch           ...    78.44 (87.15%)
[...]
  14   2.0000      -0.407086       -11.0774 
  15   2.0000      -0.398888       -10.8543 
  16   2.0000      -0.383875       -10.4458 
  17   2.0000      -0.349825        -9.5192 
  18   2.0000      -0.340205        -9.2574 
  19   2.0000      -0.330765        -9.0006 
  20   2.0000      -0.316803        -8.6206 
  21   2.0000      -0.307469        -8.3667 
  22   2.0000      -0.295548        -8.0423 
  23   2.0000      -0.205518        -5.5924 
  24   2.0000      -0.187336        -5.0977 
  25   0.0000       0.008718         0.2372 
  26   0.0000       0.045974         1.2510 
  27   0.0000       0.061409         1.6710 
  28   0.0000       0.062333         1.6962 
  29   0.0000       0.070215         1.9107 
  30   0.0000       0.086799         2.3619 
  31   0.0000       0.089733         2.4418 
  32   0.0000       0.115201         3.1348 
  33   0.0000       0.121937         3.3181 
  34   0.0000       0.127889         3.4800 
  35   0.0000       0.134965         3.6726 
  36   0.0000       0.137758         3.7486 
  37   0.0000       0.152469         4.1489 
  38   0.0000       0.160817         4.3761 
  39   0.0000       0.167528         4.5587 
  40   0.0000       0.172771         4.7014 
  41   0.0000       0.193011         5.2521 
  42   0.0000       0.227875         6.2008 
  43   0.0000       0.240851         6.5539 
  44   0.0000       0.253984         6.9112 
  45   0.0000       0.267613         7.2821 
  46   0.0000       0.289665         7.8822 
  47   0.0000       0.297587         8.0977 
  48   0.0000       0.303995         8.2721 
  49   0.0000       0.315306         8.5799 
  50   0.0000       0.335580         9.1316 
  51   0.0000       0.349251         9.5036 
  52   0.0000       0.382976        10.4213 
  53   0.0000       0.384452        10.4615 
  54   0.0000       0.393570        10.7096 
  55   0.0000       0.402197        10.9443 
  56   0.0000       0.408345        11.1116 
  57   0.0000       0.424775        11.5587 
  58   0.0000       0.427641        11.6367 
  59   0.0000       0.437514        11.9054 
  60   0.0000       0.439040        11.9469 
  61   0.0000       0.449339        12.2271 
  62   0.0000       0.456302        12.4166 
  63   0.0000       0.466423        12.6920 
  64   0.0000       0.470912        12.8142 
  65   0.0000       0.475599        12.9417 
  66   0.0000       0.488235        13.2856 
  67   0.0000       0.495216        13.4755 
  68   0.0000       0.512347        13.9417 
  69   0.0000       0.522058        14.2059 
  70   0.0000       0.552580        15.0365 
  71   0.0000       0.569938        15.5088 
  72   0.0000       0.586193        15.9511 
  73   0.0000       0.599065        16.3014 
  74   0.0000       0.696241        18.9457 
  75   0.0000       0.710207        19.3257 
  76   0.0000       0.739290        20.1171 
  77   0.0000       0.814830        22.1726 
  78   0.0000       1.170283        31.8450 
  79   0.0000       1.197579        32.5878 
  80   0.0000       1.305646        35.5284 
  81   0.0000       1.326880        36.1062 
  82   0.0000       1.363599        37.1054 
  83   0.0000       1.373823        37.3836 
  84   0.0000       1.394848        37.9558 
  85   0.0000       1.399050        38.0701 
  86   0.0000       1.431179        38.9444 
  87   0.0000       1.451657        39.5016 
  88   0.0000       1.471899        40.0524 
  89   0.0000       1.508694        41.0536 
  90   0.0000       1.515837        41.2480 
  91   0.0000       1.547270        42.1034 
  92   0.0000       1.573225        42.8096 
  93   0.0000       1.589264        43.2461 
  94   0.0000       1.619554        44.0703 
  95   0.0000       1.622162        44.1413 
  96   0.0000       1.640294        44.6347 
  97   0.0000       1.657519        45.1034 
  98   0.0000       1.718281        46.7568 
  99   0.0000       1.737788        47.2876 
 100   0.0000       1.746135        47.5148 
 101   0.0000       1.754401        47.7397 
 102   0.0000       1.766598        48.0716 
 103   0.0000       1.773447        48.2580 
 104   0.0000       1.783883        48.5419 
 105   0.0000       1.786663        48.6176 
 106   0.0000       1.792194        48.7681 
 107   0.0000       1.802664        49.0530 
 108   0.0000       1.819111        49.5005 
 109   0.0000       1.843214        50.1564 
 110   0.0000       1.934685        52.6455 
 111   0.0000       1.951121        53.0927 
 112   0.0000       1.973604        53.7045 
 113   0.0000       1.999105        54.3984 
 114   0.0000       2.011772        54.7431 
 115   0.0000       2.015509        54.8448 
 116   0.0000       2.067600        56.2623 
 117   0.0000       2.090915        56.8967 
 118   0.0000       2.105312        57.2884 
 119   0.0000       2.176223        59.2180 
 120   0.0000       2.221317        60.4451 
 121   0.0000       2.245654        61.1073 
 122   0.0000       2.300493        62.5996 
 123   0.0000       2.316079        63.0237 
 124   0.0000       2.341121        63.7051 
 125   0.0000       2.386268        64.9336 
 126   0.0000       2.459677        66.9312 
 127   0.0000       2.485594        67.6365 
 128   0.0000       2.562476        69.7285 
 129   0.0000       2.621421        71.3325 
 130   0.0000       2.711488        73.7833 
 131   0.0000       2.730845        74.3101 
 132   0.0000       2.740487        74.5724 
 133   0.0000       2.753011        74.9132 
 134   0.0000       2.775681        75.5301 
 135   0.0000       2.783715        75.7487 
 136   0.0000       2.850475        77.5654 
 137   0.0000       2.881325        78.4048 
 138   0.0000       3.029747        82.4436 
 139   0.0000       3.115487        84.7767 
 140   0.0000       3.203790        87.1796 
 141   0.0000       3.235783        88.0501 
 142   0.0000       3.394751        92.3759 
 143   0.0000       3.525187        95.9252 
 144   0.0000      21.537366       586.0615 
 145   0.0000      21.759877       592.1164 
 146   0.0000      21.786415       592.8385 
 147   0.0000      21.934918       596.8795 
 148   0.0000      31.546623       858.4273 
 149   0.0000      31.624715       860.5522 

                    ********************************
                    * MULLIKEN POPULATION ANALYSIS *
                    ********************************

-----------------------
MULLIKEN ATOMIC CHARGES
-----------------------
   0 C :   -0.085585
   1 C :   -0.230783
   2 N :   -0.642806
   3 C :   -0.429150
   4 C :   -0.529355
   5 N :   -0.618023
   6 H :    0.306237
   7 H :    0.307089
   8 H :    0.299279
   9 H :    0.313939
  10 H :    0.164899
  11 H :    0.158203
  12 H :    0.169650
  13 H :    0.176695
  14 H :    0.160396
  15 H :    0.155385
  16 H :    0.163401
  17 H :    0.160529
Sum of atomic charges:   -0.0000000

--------------------------------
MULLIKEN REDUCED ORBITAL CHARGES
--------------------------------
  0 C s       :     3.166282  s :     3.166282
      pz      :     0.959588  p :     2.852857
      px      :     1.024138
      py      :     0.869131
      dz2     :     0.013314  d :     0.066445
      dxz     :     0.011595
      dyz     :     0.013760
      dx2y2   :     0.017050
      dxy     :     0.010727
  1 C s       :     3.225985  s :     3.225985
      pz      :     0.952518  p :     2.947956
      px      :     0.889560
      py      :     1.105878
      dz2     :     0.013951  d :     0.056841
      dxz     :     0.012702
      dyz     :     0.008263
      dx2y2   :     0.016717
      dxy     :     0.005208
  2 N s       :     3.548309  s :     3.548309
      pz      :     1.480783  p :     4.056836
      px      :     1.421677
      py      :     1.154376
      dz2     :     0.009008  d :     0.037660
      dxz     :     0.001674
      dyz     :     0.010261
      dx2y2   :     0.011951
      dxy     :     0.004767
  3 C s       :     3.207940  s :     3.207940
      pz      :     1.009315  p :     3.183559
      px      :     1.073307
      py      :     1.100936
      dz2     :     0.009672  d :     0.037651
      dxz     :     0.006383
      dyz     :     0.006854
      dx2y2   :     0.012057
      dxy     :     0.002685
  4 C s       :     3.263067  s :     3.263067
      pz      :     1.026552  p :     3.228620
      px      :     1.125719
      py      :     1.076348
      dz2     :     0.010227  d :     0.037668
      dxz     :     0.007486
      dyz     :     0.005203
      dx2y2   :     0.012295
      dxy     :     0.002457
  5 N s       :     3.528232  s :     3.528232
      pz      :     1.151606  p :     4.051969
      px      :     1.722211
      py      :     1.178151
      dz2     :     0.005269  d :     0.037822
      dxz     :     0.008734
      dyz     :     0.010911
      dx2y2   :     0.007274
      dxy     :     0.005634
  6 H s       :     0.693763  s :     0.693763
  7 H s       :     0.692911  s :     0.692911
  8 H s       :     0.700721  s :     0.700721
  9 H s       :     0.686061  s :     0.686061
 10 H s       :     0.835101  s :     0.835101
 11 H s       :     0.841797  s :     0.841797
 12 H s       :     0.830350  s :     0.830350
 13 H s       :     0.823305  s :     0.823305
 14 H s       :     0.839604  s :     0.839604
 15 H s       :     0.844615  s :     0.844615
 16 H s       :     0.836599  s :     0.836599
 17 H s       :     0.839471  s :     0.839471


                     *******************************
                     * LOEWDIN POPULATION ANALYSIS *
                     *******************************

----------------------
LOEWDIN ATOMIC CHARGES
----------------------
   0 C :   -0.140149
   1 C :   -0.219985
   2 N :   -0.514219
   3 C :   -0.426560
   4 C :   -0.424383
   5 N :   -0.535087
   6 H :    0.257472
   7 H :    0.258695
   8 H :    0.252207
   9 H :    0.260101
  10 H :    0.153259
  11 H :    0.147413
  12 H :    0.159676
  13 H :    0.156620
  14 H :    0.153805
  15 H :    0.157290
  16 H :    0.152217
  17 H :    0.151630

-------------------------------
LOEWDIN REDUCED ORBITAL CHARGES
-------------------------------
  0 C s       :     2.865566  s :     2.865566
      pz      :     1.080144  p :     3.137406
      px      :     1.091097
      py      :     0.966165
      dz2     :     0.027163  d :     0.137177
      dxz     :     0.023994
      dyz     :     0.028278
      dx2y2   :     0.036822
      dxy     :     0.020920
  1 C s       :     2.929793  s :     2.929793
      pz      :     1.037479  p :     3.184041
      px      :     1.027640
      py      :     1.118921
      dz2     :     0.026002  d :     0.106151
      dxz     :     0.025343
      dyz     :     0.014217
      dx2y2   :     0.031480
      dxy     :     0.009110
  2 N s       :     3.290103  s :     3.290103
      pz      :     1.493060  p :     4.165332
      px      :     1.434249
      py      :     1.238023
      dz2     :     0.012047  d :     0.058784
      dxz     :     0.002565
      dyz     :     0.016250
      dx2y2   :     0.018981
      dxy     :     0.008941
  3 C s       :     2.994724  s :     2.994724
      pz      :     1.099576  p :     3.369598
      px      :     1.125154
      py      :     1.144868
      dz2     :     0.016168  d :     0.062237
      dxz     :     0.011683
      dyz     :     0.011315
      dx2y2   :     0.018906
      dxy     :     0.004165
  4 C s       :     2.986174  s :     2.986174
      pz      :     1.108462  p :     3.376543
      px      :     1.137385
      py      :     1.130696
      dz2     :     0.017000  d :     0.061666
      dxz     :     0.012754
      dyz     :     0.009049
      dx2y2   :     0.019063
      dxy     :     0.003801
  5 N s       :     3.286373  s :     3.286373
      pz      :     1.257076  p :     4.189075
      px      :     1.683714
      py      :     1.248284
      dz2     :     0.009828  d :     0.059639
      dxz     :     0.013977
      dyz     :     0.018007
      dx2y2   :     0.010658
      dxy     :     0.007169
  6 H s       :     0.742528  s :     0.742528
  7 H s       :     0.741305  s :     0.741305
  8 H s       :     0.747793  s :     0.747793
  9 H s       :     0.739899  s :     0.739899
 10 H s       :     0.846741  s :     0.846741
 11 H s       :     0.852587  s :     0.852587
 12 H s       :     0.840324  s :     0.840324
 13 H s       :     0.843380  s :     0.843380
 14 H s       :     0.846195  s :     0.846195
 15 H s       :     0.842710  s :     0.842710
 16 H s       :     0.847783  s :     0.847783
 17 H s       :     0.848370  s :     0.848370


                      *****************************
                      * MAYER POPULATION ANALYSIS *
                      *****************************

  NA   - Mulliken gross atomic population
  ZA   - Total nuclear charge
  QA   - Mulliken gross atomic charge
  VA   - Mayer's total valence
  BVA  - Mayer's bonded valence
  FA   - Mayer's free valence

  ATOM       NA         ZA         QA         VA         BVA        FA
  0 C      6.0856     6.0000    -0.0856     3.8654     3.8654     0.0000
  1 C      6.2308     6.0000    -0.2308     3.6470     3.6470    -0.0000
  2 N      7.6428     7.0000    -0.6428     2.6034     2.6034     0.0000
  3 C      6.4291     6.0000    -0.4291     3.5927     3.5927    -0.0000
  4 C      6.5294     6.0000    -0.5294     3.6778     3.6778    -0.0000
  5 N      7.6180     7.0000    -0.6180     2.8270     2.8270    -0.0000
  6 H      0.6938     1.0000     0.3062     0.8768     0.8768    -0.0000
  7 H      0.6929     1.0000     0.3071     0.8777     0.8777    -0.0000
  8 H      0.7007     1.0000     0.2993     0.8795     0.8795    -0.0000
  9 H      0.6861     1.0000     0.3139     0.8886     0.8886     0.0000
 10 H      0.8351     1.0000     0.1649     0.9482     0.9482     0.0000
 11 H      0.8418     1.0000     0.1582     0.9448     0.9448    -0.0000
 12 H      0.8303     1.0000     0.1697     0.9533     0.9533    -0.0000
 13 H      0.8233     1.0000     0.1767     0.9682     0.9682    -0.0000
 14 H      0.8396     1.0000     0.1604     0.9603     0.9603    -0.0000
 15 H      0.8446     1.0000     0.1554     0.9608     0.9608    -0.0000
 16 H      0.8366     1.0000     0.1634     0.9608     0.9608     0.0000
 17 H      0.8395     1.0000     0.1605     0.9618     0.9618    -0.0000

  Mayer bond orders larger than 0.100000
B(  0-C ,  1-C ) :   0.9191 B(  0-C ,  2-N ) :   0.9855 B(  0-C ,  3-C ) :   0.9938 
B(  0-C ,  4-C ) :   0.9798 B(  1-C ,  5-N ) :   1.0764 B(  1-C , 10-H ) :   0.9586 
B(  1-C , 11-H ) :   0.9341 B(  2-N ,  6-H ) :   0.8638 B(  2-N ,  7-H ) :   0.8663 
B(  3-C , 15-H ) :   0.9449 B(  3-C , 16-H ) :   0.9549 B(  3-C , 17-H ) :   0.9465 
B(  4-C , 12-H ) :   0.9643 B(  4-C , 13-H ) :   0.9613 B(  4-C , 14-H ) :   0.9450 
B(  5-N ,  8-H ) :   0.8825 B(  5-N ,  9-H ) :   0.8640 

-------
TIMINGS
-------

Total SCF time: 0 days 0 hours 0 min 4 sec 

Total time                  ....       4.379 sec
Sum of individual times     ....       4.110 sec  ( 93.8%)

Fock matrix formation       ....       1.708 sec  ( 39.0%)
  Split-RI-J                ....       0.558 sec  ( 32.7% of F)
  XC integration            ....       0.843 sec  ( 49.4% of F)
    Basis function eval.    ....       0.095 sec  ( 11.3% of XC)
    Density eval.           ....       0.124 sec  ( 14.7% of XC)
    XC-Functional eval.     ....       0.089 sec  ( 10.6% of XC)
    XC-Potential eval.      ....       0.053 sec  (  6.3% of XC)
Diagonalization             ....       0.016 sec  (  0.4%)
Density matrix formation    ....       0.009 sec  (  0.2%)
Population analysis         ....       0.039 sec  (  0.9%)
Initial guess               ....       0.015 sec  (  0.3%)
Orbital Transformation      ....       0.000 sec  (  0.0%)
Orbital Orthonormalization  ....       0.007 sec  (  0.2%)
DIIS solution               ....       0.002 sec  (  0.0%)
SOSCF solution              ....       0.081 sec  (  1.8%)
Grid generation             ....       2.239 sec  ( 51.1%)


-------------------------------------------------------------------------------
                          DFT DISPERSION CORRECTION                            
                                                                               
                              DFTD3 V3.1  Rev 1                                
                          USING Becke-Johnson damping                          
-------------------------------------------------------------------------------
The B97-3c composite method is recognized
Using three-body term ABC
Active option DFTDOPT                   ...         4   

molecular C6(AA) [au] = 2114.043983 


            DFT-D V3
 parameters
 s6 scaling factor         :     1.0000 
 a1 scaling factor         :     0.3700 
 s8 scaling factor         :     1.5000 
 a2 scaling factor         :     4.1000 
 Damping factor alpha9(ATM):    16.0000 
 ad hoc parameters k1-k3   :    16.0000     1.3333    -4.0000 

 Edisp/kcal,au: -21.053366715001  -0.033550671885 
 E6   /kcal   : -11.230516747 
 E8   /kcal   :  -9.871012330 
 E6(ABC)      :   0.048162362 
 % E8         :  46.885671371 
 % E6(ABC)    :  -0.228763232 

-------------------------   ----------------
Dispersion correction           -0.033550672
-------------------------   ----------------

------------------   -----------------
SRB correction            -0.043478366
------------------   -----------------

-------------------------   --------------------
FINAL SINGLE POINT ENERGY      -269.027054839093
-------------------------   --------------------

                                *** OPTIMIZATION RUN DONE ***

                            ***************************************
                            *     ORCA property calculations      *
                            ***************************************

                                    ---------------------
                                    Active property flags
                                    ---------------------
   (+) Dipole Moment


------------------------------------------------------------------------------
                       ORCA ELECTRIC PROPERTIES CALCULATION
------------------------------------------------------------------------------

Dipole Moment Calculation                       ... on
Quadrupole Moment Calculation                   ... off
Polarizability Calculation                      ... off
GBWName                                         ... _o_ami2_opt_B97-3c.gbw
Electron density file                           ... _o_ami2_opt_B97-3c.scfp
The origin for moment calculation is the CENTER OF MASS  = (-0.438258,  1.532171  0.364938)

-------------
DIPOLE MOMENT
-------------
                                X             Y             Z
Electronic contribution:      1.94903       1.50008      -0.61613
Nuclear contribution   :     -2.88003      -1.54610       0.76383
                        -----------------------------------------
Total Dipole Moment    :     -0.93100      -0.04601       0.14769
                        -----------------------------------------
Magnitude (a.u.)       :      0.94377
Magnitude (Debye)      :      2.39887



--------------------
Rotational spectrum 
--------------------
 
Rotational constants in cm-1:     0.149743     0.087546     0.086337 
Rotational constants in MHz :  4489.184151  2624.556073  2588.332602 

 Dipole components along the rotational axes: 
x,y,z [a.u.] :     0.920499    -0.205195     0.035686 
x,y,z [Debye]:     2.339722    -0.521565     0.090706 

 

Timings for individual modules:

Sum of individual times         ...      497.825 sec (=   8.297 min)
GTO integral calculation        ...       67.215 sec (=   1.120 min)  13.5 %
SCF iterations                  ...      287.890 sec (=   4.798 min)  57.8 %
SCF Gradient evaluation         ...       92.039 sec (=   1.534 min)  18.5 %
Geometry relaxation             ...       50.680 sec (=   0.845 min)  10.2 %
                             ****ORCA TERMINATED NORMALLY****
TOTAL RUN TIME: 0 days 0 hours 9 minutes 15 seconds 884 msec
