Job execution start: Wed Nov 10 23:08:31 GMT 2021
Shared library path: /work/e05/e05/atarzia/orca_4_2_1_linux_x86-64_openmpi314:/work/e05/e05/atarzia/openmpi-3.1.4/lib:/opt/cray/pe/papi/6.0.0.4/lib64:/opt/cray/libfabric/1.11.0.0.233/lib64
Slurm Job ID is: 630142
Slurm Job name is: o_ami4_opt_B97-3c
nid001111

                                 *****************
                                 * O   R   C   A *
                                 *****************

           --- An Ab Initio, DFT and Semiempirical electronic structure package ---

                  #######################################################
                  #                        -***-                        #
                  #          Department of theory and spectroscopy      #
                  #               Directorship: Frank Neese             #
                  #        Max Planck Institute fuer Kohlenforschung    #
                  #                Kaiser Wilhelm Platz 1               #
                  #                 D-45470 Muelheim/Ruhr               #
                  #                      Germany                        #
                  #                                                     #
                  #                  All rights reserved                #
                  #                        -***-                        #
                  #######################################################


                         Program Version 4.2.1 -  RELEASE  -


 With contributions from (in alphabetic order):
   Daniel Aravena         : Magnetic Suceptibility
   Michael Atanasov       : Ab Initio Ligand Field Theory (pilot matlab implementation)
   Alexander A. Auer      : GIAO ZORA, VPT2
   Ute Becker             : Parallelization
   Giovanni Bistoni       : ED, misc. LED, open-shell LED, HFLD
   Martin Brehm           : Molecular dynamics
   Dmytro Bykov           : SCF Hessian
   Vijay G. Chilkuri      : MRCI spin determinant printing, contributions to CSF-ICE
   Dipayan Datta          : RHF DLPNO-CCSD density
   Achintya Kumar Dutta   : EOM-CC, STEOM-CC
   Dmitry Ganyushin       : Spin-Orbit,Spin-Spin,Magnetic field MRCI
   Miquel Garcia          : C-PCM Hessian, Gaussian charge scheme
   Yang Guo               : DLPNO-NEVPT2, CIM, IAO-localization
   Andreas Hansen         : Spin unrestricted coupled pair/coupled cluster methods
   Benjamin Helmich-Paris : CASSCF linear response (MC-RPA)
   Lee Huntington         : MR-EOM, pCC
   Robert Izsak           : Overlap fitted RIJCOSX, COSX-SCS-MP3, EOM
   Christian Kollmar      : KDIIS, OOCD, Brueckner-CCSD(T), CCSD density
   Simone Kossmann        : Meta GGA functionals, TD-DFT gradient, OOMP2, MP2 Hessian
   Martin Krupicka        : AUTO-CI
   Lucas Lang             : DCDCAS
   Dagmar Lenk            : GEPOL surface, SMD
   Dimitrios Liakos       : Extrapolation schemes; Compound Job, initial MDCI parallelization
   Dimitrios Manganas     : Further ROCIS development; embedding schemes
   Dimitrios Pantazis     : SARC Basis sets
   Taras Petrenko         : DFT Hessian,TD-DFT gradient, ASA, ECA, R-Raman, ABS, FL, XAS/XES, NRVS
   Peter Pinski           : DLPNO-MP2, DLPNO-MP2 Gradient
   Christoph Reimann      : Effective Core Potentials
   Marius Retegan         : Local ZFS, SOC
   Christoph Riplinger    : Optimizer, TS searches, QM/MM, DLPNO-CCSD(T), (RO)-DLPNO pert. Triples
   Tobias Risthaus        : Range-separated hybrids, TD-DFT gradient, RPA, STAB
   Michael Roemelt        : Original ROCIS implementation
   Masaaki Saitow         : Open-shell DLPNO-CCSD energy and density
   Barbara Sandhoefer     : DKH picture change effects
   Avijit Sen             : IP-ROCIS
   Kantharuban Sivalingam : CASSCF convergence, NEVPT2, FIC-MRCI
   Bernardo de Souza      : ESD, SOC TD-DFT
   Georgi Stoychev        : AutoAux, RI-MP2 NMR
   Willem Van den Heuvel  : Paramagnetic NMR
   Boris Wezisla          : Elementary symmetry handling
   Frank Wennmohs         : Technical directorship


 We gratefully acknowledge several colleagues who have allowed us to
 interface, adapt or use parts of their codes:
   Stefan Grimme, W. Hujo, H. Kruse,             : VdW corrections, initial TS optimization,
                  C. Bannwarth                     DFT functionals, gCP, sTDA/sTD-DF
   Ed Valeev, F. Pavosevic, A. Kumar             : LibInt (2-el integral package), F12 methods
   Garnet Chan, S. Sharma, J. Yang, R. Olivares  : DMRG
   Ulf Ekstrom                                   : XCFun DFT Library
   Mihaly Kallay                                 : mrcc  (arbitrary order and MRCC methods)
   Andreas Klamt, Michael Diedenhofen            : otool_cosmo (COSMO solvation model)
   Jiri Pittner, Ondrej Demel                    : Mk-CCSD
   Frank Weinhold                                : gennbo (NPA and NBO analysis)
   Christopher J. Cramer and Donald G. Truhlar   : smd solvation model
   Lars Goerigk                                  : TD-DFT with DH, B97 family of functionals
   V. Asgeirsson, H. Jonsson                     : NEB implementation
   FAccTs GmbH                                   : IRC, NEB, NEB-TS, Multilevel, MM, QM/MM, CI optimization
   S Lehtola, MJT Oliveira, MAL Marques          : LibXC Library


 Your calculation uses the libint2 library for the computation of 2-el integrals
 For citations please refer to: http://libint.valeyev.net

 Your ORCA version has been built with support for libXC version: 4.2.3
 For citations please refer to: https://tddft.org/programs/libxc/

 This ORCA versions uses:
   CBLAS   interface :  Fast vector & matrix operations
   LAPACKE interface :  Fast linear algebra routines
   SCALAPACK package :  Parallel linear algebra routines




***************************************
The coordinates will be read from file: o_ami4_opt.xyz
***************************************


Your calculation utilizes the atom-pairwise dispersion correction
with the Becke-Johnson damping scheme (D3BJ)
Cite in your paper:
S.Grimme, S.Ehrlich, L.Goerigk, J Comput Chem, (2011), 32, 1456–1465 
S.Grimme, J.Antony, S.Ehrlich and H.Krieg, J.Chem.Phys., 132, (2010), 154104 
   

Your calculation employs the composite approach B97-3c by Grimme and coworkers.
For the correct reference, please check the publication list of the Grimme group:
http://www.thch.uni-bonn.de/tc/index.php?section=publikationen&subsection=grimme#2017
   

XCFun DFT library Copyright 2009-2010 Ulf Ekstrom and contributors.
See http://admol.org/xcfun for more information. This is free soft-
ware; see the source code for copying conditions. There is ABSOLUTELY
NO WARRANTY; not even for MERCHANTABILITY or FITNESS FOR A PARTICULAR
PURPOSE. For details see the documentation. Scientific users of this 
library should cite U. Ekstrom, L. Visscher, R. Bast, A. J. Thorvald-
sen and K. Ruud; J.Chem.Theor.Comp. 2010, DOI: 10.1021/ct100117s
XCFun Version 0.99 
----- Orbital basis set information -----
Your calculation utilizes the basis: def2-mTZVP
----- AuxJ basis set information -----
Your calculation utilizes the basis: def2-mTZVP/J
================================================================================
                                        WARNINGS
                       Please study these warnings very carefully!
================================================================================


WARNING: Geometry Optimization
  ===> : Switching off AutoStart
         For restart on a previous wavefunction, please use MOREAD

INFO   : the flag for use of LIBINT has been found!

================================================================================
                                       INPUT FILE
================================================================================
NAME = o_ami4_opt_B97-3c.in
|  1> ! DFT COPT B97-3c TightSCF printbasis  Grid6 NOFINALGRID SlowConv 
|  2> 
|  3> %base "_o_ami4_opt_B97-3c"
|  4> %maxcore 3000
|  5> %scf
|  6>    MaxIter 2000
|  7> end
|  8> %pal
|  9>    nprocs 32
| 10> end
| 11> 
| 12> * xyzfile 0 1 o_ami4_opt.xyz
| 13> # * xyzfile 0 1 _o_ami4_opt_B97-3c.xyz
| 14> 
| 15>                          ****END OF INPUT****
================================================================================

                       *****************************
                       * Geometry Optimization Run *
                       *****************************

Geometry optimization settings:
Update method            Update   .... BFGS
Choice of coordinates    CoordSys .... Cartesian
Initial Hessian          InHess   .... Unit Matrix

Convergence Tolerances:
Energy Change            TolE     ....  5.0000e-06 Eh
Max. Gradient            TolMAXG  ....  3.0000e-04 Eh/bohr
RMS Gradient             TolRMSG  ....  1.0000e-04 Eh/bohr
Max. Displacement        TolMAXD  ....  4.0000e-03 bohr
RMS Displacement         TolRMSD  ....  2.0000e-03 bohr
Strict Convergence                ....  False
------------------------------------------------------------------------------
                        ORCA OPTIMIZATION COORDINATE SETUP
------------------------------------------------------------------------------

The optimization will be done in cartesian displacement coordinates
Initial hessian                         ....done
Number of atoms                         .... 12
Number of degrees of freedom            .... 36

         *************************************************************
         *                GEOMETRY OPTIMIZATION CYCLE   1            *
         *************************************************************
---------------------------------
CARTESIAN COORDINATES (ANGSTROEM)
---------------------------------
  C     -0.740700    0.987100    0.494200
  C      0.679900    0.453900    0.250000
  N     -1.249800    1.827600   -0.571300
  N      1.587200    1.575800    0.057400
  H     -1.306900    1.292000   -1.432400
  H     -0.585400    2.578400   -0.734900
  H      1.628300    2.137100    0.902700
  H      2.525300    1.246700   -0.141700
  H      0.692300   -0.140200   -0.669600
  H      0.965300   -0.207100    1.086100
  H     -0.745900    1.582700    1.412500
  H     -1.424500    0.145000    0.629900

----------------------------
CARTESIAN COORDINATES (A.U.)
----------------------------
  NO LB      ZA    FRAG     MASS         X           Y           Z
   0 C     6.0000    0    12.011   -1.399720    1.865349    0.933903
   1 C     6.0000    0    12.011    1.284825    0.857747    0.472432
   2 N     7.0000    0    14.007   -2.361780    3.453663   -1.079601
   3 N     7.0000    0    14.007    2.999373    2.977830    0.108470
   4 H     1.0000    0     1.008   -2.469683    2.441526   -2.706844
   5 H     1.0000    0     1.008   -1.106246    4.872470   -1.388760
   6 H     1.0000    0     1.008    3.077041    4.038534    1.705856
   7 H     1.0000    0     1.008    4.772125    2.355922   -0.267774
   8 H     1.0000    0     1.008    1.308257   -0.264940   -1.265361
   9 H     1.0000    0     1.008    1.824153   -0.391362    2.052432
  10 H     1.0000    0     1.008   -1.409547    2.990870    2.669238
  11 H     1.0000    0     1.008   -2.691915    0.274010    1.190338

--------------------------------
INTERNAL COORDINATES (ANGSTROEM)
--------------------------------
 C      0   0   0     0.000000000000     0.00000000     0.00000000
 C      1   0   0     1.536893047678     0.00000000     0.00000000
 N      1   2   0     1.449452762252   114.14418877     0.00000000
 N      2   1   3     1.455660557960   109.25445142    57.71484295
 H      3   1   2     1.015687442080   109.70542635    61.97746722
 H      3   1   2     1.015821322871   108.49682138   305.57884639
 H      4   2   1     1.015519074168   109.94292828    63.27570508
 H      4   2   1     1.013893105806   110.64106264   182.21411594
 H      2   1   3     1.094884802160   109.40077328   300.33196285
 H      2   1   3     1.103375443809   109.05790309   182.44999735
 H      1   2   3     1.094550725184   109.05536638   239.86097510
 H      1   2   3     1.093219712592   109.30790770   121.77331709

---------------------------
INTERNAL COORDINATES (A.U.)
---------------------------
 C      0   0   0     0.000000000000     0.00000000     0.00000000
 C      1   0   0     2.904306957238     0.00000000     0.00000000
 N      1   2   0     2.739068764712   114.14418877     0.00000000
 N      2   1   3     2.750799798495   109.25445142    57.71484295
 H      3   1   2     1.919371103195   109.70542635    61.97746722
 H      3   1   2     1.919624101224   108.49682138   305.57884639
 H      4   2   1     1.919052933952   109.94292828    63.27570508
 H      4   2   1     1.915980299043   110.64106264   182.21411594
 H      2   1   3     2.069032424274   109.40077328   300.33196285
 H      2   1   3     2.085077411692   109.05790309   182.44999735
 H      1   2   3     2.068401110282   109.05536638   239.86097510
 H      1   2   3     2.065885861003   109.30790770   121.77331709

---------------------
BASIS SET INFORMATION
---------------------
There are 3 groups of distinct atoms

 Group   1 Type C   : 11s6p1d contracted to 5s3p1d pattern {62111/411/1}
 Group   2 Type N   : 11s6p1d contracted to 5s3p1d pattern {62111/411/1}
 Group   3 Type H   : 5s contracted to 3s pattern {311}

Atom   0C    basis set group =>   1
Atom   1C    basis set group =>   1
Atom   2N    basis set group =>   2
Atom   3N    basis set group =>   2
Atom   4H    basis set group =>   3
Atom   5H    basis set group =>   3
Atom   6H    basis set group =>   3
Atom   7H    basis set group =>   3
Atom   8H    basis set group =>   3
Atom   9H    basis set group =>   3
Atom  10H    basis set group =>   3
Atom  11H    basis set group =>   3

-------------------------
BASIS SET IN INPUT FORMAT
-------------------------

 # Basis set for element : H 
 NewGTO H 
 S 3 
   1      34.0613410000      0.0254393072
   2       5.1235746000      0.1900859489
   3       1.1646626000      0.8524411301
 S 1 
   1       0.3272304100      1.0000000000
 S 1 
   1       0.1030724100      1.0000000000
  end;

 # Basis set for element : C 
 NewGTO C 
 S 6 
   1   13575.3496820000      0.0006064549
   2    2035.2333680000      0.0046979088
   3     463.2256235900      0.0243324776
   4     131.2001959800      0.0973999683
   5      42.8530158910      0.3019558425
   6      15.5841857660      0.6623360915
 S 2 
   1       6.2067138508      0.6559530854
   2       2.5764896527      0.3758563329
 S 1 
   1       0.5769633942      1.0000000000
 S 1 
   1       0.2297283136      1.0000000000
 S 1 
   1       0.0951644400      1.0000000000
 P 4 
   1      34.6972322440      0.0113272200
   2       7.9582622826      0.0761696592
   3       2.3780826883      0.3019225220
   4       0.8143320818      0.7278502735
 P 1 
   1       0.2888754725      1.0000000000
 P 1 
   1       0.1005682367      1.0000000000
 D 1 
   1       0.8000000000      1.0000000000
  end;

 # Basis set for element : N 
 NewGTO N 
 S 6 
   1   19730.8006470000      0.0005862639
   2    2957.8958745000      0.0045428821
   3     673.2213359500      0.0235584136
   4     190.6824949400      0.0947091933
   5      62.2954418980      0.2971978492
   6      22.6541611820      0.6691624689
 S 2 
   1       8.9791477428      0.6459668363
   2       3.6863002370      0.3870057440
 S 1 
   1       0.8466007680      1.0000000000
 S 1 
   1       0.3364713377      1.0000000000
 S 1 
   1       0.1364765367      1.0000000000
 P 4 
   1      49.2003805100      0.0114488252
   2      11.3467905370      0.0784223379
   3       3.4273972411      0.3081809474
   4       1.1785525134      0.7202719637
 P 1 
   1       0.4164220497      1.0000000000
 P 1 
   1       0.1426082601      1.0000000000
 D 1 
   1       0.8000000000      1.0000000000
  end;

---------------------------------
AUXILIARY/J BASIS SET INFORMATION
---------------------------------
There are 3 groups of distinct atoms

 Group   1 Type C   : 8s3p3d contracted to 6s3p3d pattern {311111/111/111}
 Group   2 Type N   : 8s3p3d contracted to 6s3p3d pattern {311111/111/111}
 Group   3 Type H   : 5s2p contracted to 3s1p pattern {311/2}

Atom   0C    basis set group =>   1
Atom   1C    basis set group =>   1
Atom   2N    basis set group =>   2
Atom   3N    basis set group =>   2
Atom   4H    basis set group =>   3
Atom   5H    basis set group =>   3
Atom   6H    basis set group =>   3
Atom   7H    basis set group =>   3
Atom   8H    basis set group =>   3
Atom   9H    basis set group =>   3
Atom  10H    basis set group =>   3
Atom  11H    basis set group =>   3

-------------------------------------
AUXILIARY/J BASIS SET IN INPUT FORMAT
-------------------------------------

 # Auxiliary/J basis set for element : H 
 NewAuxJGTO H 
 S 3 
   1      15.6752927000      0.1007184237
   2       3.6063578000      0.3404257499
   3       1.2080016000      0.6491996172
 S 1 
   1       0.4726794000      1.0000000000
 S 1 
   1       0.2018100000      1.0000000000
 P 2 
   1       2.0281365000      0.5596620919
   2       0.5358730000      0.5596620919
  end;

 # Auxiliary/J basis set for element : C 
 NewAuxJGTO C 
 S 3 
   1     459.7023860000      0.1098751775
   2     132.9577920000      0.2844848472
   3      41.5658170000      0.6964707648
 S 1 
   1      13.9155610000      1.0000000000
 S 1 
   1       4.9305290000     -1.0000000000
 S 1 
   1       1.8229480000      1.0000000000
 S 1 
   1       0.6920510000      1.0000000000
 S 1 
   1       0.2650930000      1.0000000000
 P 1 
   1       0.3278473579      1.0000000000
 P 1 
   1       0.7868336591      1.0000000000
 P 1 
   1       1.9710183160      1.0000000000
 D 1 
   1       4.0133010000      1.0000000000
 D 1 
   1       1.2475050000      1.0000000000
 D 1 
   1       0.4081480000      1.0000000000
  end;

 # Auxiliary/J basis set for element : N 
 NewAuxJGTO N 
 S 3 
   1     680.5425300000      0.1043830093
   2     196.7562140000      0.2751518961
   3      61.2707930000      0.7090825511
 S 1 
   1      20.3644630000      1.0000000000
 S 1 
   1       7.1424770000     -1.0000000000
 S 1 
   1       2.6080260000      1.0000000000
 S 1 
   1       0.9763730000      1.0000000000
 S 1 
   1       0.3686330000      1.0000000000
 P 1 
   1       0.4707391941      1.0000000000
 P 1 
   1       1.1297740658     -1.0000000000
 P 1 
   1       2.8300840347      1.0000000000
 D 1 
   1       5.8329865000      1.0000000000
 D 1 
   1       1.7326865000      1.0000000000
 D 1 
   1       0.5452425000      1.0000000000
  end;



           ************************************************************
           *        Program running with 32 parallel MPI-processes    *
           *              working on a common directory               *
           ************************************************************
------------------------------------------------------------------------------
                           ORCA GTO INTEGRAL CALCULATION
                           -- RI-GTO INTEGRALS CHOSEN --
------------------------------------------------------------------------------

                         BASIS SET STATISTICS AND STARTUP INFO

Gaussian basis set:
 # of primitive gaussian shells          ...  112
 # of primitive gaussian functions       ...  176
 # of contracted shells                  ...   60
 # of contracted basis functions         ...  100
 Highest angular momentum                ...    2
 Maximum contraction depth               ...    6
Auxiliary gaussian basis set:
 # of primitive gaussian shells          ...  112
 # of primitive gaussian functions       ...  216
 # of contracted shells                  ...   80
 # of contracted aux-basis functions     ...  168
 Highest angular momentum                ...    2
 Maximum contraction depth               ...    3
Ratio of auxiliary to basis functions    ...  1.68
Integral package used                  ... LIBINT
 One Electron integrals                  ... done
 Ordering auxiliary basis shells         ... done
 Integral threshhold             Thresh  ...  2.500e-11
 Primitive cut-off               TCut    ...  2.500e-12
 Pre-screening matrix                    ... done
 Shell pair data                         ... 
 Ordering of the shell pairs             ... done (   0.000 sec) 1788 of 1830 pairs
 Determination of significant pairs      ... done (   0.000 sec)
 Creation of shell pair data             ... done (   0.000 sec)
 Storage of shell pair data              ... done (   0.003 sec)
 Shell pair data done in (   0.004 sec)
 Computing two index integrals           ... done
 Cholesky decomposition of the V-matrix  ... done


Timings:
 Total evaluation time                   ...   0.102 sec (  0.002 min)
 One electron matrix time                ...   0.023 sec (  0.000 min) = 22.2%
 Schwartz matrix evaluation time         ...   0.055 sec (  0.001 min) = 53.7%
 Two index repulsion integral time       ...   0.003 sec (  0.000 min) =  3.2%
 Cholesky decomposition of V             ...   0.006 sec (  0.000 min) =  5.7%
 Three index repulsion integral time     ...   0.000 sec (  0.000 min) =  0.0%



           ************************************************************
           *        Program running with 32 parallel MPI-processes    *
           *              working on a common directory               *
           ************************************************************
-------------------------------------------------------------------------------
                                 ORCA SCF
-------------------------------------------------------------------------------

------------
SCF SETTINGS
------------
Hamiltonian:
 Density Functional     Method          .... DFT(GTOs)
 Exchange Functional    Exchange        .... B973C
 Correlation Functional Correlation     .... B973C
 Gradients option       PostSCFGGA      .... off
   Density functional embedding theory  .... OFF
 RI-approximation to the Coulomb term is turned on
   Number of auxiliary basis functions  .... 168


General Settings:
 Integral files         IntName         .... _o_ami4_opt_B97-3c
 Hartree-Fock type      HFTyp           .... RHF
 Total Charge           Charge          ....    0
 Multiplicity           Mult            ....    1
 Number of Electrons    NEL             ....   34
 Basis Dimension        Dim             ....  100
 Nuclear Repulsion      ENuc            ....    134.9565242911 Eh

Convergence Acceleration:
 DIIS                   CNVDIIS         .... on
   Start iteration      DIISMaxIt       ....     0
   Startup error        DIISStart       ....  0.200000
   # of expansion vecs  DIISMaxEq       ....     5
   Bias factor          DIISBfac        ....   1.050
   Max. coefficient     DIISMaxC        ....  10.000
 Newton-Raphson         CNVNR           .... off
 SOSCF                  CNVSOSCF        .... on
   Start iteration      SOSCFMaxIt      ....   150
   Startup grad/error   SOSCFStart      ....  0.001000
 Level Shifting         CNVShift        .... on
   Level shift para.    LevelShift      ....    0.2500
   Turn off err/grad.   ShiftErr        ....    0.0000
 Zerner damping         CNVZerner       .... off
 Static damping         CNVDamp         .... on
   Fraction old density DampFac         ....    0.8500
   Max. Damping (<1)    DampMax         ....    0.9800
   Min. Damping (>=0)   DampMin         ....    0.0000
   Turn off err/grad.   DampErr         ....    0.0300
 Fernandez-Rico         CNVRico         .... off

SCF Procedure:
 Maximum # iterations   MaxIter         ....  2000
 SCF integral mode      SCFMode         .... Direct
   Integral package                     .... LIBINT
 Reset frequency        DirectResetFreq ....    20
 Integral Threshold     Thresh          ....  2.500e-11 Eh
 Primitive CutOff       TCut            ....  2.500e-12 Eh

Convergence Tolerance:
 Convergence Check Mode ConvCheckMode   .... Total+1el-Energy
 Convergence forced     ConvForced      .... 0
 Energy Change          TolE            ....  1.000e-08 Eh
 1-El. energy change                    ....  1.000e-05 Eh
 Orbital Gradient       TolG            ....  1.000e-05
 Orbital Rotation angle TolX            ....  1.000e-05
 DIIS Error             TolErr          ....  5.000e-07


Diagonalization of the overlap matrix:
Smallest eigenvalue                        ... 4.421e-04
Time for diagonalization                   ...    0.002 sec
Threshold for overlap eigenvalues          ... 1.000e-08
Number of eigenvalues below threshold      ... 0
Time for construction of square roots      ...    0.010 sec
Total time needed                          ...    0.012 sec

--------------------------------
INITIAL GUESS: MINIMAL BASIS EHT
--------------------------------
The minimal basis has 28 functions
EHT matrix was diagonalized
Basis set overlap was calculated now projecting the orbitals
Using GuessMode=FMatrix for the initial guess
C*T matrix was formed
Effective Fockian was calculated
Effective Fockian was diagonalized
Initial density was built
                      ------------------
                      INITIAL GUESS DONE
                      ------------------
-------------------
DFT GRID GENERATION
-------------------

General Integration Accuracy     IntAcc      ...  5.340
Radial Grid Type                 RadialGrid  ... Gauss-Chebyshev
Angular Grid (max. acc.)         AngularGrid ... Lebedev-590
Angular grid pruning method      GridPruning ... 3 (G Style)
Weight generation scheme         WeightScheme... Becke
Basis function cutoff            BFCut       ...    1.0000e-11
Integration weight cutoff        WCut        ...    1.0000e-14
Grids for H and He will be reduced by one unit

# of grid points (after initial pruning)     ... 153880 (   0.0 sec)
# of grid points (after weights+screening)   ... 142234 (   0.0 sec)
nearest neighbour list constructed           ...    0.0 sec
Grid point re-assignment to atoms done       ...    0.0 sec
Grid point division into batches done        ...    1.5 sec
Reduced shell lists constructed in    1.5 sec

Total number of grid points                  ...   142234
Total number of batches                      ...     2228
Average number of points per batch           ...       63
Average number of grid points per atom       ...    11853
Average number of shells per batch           ...    52.63 (87.72%)
Average number of basis functions per batch  ...    91.68 (91.68%)
Average number of large shells per batch     ...    47.52 (90.29%)
Average number of large basis fcns per batch ...    84.25 (91.90%)
Maximum spatial batch extension              ...   1.29,  1.13,  1.30 au
Average spatial batch extension              ...   0.03,  0.02,  0.03 au

Time for grid setup =    1.601 sec

--------------
SCF ITERATIONS
--------------
ITER       Energy         Delta-E        Max-DP      RMS-DP      [F,P]     Damp
               ***  Starting incremental Fock matrix formation  ***
  0   -189.8577222994   0.000000000000 0.07011680  0.00340966  0.4229593 0.8500
  1   -189.9538751672  -0.096152867812 0.05362580  0.00258091  0.3630904 0.8500
                               ***Turning on DIIS***
  2   -190.0254324581  -0.071557290955 0.04373950  0.00188393  0.3110855 0.8500
  3   -190.0812465985  -0.055814140389 0.03398819  0.00132383  0.2660463 0.8500
  4   -190.1274589003  -0.046212301815 0.02733199  0.00106850  0.2261932 0.8500
  5   -190.1656801492  -0.038221248841 0.02331040  0.00091099  0.1917999 0.8500
  6   -190.1984502056  -0.032770056402 0.02019551  0.00078145  0.1627956 0.8500
  7   -190.2265055882  -0.028055382580 0.01759942  0.00067262  0.1383307 0.8500
  8   -190.2504506011  -0.023945012977 0.01488152  0.00056934  0.1177575 0.8500
  9   -190.2706767262  -0.020226125056 0.01242532  0.00048040  0.1001764 0.8500
 10   -190.2877713830  -0.017094656780 0.01050165  0.00040807  0.0851204 0.8500
 11   -190.3022825677  -0.014511184717 0.00898974  0.00034797  0.0723103 0.8500
 12   -190.3146261632  -0.012343595545 0.00770451  0.00029666  0.0614572 0.8500
 13   -190.3251169999  -0.010490836700 0.00654297  0.00025183  0.0522601 0.8500
 14   -190.3340220640  -0.008905064076 0.00552474  0.00021342  0.0444368 0.8500
 15   -190.3415810434  -0.007558979405 0.00467920  0.00018125  0.0377713 0.8500
 16   -190.3480017365  -0.006420693092 0.00398462  0.00015426  0.0321006 0.8500
 17   -190.3534580424  -0.005456305891 0.02264773  0.00087525  0.0272846 0.0000
                      *** Initiating the SOSCF procedure ***
                           *** Shutting down DIIS ***
                      *** Re-Reading the Fockian *** 
                      *** Removing any level shift *** 
ITER      Energy       Delta-E        Grad      Rot      Max-DP    RMS-DP
 18   -190.38433290  -0.0308748548  0.000108  0.000108  0.000359  0.000020
               *** Restarting incremental Fock matrix formation ***
 19   -190.38433289   0.0000000037  0.000132  0.000218  0.000472  0.000025
 20   -190.38433150   0.0000013956  0.000219  0.000148  0.000316  0.000019
 21   -190.38433352  -0.0000020173  0.000003  0.000008  0.000024  0.000001
 22   -190.38433352  -0.0000000007  0.000004  0.000003  0.000008  0.000001
                  ***Gradient check signals convergence***
              ***Rediagonalizing the Fockian in SOSCF/NRSCF***

               *****************************************************
               *                     SUCCESS                       *
               *           SCF CONVERGED AFTER  23 CYCLES          *
               *****************************************************


----------------
TOTAL SCF ENERGY
----------------

Total Energy       :         -190.38433352 Eh           -5180.62109 eV

Components:
Nuclear Repulsion  :          134.95652429 Eh            3672.35372 eV
Electronic Energy  :         -325.34085781 Eh           -8852.97482 eV
One Electron Energy:         -523.94816696 Eh          -14257.35445 eV
Two Electron Energy:          198.60730915 Eh            5404.37964 eV

Virial components:
Potential Energy   :         -380.01904709 Eh          -10340.84399 eV
Kinetic Energy     :          189.63471357 Eh            5160.22290 eV
Virial Ratio       :            2.00395297


DFT components:
N(Alpha)           :       16.999997619615 electrons
N(Beta)            :       16.999997619615 electrons
N(Total)           :       33.999995239231 electrons
E(XC)              :      -27.538457022428 Eh       
DFET-embed. en.    :        0.000000000000 Eh       

---------------
SCF CONVERGENCE
---------------

  Last Energy change         ...   -2.9991e-10  Tolerance :   1.0000e-08
  Last MAX-Density change    ...    5.4715e-06  Tolerance :   1.0000e-07
  Last RMS-Density change    ...    2.9984e-07  Tolerance :   5.0000e-09
  Last Orbital Gradient      ...    5.7377e-07  Tolerance :   1.0000e-05
  Last Orbital Rotation      ...    1.0236e-06  Tolerance :   1.0000e-05

             **** THE GBW FILE WAS UPDATED (_o_ami4_opt_B97-3c.gbw) ****
             **** DENSITY FILE WAS UPDATED (_o_ami4_opt_B97-3c.scfp) ****
             **** ENERGY FILE WAS UPDATED (_o_ami4_opt_B97-3c.en.tmp) ****
             **** THE GBW FILE WAS UPDATED (_o_ami4_opt_B97-3c.gbw) ****
             **** DENSITY FILE WAS UPDATED (_o_ami4_opt_B97-3c.scfp) ****
----------------
ORBITAL ENERGIES
----------------

  NO   OCC          E(Eh)            E(eV) 
   0   2.0000     -13.970337      -380.1522 
   1   2.0000     -13.952882      -379.6772 
   2   2.0000      -9.909485      -269.6508 
   3   2.0000      -9.906028      -269.5567 
   4   2.0000      -0.824483       -22.4353 
   5   2.0000      -0.787730       -21.4352 
   6   2.0000      -0.636428       -17.3181 
   7   2.0000      -0.542932       -14.7739 
   8   2.0000      -0.460478       -12.5303 
   9   2.0000      -0.431478       -11.7411 
  10   2.0000      -0.409562       -11.1447 
  11   2.0000      -0.371904       -10.1200 
  12   2.0000      -0.359645        -9.7864 
  13   2.0000      -0.323220        -8.7953 
  14   2.0000      -0.307330        -8.3629 
  15   2.0000      -0.201429        -5.4812 
  16   2.0000      -0.185637        -5.0514 
  17   0.0000       0.015690         0.4270 
  18   0.0000       0.046963         1.2779 
  19   0.0000       0.062223         1.6932 
  20   0.0000       0.063968         1.7407 
  21   0.0000       0.100227         2.7273 
  22   0.0000       0.107341         2.9209 
  23   0.0000       0.114950         3.1280 
  24   0.0000       0.128651         3.5008 
  25   0.0000       0.143632         3.9084 
  26   0.0000       0.166292         4.5250 
  27   0.0000       0.195691         5.3250 
  28   0.0000       0.224233         6.1017 
  29   0.0000       0.252516         6.8713 
  30   0.0000       0.268669         7.3109 
  31   0.0000       0.294904         8.0247 
  32   0.0000       0.309952         8.4342 
  33   0.0000       0.340990         9.2788 
  34   0.0000       0.349365         9.5067 
  35   0.0000       0.370734        10.0882 
  36   0.0000       0.382944        10.4204 
  37   0.0000       0.398874        10.8539 
  38   0.0000       0.411121        11.1872 
  39   0.0000       0.419494        11.4150 
  40   0.0000       0.423680        11.5289 
  41   0.0000       0.437693        11.9102 
  42   0.0000       0.455780        12.4024 
  43   0.0000       0.469866        12.7857 
  44   0.0000       0.492834        13.4107 
  45   0.0000       0.508789        13.8448 
  46   0.0000       0.512543        13.9470 
  47   0.0000       0.530919        14.4471 
  48   0.0000       0.555471        15.1151 
  49   0.0000       0.638285        17.3686 
  50   0.0000       0.653810        17.7911 
  51   0.0000       0.714938        19.4544 
  52   0.0000       1.246848        33.9285 
  53   0.0000       1.268134        34.5077 
  54   0.0000       1.295957        35.2648 
  55   0.0000       1.333533        36.2873 
  56   0.0000       1.363671        37.1074 
  57   0.0000       1.409531        38.3553 
  58   0.0000       1.422698        38.7136 
  59   0.0000       1.490226        40.5511 
  60   0.0000       1.506607        40.9969 
  61   0.0000       1.576565        42.9005 
  62   0.0000       1.670501        45.4567 
  63   0.0000       1.696450        46.1628 
  64   0.0000       1.732772        47.1511 
  65   0.0000       1.741059        47.3766 
  66   0.0000       1.751797        47.6688 
  67   0.0000       1.756996        47.8103 
  68   0.0000       1.772569        48.2341 
  69   0.0000       1.796278        48.8792 
  70   0.0000       1.825051        49.6622 
  71   0.0000       1.856410        50.5155 
  72   0.0000       1.860574        50.6288 
  73   0.0000       1.953310        53.1523 
  74   0.0000       1.968661        53.5700 
  75   0.0000       1.995751        54.3072 
  76   0.0000       2.005696        54.5778 
  77   0.0000       2.046039        55.6756 
  78   0.0000       2.073756        56.4298 
  79   0.0000       2.094716        57.0001 
  80   0.0000       2.202454        59.9318 
  81   0.0000       2.252440        61.2920 
  82   0.0000       2.269880        61.7666 
  83   0.0000       2.377851        64.7046 
  84   0.0000       2.442438        66.4621 
  85   0.0000       2.523965        68.6806 
  86   0.0000       2.555760        69.5458 
  87   0.0000       2.683399        73.0190 
  88   0.0000       2.687962        73.1432 
  89   0.0000       2.748614        74.7936 
  90   0.0000       2.790421        75.9312 
  91   0.0000       3.019498        82.1647 
  92   0.0000       3.055629        83.1479 
  93   0.0000       3.075589        83.6910 
  94   0.0000       3.309536        90.0570 
  95   0.0000       3.402876        92.5970 
  96   0.0000      21.559728       586.6700 
  97   0.0000      21.753285       591.9370 
  98   0.0000      31.456865       855.9848 
  99   0.0000      31.509742       857.4237 

                    ********************************
                    * MULLIKEN POPULATION ANALYSIS *
                    ********************************

-----------------------
MULLIKEN ATOMIC CHARGES
-----------------------
   0 C :   -0.294902
   1 C :   -0.236213
   2 N :   -0.619413
   3 N :   -0.685792
   4 H :    0.290443
   5 H :    0.311237
   6 H :    0.302433
   7 H :    0.307858
   8 H :    0.153012
   9 H :    0.136245
  10 H :    0.167140
  11 H :    0.167953
Sum of atomic charges:   -0.0000000

--------------------------------
MULLIKEN REDUCED ORBITAL CHARGES
--------------------------------
  0 C s       :     3.261403  s :     3.261403
      pz      :     0.948807  p :     2.977001
      px      :     0.948109
      py      :     1.080085
      dz2     :     0.013362  d :     0.056498
      dxz     :     0.007049
      dyz     :     0.013340
      dx2y2   :     0.007347
      dxy     :     0.015400
  1 C s       :     3.227007  s :     3.227007
      pz      :     1.127910  p :     2.953711
      px      :     0.908953
      py      :     0.916848
      dz2     :     0.008068  d :     0.055495
      dxz     :     0.005373
      dyz     :     0.018116
      dx2y2   :     0.011310
      dxy     :     0.012629
  2 N s       :     3.523723  s :     3.523723
      pz      :     1.133686  p :     4.058228
      px      :     1.687045
      py      :     1.237497
      dz2     :     0.007840  d :     0.037461
      dxz     :     0.004788
      dyz     :     0.011192
      dx2y2   :     0.002530
      dxy     :     0.011112
  3 N s       :     3.569453  s :     3.569453
      pz      :     1.529736  p :     4.079392
      px      :     1.220906
      py      :     1.328751
      dz2     :     0.009044  d :     0.036947
      dxz     :     0.002115
      dyz     :     0.008846
      dx2y2   :     0.008571
      dxy     :     0.008371
  4 H s       :     0.709557  s :     0.709557
  5 H s       :     0.688763  s :     0.688763
  6 H s       :     0.697567  s :     0.697567
  7 H s       :     0.692142  s :     0.692142
  8 H s       :     0.846988  s :     0.846988
  9 H s       :     0.863755  s :     0.863755
 10 H s       :     0.832860  s :     0.832860
 11 H s       :     0.832047  s :     0.832047


                     *******************************
                     * LOEWDIN POPULATION ANALYSIS *
                     *******************************

----------------------
LOEWDIN ATOMIC CHARGES
----------------------
   0 C :   -0.234896
   1 C :   -0.240020
   2 N :   -0.543437
   3 N :   -0.562951
   4 H :    0.252184
   5 H :    0.257547
   6 H :    0.254892
   7 H :    0.257005
   8 H :    0.141669
   9 H :    0.124058
  10 H :    0.144509
  11 H :    0.149440

-------------------------------
LOEWDIN REDUCED ORBITAL CHARGES
-------------------------------
  0 C s       :     2.935111  s :     2.935111
      pz      :     1.040970  p :     3.193611
      px      :     1.069985
      py      :     1.082656
      dz2     :     0.024740  d :     0.106174
      dxz     :     0.013447
      dyz     :     0.025320
      dx2y2   :     0.013903
      dxy     :     0.028764
  1 C s       :     2.947802  s :     2.947802
      pz      :     1.125770  p :     3.187360
      px      :     1.042086
      py      :     1.019505
      dz2     :     0.014750  d :     0.104858
      dxz     :     0.009346
      dyz     :     0.031338
      dx2y2   :     0.022596
      dxy     :     0.026827
  2 N s       :     3.286650  s :     3.286650
      pz      :     1.236961  p :     4.197363
      px      :     1.655012
      py      :     1.305389
      dz2     :     0.013627  d :     0.059425
      dxz     :     0.007764
      dyz     :     0.019105
      dx2y2   :     0.003727
      dxy     :     0.015201
  3 N s       :     3.288252  s :     3.288252
      pz      :     1.546394  p :     4.215901
      px      :     1.267641
      py      :     1.401866
      dz2     :     0.012148  d :     0.058798
      dxz     :     0.003932
      dyz     :     0.013594
      dx2y2   :     0.014604
      dxy     :     0.014519
  4 H s       :     0.747816  s :     0.747816
  5 H s       :     0.742453  s :     0.742453
  6 H s       :     0.745108  s :     0.745108
  7 H s       :     0.742995  s :     0.742995
  8 H s       :     0.858331  s :     0.858331
  9 H s       :     0.875942  s :     0.875942
 10 H s       :     0.855491  s :     0.855491
 11 H s       :     0.850560  s :     0.850560


                      *****************************
                      * MAYER POPULATION ANALYSIS *
                      *****************************

  NA   - Mulliken gross atomic population
  ZA   - Total nuclear charge
  QA   - Mulliken gross atomic charge
  VA   - Mayer's total valence
  BVA  - Mayer's bonded valence
  FA   - Mayer's free valence

  ATOM       NA         ZA         QA         VA         BVA        FA
  0 C      6.2949     6.0000    -0.2949     3.8182     3.8182    -0.0000
  1 C      6.2362     6.0000    -0.2362     3.7350     3.7350    -0.0000
  2 N      7.6194     7.0000    -0.6194     2.7408     2.7408    -0.0000
  3 N      7.6858     7.0000    -0.6858     2.7059     2.7059    -0.0000
  4 H      0.7096     1.0000     0.2904     0.8852     0.8852    -0.0000
  5 H      0.6888     1.0000     0.3112     0.8886     0.8886    -0.0000
  6 H      0.6976     1.0000     0.3024     0.8797     0.8797     0.0000
  7 H      0.6921     1.0000     0.3079     0.8766     0.8766    -0.0000
  8 H      0.8470     1.0000     0.1530     0.9421     0.9421     0.0000
  9 H      0.8638     1.0000     0.1362     0.9356     0.9356    -0.0000
 10 H      0.8329     1.0000     0.1671     0.9284     0.9284    -0.0000
 11 H      0.8320     1.0000     0.1680     0.9468     0.9468    -0.0000

  Mayer bond orders larger than 0.100000
B(  0-C ,  1-C ) :   0.9359 B(  0-C ,  2-N ) :   1.0317 B(  0-C , 10-H ) :   0.9513 
B(  0-C , 11-H ) :   0.9569 B(  1-C ,  3-N ) :   0.9756 B(  1-C ,  8-H ) :   0.9523 
B(  1-C ,  9-H ) :   0.9382 B(  2-N ,  4-H ) :   0.8811 B(  2-N ,  5-H ) :   0.8677 
B(  3-N ,  6-H ) :   0.8707 B(  3-N ,  7-H ) :   0.8743 

-------
TIMINGS
-------

Total SCF time: 0 days 0 hours 0 min 8 sec 

Total time                  ....       8.848 sec
Sum of individual times     ....       8.432 sec  ( 95.3%)

Fock matrix formation       ....       6.306 sec  ( 71.3%)
  Split-RI-J                ....       2.040 sec  ( 32.4% of F)
  XC integration            ....       2.816 sec  ( 44.7% of F)
    Basis function eval.    ....       0.192 sec  (  6.8% of XC)
    Density eval.           ....       0.234 sec  (  8.3% of XC)
    XC-Functional eval.     ....       0.273 sec  (  9.7% of XC)
    XC-Potential eval.      ....       0.122 sec  (  4.3% of XC)
Diagonalization             ....       0.243 sec  (  2.7%)
Density matrix formation    ....       0.019 sec  (  0.2%)
Population analysis         ....       0.035 sec  (  0.4%)
Initial guess               ....       0.005 sec  (  0.1%)
Orbital Transformation      ....       0.000 sec  (  0.0%)
Orbital Orthonormalization  ....       0.000 sec  (  0.0%)
DIIS solution               ....       0.163 sec  (  1.8%)
SOSCF solution              ....       0.061 sec  (  0.7%)
Grid generation             ....       1.601 sec  ( 18.1%)


-------------------------------------------------------------------------------
                          DFT DISPERSION CORRECTION                            
                                                                               
                              DFTD3 V3.1  Rev 1                                
                          USING Becke-Johnson damping                          
-------------------------------------------------------------------------------
The B97-3c composite method is recognized
Using three-body term ABC
Active option DFTDOPT                   ...         4   

molecular C6(AA) [au] = 926.603112 


            DFT-D V3
 parameters
 s6 scaling factor         :     1.0000 
 a1 scaling factor         :     0.3700 
 s8 scaling factor         :     1.5000 
 a2 scaling factor         :     4.1000 
 Damping factor alpha9(ATM):    16.0000 
 ad hoc parameters k1-k3   :    16.0000     1.3333    -4.0000 

 Edisp/kcal,au: -10.765383026714  -0.017155728038 
 E6   /kcal   :  -5.798460381 
 E8   /kcal   :  -4.974967422 
 E6(ABC)      :   0.008044776 
 % E8         :  46.212637393 
 % E6(ABC)    :  -0.074728190 

-------------------------   ----------------
Dispersion correction           -0.017155728
-------------------------   ----------------

------------------   -----------------
SRB correction            -0.028524130
------------------   -----------------

-------------------------   --------------------
FINAL SINGLE POINT ENERGY      -190.430013374355
-------------------------   --------------------



           ************************************************************
           *        Program running with 32 parallel MPI-processes    *
           *              working on a common directory               *
           ************************************************************
------------------------------------------------------------------------------
                         ORCA SCF GRADIENT CALCULATION
------------------------------------------------------------------------------

Gradient of the Kohn-Sham DFT energy:
Kohn-Sham wavefunction type      ... RKS
Hartree-Fock exchange scaling    ...    0.000
Number of operators              ...    1
Number of atoms                  ...   12
Basis set dimensions             ...  100
Integral neglect threshold       ... 2.5e-11
Integral primitive cutoff        ... 2.5e-12

Nuclear repulsion gradient       ... done
One Electron Gradient            ... done
Pre-screening matrix             ... done
RI-J gradient                    ... done
Exchange-correlation gradient    ... done
Dispersion correction            ... done
SRB correction                   ... done

------------------
CARTESIAN GRADIENT
------------------

   1   C   :   -0.006361603    0.003086283    0.006643864
   2   C   :    0.004069091   -0.000805280   -0.005015794
   3   N   :    0.005195064   -0.004047295    0.001786164
   4   N   :   -0.003165638   -0.002987473    0.000851597
   5   H   :   -0.001329358   -0.002344727   -0.001527917
   6   H   :    0.000828503    0.003965614    0.002059072
   7   H   :   -0.002493509    0.002529894    0.001093371
   8   H   :    0.001906888   -0.002159619   -0.001659301
   9   H   :    0.001140553    0.000506988   -0.002455551
  10   H   :    0.000814288    0.000791800    0.001869549
  11   H   :    0.000655359    0.003141514   -0.001044295
  12   H   :   -0.001259638   -0.001677700   -0.002600759

Difference to translation invariance:
           :   -0.0000000000   -0.0000000000   -0.0000000000

Norm of the cartesian gradient     ...    0.0171107377
RMS gradient                       ...    0.0028517896
MAX gradient                       ...    0.0066438643

-------
TIMINGS
-------

Total SCF gradient time            ...        0.449 sec

One electron gradient       ....       0.003 sec  (  0.7%)
Prescreening matrices       ....       0.005 sec  (  1.0%)
RI-J Coulomb gradient       ....       0.090 sec  ( 20.1%)
XC gradient                 ....       0.190 sec  ( 42.3%)
------------------------------------------------------------------------------
                         ORCA GEOMETRY RELAXATION STEP
------------------------------------------------------------------------------

Reading the OPT-File                    ....done
Number of atoms                         ....  12
Number of degrees of freedom            ....  36
Current Energy                          ....  -190.430013374 Eh
Current gradient norm                   ....     0.017110738 Eh/bohr
# of structures/gradients available     ....   1
# of structures/gradients to be used    ....   1
First structure used                    ....   0
Maximum allowed component of the step   ....  0.300
Transforming the gradients              ....done
Building the approximate hessian        ....(skipped:first point)done
Eigenvalues of the approximate hessian:
  1.000000  1.000000  1.000000  1.000000  1.000000  1.000000
  1.000000  1.000000  1.000000  1.000000  1.000000  1.000000
  1.000000  1.000000  1.000000  1.000000  1.000000  1.000000
  1.000000  1.000000  1.000000  1.000000  1.000000  1.000000
  1.000000  1.000000  1.000000  1.000000  1.000000  1.000000
 1000.000000 1000.000000 1000.000000 1000.000000 1000.000000 1000.000000

computing the step                      ....done

The length of the step is               ....     0.016910
Storing new coordinates                 ....done
The predicted energy change is          ....    -0.000142972

                                .--------------------.
          ----------------------|Geometry convergence|-------------------------
          Item                value                   Tolerance       Converged
          ---------------------------------------------------------------------
          RMS gradient        0.0028517896            0.0001000000      NO
          MAX gradient        0.0066438643            0.0003000000      NO
          RMS step            0.0028183179            0.0020000000      NO
          MAX step            0.0064693989            0.0040000000      NO
          -------------------------------------------------------------------------

The optimization has not yet converged - more geometry cycles are needed


         *************************************************************
         *                GEOMETRY OPTIMIZATION CYCLE   2            *
         *************************************************************
---------------------------------
CARTESIAN COORDINATES (ANGSTROEM)
---------------------------------
  C     -0.737277    0.985207    0.491222
  C      0.677680    0.453849    0.252950
  N     -1.252601    1.829428   -0.571637
  N      1.588927    1.576712    0.056951
  H     -1.306283    1.293135   -1.431410
  H     -0.585832    2.576186   -0.735887
  H      1.629706    2.135603    0.902104
  H      2.524280    1.247621   -0.140868
  H      0.691599   -0.140632   -0.668199
  H      0.964874   -0.207646    1.085197
  H     -0.746152    1.580988    1.413192
  H     -1.423842    0.145844    0.631496

----------------------------
CARTESIAN COORDINATES (A.U.)
----------------------------
  NO LB      ZA    FRAG     MASS         X           Y           Z
   0 C     6.0000    0    12.011   -1.393251    1.861772    0.928276
   1 C     6.0000    0    12.011    1.280630    0.857650    0.478006
   2 N     7.0000    0    14.007   -2.367072    3.457117   -1.080237
   3 N     7.0000    0    14.007    3.002636    2.979553    0.107622
   4 H     1.0000    0     1.008   -2.468517    2.443671   -2.704973
   5 H     1.0000    0     1.008   -1.107063    4.868287   -1.390625
   6 H     1.0000    0     1.008    3.079698    4.035705    1.704729
   7 H     1.0000    0     1.008    4.770197    2.357661   -0.266203
   8 H     1.0000    0     1.008    1.306932   -0.265757   -1.262714
   9 H     1.0000    0     1.008    1.823347   -0.392393    2.050726
  10 H     1.0000    0     1.008   -1.410022    2.987634    2.670547
  11 H     1.0000    0     1.008   -2.690672    0.275604    1.193355

--------------------------------
INTERNAL COORDINATES (ANGSTROEM)
--------------------------------
 C      0   0   0     0.000000000000     0.00000000     0.00000000
 C      1   0   0     1.530104109297     0.00000000     0.00000000
 N      1   2   0     1.451873383850   114.59205144     0.00000000
 N      2   1   3     1.459316830330   109.33874002    57.42800029
 H      3   1   2     1.014742087152   109.37391944    61.85696031
 H      3   1   2     1.014498312370   108.25554370   306.01350146
 H      4   2   1     1.014054365949   109.70936097    63.54914972
 H      4   2   1     1.011097989818   110.70120064   182.36491216
 H      2   1   3     1.096411129422   109.32107640   300.30166051
 H      2   1   3     1.101222537747   109.39525886   182.45336777
 H      1   2   3     1.097753199677   109.07079631   239.79457176
 H      1   2   3     1.093426205836   109.51466278   122.17785819

---------------------------
INTERNAL COORDINATES (A.U.)
---------------------------
 C      0   0   0     0.000000000000     0.00000000     0.00000000
 C      1   0   0     2.891477722960     0.00000000     0.00000000
 N      1   2   0     2.743643076605   114.59205144     0.00000000
 N      2   1   3     2.757709151946   109.33874002    57.42800029
 H      3   1   2     1.917584641280   109.37391944    61.85696031
 H      3   1   2     1.917123973705   108.25554370   306.01350146
 H      4   2   1     1.916285036551   109.70936097    63.54914972
 H      4   2   1     1.910698295314   110.70120064   182.36491216
 H      2   1   3     2.071916764792   109.32107640   300.30166051
 H      2   1   3     2.081009008843   109.39525886   182.45336777
 H      1   2   3     2.074452910025   109.07079631   239.79457176
 H      1   2   3     2.066276076682   109.51466278   122.17785819



           ************************************************************
           *        Program running with 32 parallel MPI-processes    *
           *              working on a common directory               *
           ************************************************************
 One Electron integrals                  ... done
 Pre-screening matrix                    ... done


           ************************************************************
           *        Program running with 32 parallel MPI-processes    *
           *              working on a common directory               *
           ************************************************************

Diagonalization of the overlap matrix:
Smallest eigenvalue                        ... 4.392e-04
Time for diagonalization                   ...    0.002 sec
Threshold for overlap eigenvalues          ... 1.000e-08
Number of eigenvalues below threshold      ... 0
Time for construction of square roots      ...    0.008 sec
Total time needed                          ...    0.010 sec

-------------------
DFT GRID GENERATION
-------------------

General Integration Accuracy     IntAcc      ...  5.340
Radial Grid Type                 RadialGrid  ... Gauss-Chebyshev
Angular Grid (max. acc.)         AngularGrid ... Lebedev-590
Angular grid pruning method      GridPruning ... 3 (G Style)
Weight generation scheme         WeightScheme... Becke
Basis function cutoff            BFCut       ...    1.0000e-11
Integration weight cutoff        WCut        ...    1.0000e-14
Grids for H and He will be reduced by one unit

# of grid points (after initial pruning)     ... 153880 (   0.0 sec)
# of grid points (after weights+screening)   ... 142224 (   0.1 sec)
nearest neighbour list constructed           ...    0.0 sec
Grid point re-assignment to atoms done       ...    0.0 sec
Grid point division into batches done        ...    1.5 sec
Reduced shell lists constructed in    1.5 sec

Total number of grid points                  ...   142224
Total number of batches                      ...     2229
Average number of points per batch           ...       63
Average number of grid points per atom       ...    11852
Average number of shells per batch           ...    52.63 (87.72%)
Average number of basis functions per batch  ...    91.68 (91.68%)
Average number of large shells per batch     ...    47.48 (90.21%)
Average number of large basis fcns per batch ...    84.04 (91.67%)
Maximum spatial batch extension              ...   1.28,  1.24,  1.35 au
Average spatial batch extension              ...   0.03,  0.03,  0.03 au

Time for grid setup =    1.603 sec

--------------
SCF ITERATIONS
--------------
ITER       Energy         Delta-E        Max-DP      RMS-DP      [F,P]     Damp
               ***  Starting incremental Fock matrix formation  ***
                      *** Initiating the SOSCF procedure ***
                      *** Re-Reading the Fockian *** 
                      *** Removing any level shift *** 
ITER      Energy       Delta-E        Grad      Rot      Max-DP    RMS-DP
  0   -190.38445115 -190.3844511514  0.000746  0.000746  0.002088  0.000111
               *** Restarting incremental Fock matrix formation ***
  1   -190.38449024  -0.0000390873  0.000195  0.000479  0.001025  0.000059
  2   -190.38449136  -0.0000011204  0.000173  0.000263  0.000358  0.000030
  3   -190.38449293  -0.0000015718  0.000066  0.000140  0.000247  0.000017
  4   -190.38449316  -0.0000002301  0.000031  0.000037  0.000128  0.000005
  5   -190.38449318  -0.0000000225  0.000022  0.000025  0.000060  0.000004
  6   -190.38449320  -0.0000000186  0.000005  0.000011  0.000053  0.000002
                  ***Gradient check signals convergence***
              ***Rediagonalizing the Fockian in SOSCF/NRSCF***

               *****************************************************
               *                     SUCCESS                       *
               *           SCF CONVERGED AFTER   7 CYCLES          *
               *****************************************************

Total Energy       :         -190.38449320 Eh           -5180.62544 eV
  Last Energy change         ...   -1.1289e-09  Tolerance :   1.0000e-08
  Last MAX-Density change    ...    1.9189e-05  Tolerance :   1.0000e-07
             **** THE GBW FILE WAS UPDATED (_o_ami4_opt_B97-3c.gbw) ****
             **** DENSITY FILE WAS UPDATED (_o_ami4_opt_B97-3c.scfp) ****
             **** ENERGY FILE WAS UPDATED (_o_ami4_opt_B97-3c.en.tmp) ****
             **** THE GBW FILE WAS UPDATED (_o_ami4_opt_B97-3c.gbw) ****
             **** DENSITY FILE WAS UPDATED (_o_ami4_opt_B97-3c.scfp) ****
Total SCF time: 0 days 0 hours 0 min 4 sec 


-------------------------------------------------------------------------------
                          DFT DISPERSION CORRECTION                            
                                                                               
                              DFTD3 V3.1  Rev 1                                
                          USING Becke-Johnson damping                          
-------------------------------------------------------------------------------
-------------------------   ----------------
Dispersion correction           -0.017154363
-------------------------   ----------------

------------------   -----------------
SRB correction            -0.028585865
------------------   -----------------

-------------------------   --------------------
FINAL SINGLE POINT ENERGY      -190.430233430630
-------------------------   --------------------



           ************************************************************
           *        Program running with 32 parallel MPI-processes    *
           *              working on a common directory               *
           ************************************************************
------------------------------------------------------------------------------
                         ORCA SCF GRADIENT CALCULATION
------------------------------------------------------------------------------

Gradient of the Kohn-Sham DFT energy:
Kohn-Sham wavefunction type      ... RKS
Hartree-Fock exchange scaling    ...    0.000
Number of operators              ...    1
Number of atoms                  ...   12
Basis set dimensions             ...  100
Integral neglect threshold       ... 2.5e-11
Integral primitive cutoff        ... 2.5e-12

Nuclear repulsion gradient       ... done
One Electron Gradient            ... done
Pre-screening matrix             ... done
RI-J gradient                    ... done
Exchange-correlation gradient    ... done
Dispersion correction            ... done
SRB correction                   ... done

------------------
CARTESIAN GRADIENT
------------------

   1   C   :   -0.002779858    0.000468084    0.003175801
   2   C   :    0.001030889   -0.001155049   -0.000990153
   3   N   :    0.004266199   -0.002264565    0.000534860
   4   N   :    0.000212371   -0.001983908    0.000534742
   5   H   :   -0.000963117   -0.001942106   -0.000533112
   6   H   :    0.000177846    0.002798787    0.002174325
   7   H   :   -0.002596448    0.001629605    0.000172374
   8   H   :   -0.000086511   -0.001163840   -0.001161685
   9   H   :    0.001012547    0.000173436   -0.003071861
  10   H   :    0.000785794    0.001078037    0.000800148
  11   H   :    0.000421914    0.003826847    0.000466329
  12   H   :   -0.001481625   -0.001465329   -0.002101768

Difference to translation invariance:
           :   -0.0000000000   -0.0000000000    0.0000000000

Norm of the cartesian gradient     ...    0.0107572072
RMS gradient                       ...    0.0017928679
MAX gradient                       ...    0.0042661987

-------
TIMINGS
-------

Total SCF gradient time            ...        0.457 sec

One electron gradient       ....       0.002 sec  (  0.5%)
Prescreening matrices       ....       0.005 sec  (  1.0%)
RI-J Coulomb gradient       ....       0.093 sec  ( 20.4%)
XC gradient                 ....       0.194 sec  ( 42.5%)
------------------------------------------------------------------------------
                         ORCA GEOMETRY RELAXATION STEP
------------------------------------------------------------------------------

Reading the OPT-File                    ....done
Number of atoms                         ....  12
Number of degrees of freedom            ....  36
Current Energy                          ....  -190.430233431 Eh
Current gradient norm                   ....     0.010757207 Eh/bohr
# of structures/gradients available     ....   2
# of structures/gradients to be used    ....   2
First structure used                    ....   0
Maximum allowed component of the step   ....  0.300
Transforming the gradients              ....done
Building the approximate hessian        ....(BFGS)done
Eigenvalues of the approximate hessian:
  0.352153  1.000000  1.000000  1.000000  1.000000  1.000000
  1.000000  1.000000  1.000000  1.000000  1.000000  1.000000
  1.000000  1.000000  1.000000  1.000000  1.000000  1.000000
  1.000000  1.000000  1.000000  1.000000  1.000000  1.000000
  1.000000  1.000000  1.000000  1.000000  1.000000  1.310613
 1000.000000 1000.000000 1000.000000 1000.000000 1000.000000 1000.000000

computing the step                      ....done

The length of the step is               ....     0.029311
Storing new coordinates                 ....done
The predicted energy change is          ....    -0.000152150
Previously predicted energy change      ....    -0.000142972
Actually observed energy change         ....    -0.000220056
Ratio of predicted to observed change   ....     1.539151236

                                .--------------------.
          ----------------------|Geometry convergence|-------------------------
          Item                value                   Tolerance       Converged
          ---------------------------------------------------------------------
          Energy change      -0.0002200563            0.0000050000      NO
          RMS gradient        0.0017928679            0.0001000000      NO
          MAX gradient        0.0042661987            0.0003000000      NO
          RMS step            0.0048851453            0.0020000000      NO
          MAX step            0.0099850174            0.0040000000      NO
          -------------------------------------------------------------------------

The optimization has not yet converged - more geometry cycles are needed


         *************************************************************
         *                GEOMETRY OPTIMIZATION CYCLE   3            *
         *************************************************************
---------------------------------
CARTESIAN COORDINATES (ANGSTROEM)
---------------------------------
  C     -0.732170    0.983433    0.486899
  C      0.675759    0.454118    0.256195
  N     -1.257885    1.832195   -0.572055
  N      1.590148    1.577824    0.056639
  H     -1.304742    1.295610   -1.430223
  H     -0.585919    2.571755   -0.738788
  H      1.633544    2.132743    0.901725
  H      2.524090    1.248815   -0.139003
  H      0.690138   -0.141411   -0.663769
  H      0.963776   -0.209368    1.084192
  H     -0.746561    1.575826    1.413079
  H     -1.421827    0.147861    0.634859

----------------------------
CARTESIAN COORDINATES (A.U.)
----------------------------
  NO LB      ZA    FRAG     MASS         X           Y           Z
   0 C     6.0000    0    12.011   -1.383600    1.858420    0.920105
   1 C     6.0000    0    12.011    1.276999    0.858160    0.484138
   2 N     7.0000    0    14.007   -2.377057    3.462346   -1.081027
   3 N     7.0000    0    14.007    3.004943    2.981655    0.107032
   4 H     1.0000    0     1.008   -2.465605    2.448348   -2.702729
   5 H     1.0000    0     1.008   -1.107226    4.859912   -1.396107
   6 H     1.0000    0     1.008    3.086951    4.030300    1.704013
   7 H     1.0000    0     1.008    4.769839    2.359919   -0.262678
   8 H     1.0000    0     1.008    1.304172   -0.267228   -1.254342
   9 H     1.0000    0     1.008    1.821272   -0.395648    2.048826
  10 H     1.0000    0     1.008   -1.410797    2.977880    2.670332
  11 H     1.0000    0     1.008   -2.686863    0.279417    1.199710

--------------------------------
INTERNAL COORDINATES (ANGSTROEM)
--------------------------------
 C      0   0   0     0.000000000000     0.00000000     0.00000000
 C      1   0   0     1.521729578360     0.00000000     0.00000000
 N      1   2   0     1.455387926150   115.26147745     0.00000000
 N      2   1   3     1.462410084426   109.38497422    57.11539175
 H      3   1   2     1.013198340881   108.91287334    61.50568714
 H      3   1   2     1.013058231178   107.81206765   306.75770195
 H      4   2   1     1.011923122154   109.52554329    64.08058590
 H      4   2   1     1.009341657062   110.76495952   182.50174883
 H      2   1   3     1.095990752657   109.17172711   300.16754914
 H      2   1   3     1.099430598522   109.76205082   182.56651004
 H      1   2   3     1.099520850909   109.10022066   239.50961804
 H      1   2   3     1.093480683607   109.77028500   122.76707898

---------------------------
INTERNAL COORDINATES (A.U.)
---------------------------
 C      0   0   0     0.000000000000     0.00000000     0.00000000
 C      1   0   0     2.875652152987     0.00000000     0.00000000
 N      1   2   0     2.750284599040   115.26147745     0.00000000
 N      2   1   3     2.763554555050   109.38497422    57.11539175
 H      3   1   2     1.914667383609   108.91287334    61.50568714
 H      3   1   2     1.914402614641   107.81206765   306.75770195
 H      4   2   1     1.912257569454   109.52554329    64.08058590
 H      4   2   1     1.907379307406   110.76495952   182.50174883
 H      2   1   3     2.071122367832   109.17172711   300.16754914
 H      2   1   3     2.077622734459   109.76205082   182.56651004
 H      1   2   3     2.077793286754   109.10022066   239.50961804
 H      1   2   3     2.066379024750   109.77028500   122.76707898



           ************************************************************
           *        Program running with 32 parallel MPI-processes    *
           *              working on a common directory               *
           ************************************************************
 One Electron integrals                  ... done
 Pre-screening matrix                    ... done


           ************************************************************
           *        Program running with 32 parallel MPI-processes    *
           *              working on a common directory               *
           ************************************************************

Diagonalization of the overlap matrix:
Smallest eigenvalue                        ... 4.358e-04
Time for diagonalization                   ...    0.002 sec
Threshold for overlap eigenvalues          ... 1.000e-08
Number of eigenvalues below threshold      ... 0
Time for construction of square roots      ...    0.008 sec
Total time needed                          ...    0.010 sec

-------------------
DFT GRID GENERATION
-------------------

General Integration Accuracy     IntAcc      ...  5.340
Radial Grid Type                 RadialGrid  ... Gauss-Chebyshev
Angular Grid (max. acc.)         AngularGrid ... Lebedev-590
Angular grid pruning method      GridPruning ... 3 (G Style)
Weight generation scheme         WeightScheme... Becke
Basis function cutoff            BFCut       ...    1.0000e-11
Integration weight cutoff        WCut        ...    1.0000e-14
Grids for H and He will be reduced by one unit

# of grid points (after initial pruning)     ... 153880 (   0.0 sec)
# of grid points (after weights+screening)   ... 142232 (   0.0 sec)
nearest neighbour list constructed           ...    0.0 sec
Grid point re-assignment to atoms done       ...    0.0 sec
Grid point division into batches done        ...    1.5 sec
Reduced shell lists constructed in    1.5 sec

Total number of grid points                  ...   142232
Total number of batches                      ...     2228
Average number of points per batch           ...       63
Average number of grid points per atom       ...    11853
Average number of shells per batch           ...    52.72 (87.86%)
Average number of basis functions per batch  ...    91.82 (91.82%)
Average number of large shells per batch     ...    47.68 (90.44%)
Average number of large basis fcns per batch ...    84.41 (91.93%)
Maximum spatial batch extension              ...   1.28,  1.24,  1.32 au
Average spatial batch extension              ...   0.03,  0.03,  0.03 au

Time for grid setup =    1.593 sec

--------------
SCF ITERATIONS
--------------
ITER       Energy         Delta-E        Max-DP      RMS-DP      [F,P]     Damp
               ***  Starting incremental Fock matrix formation  ***
  0   -190.3845091292   0.000000000000 0.00058977  0.00002512  0.0019731 0.8500
                      *** Initiating the SOSCF procedure ***
                      *** Re-Reading the Fockian *** 
                      *** Removing any level shift *** 
ITER      Energy       Delta-E        Grad      Rot      Max-DP    RMS-DP
  1   -190.38451973  -0.0000105959  0.000219  0.000219  0.004625  0.000189
               *** Restarting incremental Fock matrix formation ***
  2   -190.38457778  -0.0000580528  0.000216  0.000481  0.001591  0.000074
  3   -190.38457425   0.0000035291  0.000332  0.000229  0.000614  0.000038
  4   -190.38458052  -0.0000062727  0.000044  0.000065  0.000246  0.000010
  5   -190.38458050   0.0000000195  0.000049  0.000036  0.000118  0.000004
  6   -190.38458057  -0.0000000708  0.000006  0.000013  0.000074  0.000003
  7   -190.38458057   0.0000000000  0.000005  0.000005  0.000036  0.000001
                  ***Gradient check signals convergence***
              ***Rediagonalizing the Fockian in SOSCF/NRSCF***

               *****************************************************
               *                     SUCCESS                       *
               *           SCF CONVERGED AFTER   8 CYCLES          *
               *****************************************************

Total Energy       :         -190.38458057 Eh           -5180.62782 eV
  Last Energy change         ...   -1.5837e-09  Tolerance :   1.0000e-08
  Last MAX-Density change    ...    4.5208e-06  Tolerance :   1.0000e-07
             **** THE GBW FILE WAS UPDATED (_o_ami4_opt_B97-3c.gbw) ****
             **** DENSITY FILE WAS UPDATED (_o_ami4_opt_B97-3c.scfp) ****
             **** ENERGY FILE WAS UPDATED (_o_ami4_opt_B97-3c.en.tmp) ****
             **** THE GBW FILE WAS UPDATED (_o_ami4_opt_B97-3c.gbw) ****
             **** DENSITY FILE WAS UPDATED (_o_ami4_opt_B97-3c.scfp) ****
Total SCF time: 0 days 0 hours 0 min 4 sec 


-------------------------------------------------------------------------------
                          DFT DISPERSION CORRECTION                            
                                                                               
                              DFTD3 V3.1  Rev 1                                
                          USING Becke-Johnson damping                          
-------------------------------------------------------------------------------
-------------------------   ----------------
Dispersion correction           -0.017153029
-------------------------   ----------------

------------------   -----------------
SRB correction            -0.028696457
------------------   -----------------

-------------------------   --------------------
FINAL SINGLE POINT ENERGY      -190.430430060489
-------------------------   --------------------



           ************************************************************
           *        Program running with 32 parallel MPI-processes    *
           *              working on a common directory               *
           ************************************************************
------------------------------------------------------------------------------
                         ORCA SCF GRADIENT CALCULATION
------------------------------------------------------------------------------

Gradient of the Kohn-Sham DFT energy:
Kohn-Sham wavefunction type      ... RKS
Hartree-Fock exchange scaling    ...    0.000
Number of operators              ...    1
Number of atoms                  ...   12
Basis set dimensions             ...  100
Integral neglect threshold       ... 2.5e-11
Integral primitive cutoff        ... 2.5e-12

Nuclear repulsion gradient       ... done
One Electron Gradient            ... done
Pre-screening matrix             ... done
RI-J gradient                    ... done
Exchange-correlation gradient    ... done
Dispersion correction            ... done
SRB correction                   ... done

------------------
CARTESIAN GRADIENT
------------------

   1   C   :    0.002326028   -0.001868310   -0.000681378
   2   C   :   -0.002110564   -0.001487789    0.002486809
   3   N   :    0.002297058   -0.000261702   -0.001152994
   4   N   :    0.002121735   -0.000581723    0.000748842
   5   H   :   -0.000225363   -0.000986627    0.000961143
   6   H   :   -0.000494555    0.001093529    0.002094877
   7   H   :   -0.002328758    0.000351011   -0.001284665
   8   H   :   -0.001329079   -0.000257103   -0.000524267
   9   H   :    0.000637414    0.000282772   -0.002533035
  10   H   :    0.000787964    0.001040208   -0.000316534
  11   H   :   -0.000003680    0.003622985    0.001426274
  12   H   :   -0.001678201   -0.000947251   -0.001225071

Difference to translation invariance:
           :   -0.0000000000   -0.0000000000   -0.0000000000

Norm of the cartesian gradient     ...    0.0089696238
RMS gradient                       ...    0.0014949373
MAX gradient                       ...    0.0036229852

-------
TIMINGS
-------

Total SCF gradient time            ...        0.465 sec

One electron gradient       ....       0.002 sec  (  0.5%)
Prescreening matrices       ....       0.005 sec  (  1.0%)
RI-J Coulomb gradient       ....       0.092 sec  ( 19.9%)
XC gradient                 ....       0.201 sec  ( 43.2%)
------------------------------------------------------------------------------
                         ORCA GEOMETRY RELAXATION STEP
------------------------------------------------------------------------------

Reading the OPT-File                    ....done
Number of atoms                         ....  12
Number of degrees of freedom            ....  36
Current Energy                          ....  -190.430430060 Eh
Current gradient norm                   ....     0.008969624 Eh/bohr
# of structures/gradients available     ....   3
# of structures/gradients to be used    ....   3
First structure used                    ....   0
Maximum allowed component of the step   ....  0.300
Transforming the gradients              ....done
Building the approximate hessian        ....(BFGS)done
Eigenvalues of the approximate hessian:
  0.209079  1.000000  1.000000  1.000000  1.000000  1.000000
  1.000000  1.000000  1.000000  1.000000  1.000000  1.000000
  1.000000  1.000000  1.000000  1.000000  1.000000  1.000000
  1.000000  1.000000  1.000000  1.000000  1.000000  1.000000
  1.000000  1.000000  1.000000  1.000000  1.016797  1.539850
 1000.000000 1000.000000 1000.000000 1000.000000 1000.000000 1000.000000

computing the step                      ....done

The length of the step is               ....     0.021556
Storing new coordinates                 ....done
The predicted energy change is          ....    -0.000063699
Previously predicted energy change      ....    -0.000152150
Actually observed energy change         ....    -0.000196630
Ratio of predicted to observed change   ....     1.292338504

                                .--------------------.
          ----------------------|Geometry convergence|-------------------------
          Item                value                   Tolerance       Converged
          ---------------------------------------------------------------------
          Energy change      -0.0001966299            0.0000050000      NO
          RMS gradient        0.0014949373            0.0001000000      NO
          MAX gradient        0.0036229852            0.0003000000      NO
          RMS step            0.0035926173            0.0020000000      NO
          MAX step            0.0094065141            0.0040000000      NO
          -------------------------------------------------------------------------

The optimization has not yet converged - more geometry cycles are needed


         *************************************************************
         *                GEOMETRY OPTIMIZATION CYCLE   4            *
         *************************************************************
---------------------------------
CARTESIAN COORDINATES (ANGSTROEM)
---------------------------------
  C     -0.730534    0.983245    0.484711
  C      0.676098    0.454760    0.257112
  N     -1.261452    1.833669   -0.571950
  N      1.590354    1.578201    0.056428
  H     -1.303539    1.297435   -1.430252
  H     -0.585461    2.568516   -0.741740
  H      1.637148    2.130810    0.902448
  H      2.524741    1.249495   -0.137411
  H      0.689077   -0.142248   -0.659785
  H      0.962652   -0.211008    1.083940
  H     -0.746752    1.570848    1.412233
  H     -1.419655    0.149517    0.637418

----------------------------
CARTESIAN COORDINATES (A.U.)
----------------------------
  NO LB      ZA    FRAG     MASS         X           Y           Z
   0 C     6.0000    0    12.011   -1.380509    1.858064    0.915971
   1 C     6.0000    0    12.011    1.277640    0.859373    0.485871
   2 N     7.0000    0    14.007   -2.383799    3.465131   -1.080828
   3 N     7.0000    0    14.007    3.005334    2.982367    0.106634
   4 H     1.0000    0     1.008   -2.463331    2.451797   -2.702784
   5 H     1.0000    0     1.008   -1.106361    4.853792   -1.401686
   6 H     1.0000    0     1.008    3.093760    4.026647    1.705380
   7 H     1.0000    0     1.008    4.771070    2.361203   -0.259670
   8 H     1.0000    0     1.008    1.302168   -0.268809   -1.246814
   9 H     1.0000    0     1.008    1.819149   -0.398748    2.048349
  10 H     1.0000    0     1.008   -1.411158    2.968473    2.668733
  11 H     1.0000    0     1.008   -2.682759    0.282547    1.204546

--------------------------------
INTERNAL COORDINATES (ANGSTROEM)
--------------------------------
 C      0   0   0     0.000000000000     0.00000000     0.00000000
 C      1   0   0     1.519773371455     0.00000000     0.00000000
 N      1   2   0     1.456580137975   115.57849596     0.00000000
 N      2   1   3     1.462277669311   109.39465070    56.98280702
 H      3   1   2     1.012916314791   108.70913371    61.24245644
 H      3   1   2     1.012814697685   107.57461791   307.28599837
[...]

# of grid points (after initial pruning)     ... 153880 (   0.0 sec)
# of grid points (after weights+screening)   ... 142366 (   0.0 sec)
nearest neighbour list constructed           ...    0.0 sec
Grid point re-assignment to atoms done       ...    0.0 sec
Grid point division into batches done        ...    1.5 sec
Reduced shell lists constructed in    1.5 sec

Total number of grid points                  ...   142366
Total number of batches                      ...     2234
Average number of points per batch           ...       63
Average number of grid points per atom       ...    11864
Average number of shells per batch           ...    52.46 (87.44%)
Average number of basis functions per batch  ...    91.42 (91.42%)
Average number of large shells per batch     ...    47.44 (90.42%)
Average number of large basis fcns per batch ...    84.03 (91.91%)
Maximum spatial batch extension              ...   1.30,  1.28,  1.12 au
Average spatial batch extension              ...   0.03,  0.03,  0.03 au

Time for grid setup =    1.606 sec

--------------
SCF ITERATIONS
--------------
ITER       Energy         Delta-E        Max-DP      RMS-DP      [F,P]     Damp
               ***  Starting incremental Fock matrix formation  ***
                      *** Initiating the SOSCF procedure ***
                      *** Re-Reading the Fockian *** 
                      *** Removing any level shift *** 
ITER      Energy       Delta-E        Grad      Rot      Max-DP    RMS-DP
  0   -190.38534108 -190.3853410804  0.000093  0.000093  0.000356  0.000015
               *** Restarting incremental Fock matrix formation ***
  1   -190.38534151  -0.0000004280  0.000030  0.000059  0.000128  0.000008
  2   -190.38534148   0.0000000269  0.000042  0.000033  0.000060  0.000004
  3   -190.38534156  -0.0000000799  0.000005  0.000012  0.000027  0.000001
  4   -190.38534156   0.0000000009  0.000004  0.000003  0.000016  0.000001
                  ***Gradient check signals convergence***
              ***Rediagonalizing the Fockian in SOSCF/NRSCF***

               *****************************************************
               *                     SUCCESS                       *
               *           SCF CONVERGED AFTER   5 CYCLES          *
               *****************************************************


----------------
TOTAL SCF ENERGY
----------------

Total Energy       :         -190.38534156 Eh           -5180.64852 eV

Components:
Nuclear Repulsion  :          134.61245610 Eh            3662.99115 eV
Electronic Energy  :         -324.99779766 Eh           -8843.63968 eV
One Electron Energy:         -523.25498972 Eh          -14238.49214 eV
Two Electron Energy:          198.25719206 Eh            5394.85247 eV

Virial components:
Potential Energy   :         -380.03885901 Eh          -10341.38310 eV
Kinetic Energy     :          189.65351745 Eh            5160.73458 eV
Virial Ratio       :            2.00385874


DFT components:
N(Alpha)           :       17.000001800327 electrons
N(Beta)            :       17.000001800327 electrons
N(Total)           :       34.000003600654 electrons
E(XC)              :      -27.542755494083 Eh       
DFET-embed. en.    :        0.000000000000 Eh       

---------------
SCF CONVERGENCE
---------------

  Last Energy change         ...   -8.0135e-10  Tolerance :   1.0000e-08
  Last MAX-Density change    ...    4.0760e-06  Tolerance :   1.0000e-07
  Last RMS-Density change    ...    3.0055e-07  Tolerance :   5.0000e-09
  Last Orbital Gradient      ...    1.1752e-06  Tolerance :   1.0000e-05
  Last Orbital Rotation      ...    2.0186e-06  Tolerance :   1.0000e-05

             **** THE GBW FILE WAS UPDATED (_o_ami4_opt_B97-3c.gbw) ****
             **** DENSITY FILE WAS UPDATED (_o_ami4_opt_B97-3c.scfp) ****
             **** ENERGY FILE WAS UPDATED (_o_ami4_opt_B97-3c.en.tmp) ****
             **** THE GBW FILE WAS UPDATED (_o_ami4_opt_B97-3c.gbw) ****
             **** DENSITY FILE WAS UPDATED (_o_ami4_opt_B97-3c.scfp) ****
----------------
ORBITAL ENERGIES
----------------

  NO   OCC          E(Eh)            E(eV) 
   0   2.0000     -13.971716      -380.1897 
   1   2.0000     -13.952645      -379.6708 
   2   2.0000      -9.910055      -269.6663 
   3   2.0000      -9.903712      -269.4937 
   4   2.0000      -0.823498       -22.4085 
   5   2.0000      -0.787982       -21.4421 
   6   2.0000      -0.640659       -17.4332 
   7   2.0000      -0.542327       -14.7575 
   8   2.0000      -0.458541       -12.4775 
   9   2.0000      -0.433276       -11.7900 
  10   2.0000      -0.405357       -11.0303 
  11   2.0000      -0.373865       -10.1734 
  12   2.0000      -0.363144        -9.8817 
  13   2.0000      -0.319608        -8.6970 
  14   2.0000      -0.303618        -8.2619 
  15   2.0000      -0.205887        -5.6025 
  16   2.0000      -0.187072        -5.0905 
  17   0.0000       0.015601         0.4245 
  18   0.0000       0.046396         1.2625 
  19   0.0000       0.061675         1.6783 
  20   0.0000       0.066994         1.8230 
  21   0.0000       0.099958         2.7200 
  22   0.0000       0.108017         2.9393 
  23   0.0000       0.113005         3.0750 
  24   0.0000       0.135223         3.6796 
  25   0.0000       0.140819         3.8319 
  26   0.0000       0.166398         4.5279 
  27   0.0000       0.197340         5.3699 
  28   0.0000       0.228080         6.2064 
  29   0.0000       0.249673         6.7939 
  30   0.0000       0.267253         7.2723 
  31   0.0000       0.288645         7.8544 
  32   0.0000       0.310733         8.4555 
  33   0.0000       0.346748         9.4355 
  34   0.0000       0.350517         9.5381 
  35   0.0000       0.371138        10.0992 
  36   0.0000       0.385615        10.4931 
  37   0.0000       0.399006        10.8575 
  38   0.0000       0.405177        11.0254 
  39   0.0000       0.423116        11.5136 
  40   0.0000       0.431276        11.7356 
  41   0.0000       0.442341        12.0367 
  42   0.0000       0.455758        12.4018 
  43   0.0000       0.472826        12.8663 
  44   0.0000       0.493972        13.4417 
  45   0.0000       0.509679        13.8691 
  46   0.0000       0.515182        14.0188 
  47   0.0000       0.532478        14.4895 
  48   0.0000       0.553628        15.0650 
  49   0.0000       0.634545        17.2668 
  50   0.0000       0.655114        17.8266 
  51   0.0000       0.724377        19.7113 
  52   0.0000       1.251883        34.0655 
  53   0.0000       1.266340        34.4589 
  54   0.0000       1.293671        35.2026 
  55   0.0000       1.338091        36.4113 
  56   0.0000       1.362799        37.0836 
  57   0.0000       1.409126        38.3443 
  58   0.0000       1.417583        38.5744 
  59   0.0000       1.483572        40.3701 
  60   0.0000       1.516174        41.2572 
  61   0.0000       1.579540        42.9815 
  62   0.0000       1.671195        45.4755 
  63   0.0000       1.694054        46.0975 
  64   0.0000       1.735238        47.2182 
  65   0.0000       1.739224        47.3267 
  66   0.0000       1.746984        47.5378 
  67   0.0000       1.755906        47.7806 
  68   0.0000       1.766296        48.0633 
  69   0.0000       1.798949        48.9519 
  70   0.0000       1.812946        49.3328 
  71   0.0000       1.857813        50.5537 
  72   0.0000       1.869625        50.8751 
  73   0.0000       1.953203        53.1494 
  74   0.0000       1.973473        53.7009 
  75   0.0000       1.995162        54.2911 
  76   0.0000       2.003089        54.5068 
  77   0.0000       2.045914        55.6721 
  78   0.0000       2.073012        56.4095 
  79   0.0000       2.099376        57.1269 
  80   0.0000       2.208590        60.0988 
  81   0.0000       2.241770        61.0017 
  82   0.0000       2.260090        61.5002 
  83   0.0000       2.381671        64.8086 
  84   0.0000       2.431772        66.1719 
  85   0.0000       2.522124        68.6305 
  86   0.0000       2.555845        69.5481 
  87   0.0000       2.678972        72.8985 
  88   0.0000       2.689856        73.1947 
  89   0.0000       2.754724        74.9598 
  90   0.0000       2.796514        76.0970 
  91   0.0000       3.024780        82.3084 
  92   0.0000       3.065796        83.4246 
  93   0.0000       3.073520        83.6347 
  94   0.0000       3.304285        89.9142 
  95   0.0000       3.401141        92.5497 
  96   0.0000      21.551557       586.4477 
  97   0.0000      21.766415       592.2943 
  98   0.0000      31.452585       855.8683 
  99   0.0000      31.509074       857.4055 

                    ********************************
                    * MULLIKEN POPULATION ANALYSIS *
                    ********************************

-----------------------
MULLIKEN ATOMIC CHARGES
-----------------------
   0 C :   -0.251687
   1 C :   -0.260704
   2 N :   -0.637033
   3 N :   -0.690027
   4 H :    0.291027
   5 H :    0.315485
   6 H :    0.304761
   7 H :    0.311532
   8 H :    0.152949
   9 H :    0.140490
  10 H :    0.158759
  11 H :    0.164447
Sum of atomic charges:   -0.0000000

--------------------------------
MULLIKEN REDUCED ORBITAL CHARGES
--------------------------------
  0 C s       :     3.231837  s :     3.231837
      pz      :     0.957252  p :     2.963469
      px      :     0.934902
      py      :     1.071315
      dz2     :     0.014137  d :     0.056381
      dxz     :     0.007112
      dyz     :     0.012792
      dx2y2   :     0.007199
      dxy     :     0.015142
  1 C s       :     3.235077  s :     3.235077
      pz      :     1.135778  p :     2.970164
      px      :     0.907798
      py      :     0.926587
      dz2     :     0.007973  d :     0.055463
      dxz     :     0.005118
      dyz     :     0.017362
      dx2y2   :     0.012395
      dxy     :     0.012614
  2 N s       :     3.537061  s :     3.537061
      pz      :     1.146373  p :     4.062071
      px      :     1.641231
      py      :     1.274466
      dz2     :     0.006735  d :     0.037901
      dxz     :     0.005463
      dyz     :     0.012196
      dx2y2   :     0.003187
      dxy     :     0.010321
  3 N s       :     3.570300  s :     3.570300
      pz      :     1.443873  p :     4.082813
      px      :     1.243957
      py      :     1.394984
      dz2     :     0.009779  d :     0.036914
      dxz     :     0.003778
      dyz     :     0.006825
      dx2y2   :     0.007936
      dxy     :     0.008596
  4 H s       :     0.708973  s :     0.708973
  5 H s       :     0.684515  s :     0.684515
  6 H s       :     0.695239  s :     0.695239
  7 H s       :     0.688468  s :     0.688468
  8 H s       :     0.847051  s :     0.847051
  9 H s       :     0.859510  s :     0.859510
 10 H s       :     0.841241  s :     0.841241
 11 H s       :     0.835553  s :     0.835553


                     *******************************
                     * LOEWDIN POPULATION ANALYSIS *
                     *******************************

----------------------
LOEWDIN ATOMIC CHARGES
----------------------
   0 C :   -0.236509
   1 C :   -0.240478
   2 N :   -0.545499
   3 N :   -0.560507
   4 H :    0.250988
   5 H :    0.258462
   6 H :    0.255549
   7 H :    0.256835
   8 H :    0.142209
   9 H :    0.126845
  10 H :    0.143269
  11 H :    0.148835

-------------------------------
LOEWDIN REDUCED ORBITAL CHARGES
-------------------------------
  0 C s       :     2.932879  s :     2.932879
      pz      :     1.043673  p :     3.197426
      px      :     1.071055
      py      :     1.082698
      dz2     :     0.026187  d :     0.106204
      dxz     :     0.013732
      dyz     :     0.024322
      dx2y2   :     0.013712
      dxy     :     0.028251
  1 C s       :     2.945404  s :     2.945404
      pz      :     1.129414  p :     3.190190
      px      :     1.041726
      py      :     1.019049
      dz2     :     0.014713  d :     0.104884
      dxz     :     0.008897
      dyz     :     0.029659
      dx2y2   :     0.024668
      dxy     :     0.026947
  2 N s       :     3.293408  s :     3.293408
      pz      :     1.246865  p :     4.192632
      px      :     1.607587
      py      :     1.338180
      dz2     :     0.011804  d :     0.059459
      dxz     :     0.008870
      dyz     :     0.020125
      dx2y2   :     0.004314
      dxy     :     0.014347
  3 N s       :     3.290729  s :     3.290729
      pz      :     1.469007  p :     4.211574
      px      :     1.284218
      py      :     1.458349
      dz2     :     0.013305  d :     0.058204
      dxz     :     0.006515
      dyz     :     0.010840
      dx2y2   :     0.013122
      dxy     :     0.014422
  4 H s       :     0.749012  s :     0.749012
  5 H s       :     0.741538  s :     0.741538
  6 H s       :     0.744451  s :     0.744451
  7 H s       :     0.743165  s :     0.743165
  8 H s       :     0.857791  s :     0.857791
  9 H s       :     0.873155  s :     0.873155
 10 H s       :     0.856731  s :     0.856731
 11 H s       :     0.851165  s :     0.851165


                      *****************************
                      * MAYER POPULATION ANALYSIS *
                      *****************************

  NA   - Mulliken gross atomic population
  ZA   - Total nuclear charge
  QA   - Mulliken gross atomic charge
  VA   - Mayer's total valence
  BVA  - Mayer's bonded valence
  FA   - Mayer's free valence

  ATOM       NA         ZA         QA         VA         BVA        FA
  0 C      6.2517     6.0000    -0.2517     3.7727     3.7727    -0.0000
  1 C      6.2607     6.0000    -0.2607     3.7589     3.7589    -0.0000
  2 N      7.6370     7.0000    -0.6370     2.7538     2.7538    -0.0000
  3 N      7.6900     7.0000    -0.6900     2.7125     2.7125    -0.0000
  4 H      0.7090     1.0000     0.2910     0.8827     0.8827    -0.0000
  5 H      0.6845     1.0000     0.3155     0.8859     0.8859    -0.0000
  6 H      0.6952     1.0000     0.3048     0.8783     0.8783     0.0000
  7 H      0.6885     1.0000     0.3115     0.8743     0.8743    -0.0000
  8 H      0.8471     1.0000     0.1529     0.9460     0.9460    -0.0000
  9 H      0.8595     1.0000     0.1405     0.9358     0.9358     0.0000
 10 H      0.8412     1.0000     0.1588     0.9311     0.9311    -0.0000
 11 H      0.8356     1.0000     0.1644     0.9474     0.9474    -0.0000

  Mayer bond orders larger than 0.100000
B(  0-C ,  1-C ) :   0.9281 B(  0-C ,  2-N ) :   1.0388 B(  0-C , 10-H ) :   0.9484 
B(  0-C , 11-H ) :   0.9570 B(  1-C ,  3-N ) :   0.9963 B(  1-C ,  8-H ) :   0.9563 
B(  1-C ,  9-H ) :   0.9396 B(  2-N ,  4-H ) :   0.8803 B(  2-N ,  5-H ) :   0.8667 
B(  3-N ,  6-H ) :   0.8732 B(  3-N ,  7-H ) :   0.8749 

-------
TIMINGS
-------

Total SCF time: 0 days 0 hours 0 min 3 sec 

Total time                  ....       3.468 sec
Sum of individual times     ....       3.237 sec  ( 93.3%)

Fock matrix formation       ....       1.489 sec  ( 42.9%)
  Split-RI-J                ....       0.520 sec  ( 34.9% of F)
  XC integration            ....       0.657 sec  ( 44.1% of F)
    Basis function eval.    ....       0.047 sec  (  7.2% of XC)
    Density eval.           ....       0.056 sec  (  8.5% of XC)
    XC-Functional eval.     ....       0.064 sec  (  9.7% of XC)
    XC-Potential eval.      ....       0.023 sec  (  3.6% of XC)
Diagonalization             ....       0.015 sec  (  0.4%)
Density matrix formation    ....       0.006 sec  (  0.2%)
Population analysis         ....       0.038 sec  (  1.1%)
Initial guess               ....       0.008 sec  (  0.2%)
Orbital Transformation      ....       0.000 sec  (  0.0%)
Orbital Orthonormalization  ....       0.003 sec  (  0.1%)
DIIS solution               ....       0.001 sec  (  0.0%)
SOSCF solution              ....       0.074 sec  (  2.1%)
Grid generation             ....       1.606 sec  ( 46.3%)


-------------------------------------------------------------------------------
                          DFT DISPERSION CORRECTION                            
                                                                               
                              DFTD3 V3.1  Rev 1                                
                          USING Becke-Johnson damping                          
-------------------------------------------------------------------------------
The B97-3c composite method is recognized
Using three-body term ABC
Active option DFTDOPT                   ...         4   

molecular C6(AA) [au] = 926.603262 


            DFT-D V3
 parameters
 s6 scaling factor         :     1.0000 
 a1 scaling factor         :     0.3700 
 s8 scaling factor         :     1.5000 
 a2 scaling factor         :     4.1000 
 Damping factor alpha9(ATM):    16.0000 
 ad hoc parameters k1-k3   :    16.0000     1.3333    -4.0000 

 Edisp/kcal,au: -10.682718260182  -0.017023993361 
 E6   /kcal   :  -5.756624399 
 E8   /kcal   :  -4.934176190 
 E6(ABC)      :   0.008082329 
 % E8         :  46.188395783 
 % E6(ABC)    :  -0.075657985 

-------------------------   ----------------
Dispersion correction           -0.017023993
-------------------------   ----------------

------------------   -----------------
SRB correction            -0.028704519
------------------   -----------------

-------------------------   --------------------
FINAL SINGLE POINT ENERGY      -190.431070073598
-------------------------   --------------------

                                *** OPTIMIZATION RUN DONE ***

                            ***************************************
                            *     ORCA property calculations      *
                            ***************************************

                                    ---------------------
                                    Active property flags
                                    ---------------------
   (+) Dipole Moment


------------------------------------------------------------------------------
                       ORCA ELECTRIC PROPERTIES CALCULATION
------------------------------------------------------------------------------

Dipole Moment Calculation                       ... on
Quadrupole Moment Calculation                   ... off
Polarizability Calculation                      ... off
GBWName                                         ... _o_ami4_opt_B97-3c.gbw
Electron density file                           ... _o_ami4_opt_B97-3c.scfp
The origin for moment calculation is the CENTER OF MASS  = ( 0.179580,  2.329338  0.094320)

-------------
DIPOLE MOMENT
-------------
                                X             Y             Z
Electronic contribution:     -0.12029       0.73008      -0.40154
Nuclear contribution   :      0.94355      -1.28759       0.54392
                        -----------------------------------------
Total Dipole Moment    :      0.82327      -0.55752       0.14239
                        -----------------------------------------
Magnitude (a.u.)       :      1.00442
Magnitude (Debye)      :      2.55304



--------------------
Rotational spectrum 
--------------------
 
Rotational constants in cm-1:     0.481769     0.172637     0.146239 
Rotational constants in MHz : 14443.066700  5175.540518  4384.128369 

 Dipole components along the rotational axes: 
x,y,z [a.u.] :    -0.899090    -0.369806    -0.252485 
x,y,z [Debye]:    -2.285305    -0.939973    -0.641767 

 

Timings for individual modules:

Sum of individual times         ...      212.255 sec (=   3.538 min)
GTO integral calculation        ...       18.749 sec (=   0.312 min)   8.8 %
SCF iterations                  ...      160.895 sec (=   2.682 min)  75.8 %
SCF Gradient evaluation         ...       30.464 sec (=   0.508 min)  14.4 %
Geometry relaxation             ...        2.147 sec (=   0.036 min)   1.0 %
                             ****ORCA TERMINATED NORMALLY****
TOTAL RUN TIME: 0 days 0 hours 3 minutes 38 seconds 288 msec
