 Entering Gaussian System, Link 0=g16
 Input=m2_l1.com
 Output=m2_l1.log
 Initial command:
 /apps/gaussian/g16-c01-avx/g16/l1.exe "/rds/general/user/vposligu/home/work/Pd2L4_cages/New_Cages/original/SP-PBE0_def2svp-solvent/m2_l1/Gau-1764876.inp" -scrdir="/rds/general/user/vposligu/home/work/Pd2L4_cages/New_Cages/original/SP-PBE0_def2svp-solvent/m2_l1/"
 Entering Link 1 = /apps/gaussian/g16-c01-avx/g16/l1.exe PID=   1764877.
  
 Copyright (c) 1988-2019, Gaussian, Inc.  All Rights Reserved.
  
 This is part of the Gaussian(R) 16 program.  It is based on
 the Gaussian(R) 09 system (copyright 2009, Gaussian, Inc.),
 the Gaussian(R) 03 system (copyright 2003, Gaussian, Inc.),
 the Gaussian(R) 98 system (copyright 1998, Gaussian, Inc.),
 the Gaussian(R) 94 system (copyright 1995, Gaussian, Inc.),
 the Gaussian 92(TM) system (copyright 1992, Gaussian, Inc.),
 the Gaussian 90(TM) system (copyright 1990, Gaussian, Inc.),
 the Gaussian 88(TM) system (copyright 1988, Gaussian, Inc.),
 the Gaussian 86(TM) system (copyright 1986, Carnegie Mellon
 University), and the Gaussian 82(TM) system (copyright 1983,
 Carnegie Mellon University). Gaussian is a federally registered
 trademark of Gaussian, Inc.
  
 This software contains proprietary and confidential information,
 including trade secrets, belonging to Gaussian, Inc.
  
 This software is provided under written license and may be
 used, copied, transmitted, or stored only in accord with that
 written license.
  
 The following legend is applicable only to US Government
 contracts under FAR:
  
                    RESTRICTED RIGHTS LEGEND
  
 Use, reproduction and disclosure by the US Government is
 subject to restrictions as set forth in subparagraphs (a)
 and (c) of the Commercial Computer Software - Restricted
 Rights clause in FAR 52.227-19.
  
 Gaussian, Inc.
 340 Quinnipiac St., Bldg. 40, Wallingford CT 06492
  
  
 ---------------------------------------------------------------
 Warning -- This program may not be used in any manner that
 competes with the business of Gaussian, Inc. or will provide
 assistance to any competitor of Gaussian, Inc.  The licensee
 of this program is prohibited from giving any competitor of
 Gaussian, Inc. access to this program.  By using this program,
 the user acknowledges that Gaussian, Inc. is engaged in the
 business of creating and licensing software in the field of
 computational chemistry and represents and warrants to the
 licensee that it is not a competitor of Gaussian, Inc. and that
 it will not use this program in any manner prohibited above.
 ---------------------------------------------------------------
  

 Cite this work as:
 Gaussian 16, Revision C.01,
 M. J. Frisch, G. W. Trucks, H. B. Schlegel, G. E. Scuseria, 
 M. A. Robb, J. R. Cheeseman, G. Scalmani, V. Barone, 
 G. A. Petersson, H. Nakatsuji, X. Li, M. Caricato, A. V. Marenich, 
 J. Bloino, B. G. Janesko, R. Gomperts, B. Mennucci, H. P. Hratchian, 
 J. V. Ortiz, A. F. Izmaylov, J. L. Sonnenberg, D. Williams-Young, 
 F. Ding, F. Lipparini, F. Egidi, J. Goings, B. Peng, A. Petrone, 
 T. Henderson, D. Ranasinghe, V. G. Zakrzewski, J. Gao, N. Rega, 
 G. Zheng, W. Liang, M. Hada, M. Ehara, K. Toyota, R. Fukuda, 
 J. Hasegawa, M. Ishida, T. Nakajima, Y. Honda, O. Kitao, H. Nakai, 
 T. Vreven, K. Throssell, J. A. Montgomery, Jr., J. E. Peralta, 
 F. Ogliaro, M. J. Bearpark, J. J. Heyd, E. N. Brothers, K. N. Kudin, 
 V. N. Staroverov, T. A. Keith, R. Kobayashi, J. Normand, 
 K. Raghavachari, A. P. Rendell, J. C. Burant, S. S. Iyengar, 
 J. Tomasi, M. Cossi, J. M. Millam, M. Klene, C. Adamo, R. Cammi, 
 J. W. Ochterski, R. L. Martin, K. Morokuma, O. Farkas, 
 J. B. Foresman, and D. J. Fox, Gaussian, Inc., Wallingford CT, 2019.
 
 ******************************************
 Gaussian 16:  ES64L-G16RevC.01  3-Jul-2019
                 2-Jan-2023 
 ******************************************
 %nprocshared=48
 Will use up to   48 processors via shared memory.
 %mem=120GB
 %chk=m2_l1_opt.chk
 ------------------------------------------------------------------
 # SP PBE1PBE/def2svp empiricaldispersion=GD3BJ scrf=(solvent=dmso)
 ------------------------------------------------------------------
 1/38=1,172=1/1;
 2/12=2,17=6,18=5,40=1/2;
 3/5=43,7=101,11=2,25=1,30=1,70=2201,72=21,74=-13,124=41/1,2,3;
 4//1;
 5/5=2,38=5,53=21/2;
 6/7=2,8=2,9=2,10=2,28=1/1;
 99/5=1,9=1/99;
 -----
 m2_l1
 -----
 Symbolic Z-matrix:
 Charge =  4 Multiplicity = 1
 Pd                    0.66      6.008    -2.087 
 Pd                    0.002    -4.63      1.406 
 C                     2.927     4.835    -0.725 
 N                     2.687     5.767    -1.662 
 C                     3.655     5.984    -2.567 
 C                     4.782     5.185    -2.672 
 C                     4.951     4.096    -1.806 
 C                     5.899     2.998    -1.974 
 C                     7.195     3.135    -2.499 
 C                     8.058     2.059    -2.613 
 C                     7.609     0.812    -2.197 
 O                     8.277    -0.365    -2.186 
 C                     7.448    -1.295    -1.659 
 C                     7.699    -2.639    -1.415 
 C                     6.701    -3.392    -0.822 
 C                     5.466    -2.833    -0.454 
 C                     4.407    -3.564     0.239 
 C                     3.628    -2.865     1.178 
 C                     2.479    -3.423     1.678 
 N                     2.062    -4.658     1.346 
 C                     2.859    -5.388     0.558 
 C                     4.026    -4.888    -0.002 
 C                     5.212    -1.489    -0.735 
 C                     6.194    -0.731    -1.334 
 C                     6.3       0.655    -1.692 
 C                     5.45      1.734    -1.585 
 C                     4.035     4.024    -0.744 
 H                     2.208     4.713     0.076 
 H                     3.497     6.804    -3.258 
 H                     5.494     5.376    -3.459 
 H                     7.546     4.114    -2.786 
 H                     9.056     2.186    -2.999 
 H                     8.651    -3.078    -1.667 
 H                     6.897    -4.428    -0.594 
 H                     3.925    -1.881     1.506 
 H                     1.868    -2.849     2.375 
 H                     2.539    -6.403     0.351 
 H                     4.606    -5.515    -0.659 
 H                     4.253    -1.044    -0.515 
 H                     4.441     1.583    -1.23 
 H                     4.179     3.316     0.056 
 C                    -0.426     5.112     0.396 
 N                     0.253     6.173    -0.069 
 C                     0.983     6.87      0.813 
 C                     1.156     6.468     2.125 
 C                     0.555     5.288     2.595 
 C                     0.864     4.674     3.881 
 C                     1.349     5.428     4.967 
 C                     1.727     4.842     6.158 
 C                     1.622     3.462     6.267 
 O                     1.985     2.693     7.31 
 C                     1.713     1.409     6.975 
 C                     1.957     0.274     7.735 
 C                     1.617    -0.952     7.192 
 C                     0.997    -1.05      5.94 
 C                     0.595    -2.326     5.337 
 C                    -0.694    -2.464     4.808 
 C                    -0.972    -3.495     3.939 
 N                    -0.037    -4.367     3.52 
 C                     1.114    -4.383     4.211 
 C                     1.455    -3.409     5.135 
 C                     0.75      0.096     5.184 
 C                     1.141     1.326     5.686 
 C                     1.101     2.684     5.205 
 C                     0.73      3.288     4.019 
 C                    -0.325     4.665     1.692 
 H                    -1.077     4.586    -0.299 
 H                     1.471     7.764     0.439 
 H                     1.797     7.051     2.765 
 H                     1.407     6.501     4.883 
 H                     2.098     5.431     6.98 
 H                     2.398     0.351     8.714 
 H                     1.792    -1.849     7.764 
 H                    -1.464    -1.754     5.064 
 H                    -1.98     -3.624     3.569 
 H                     1.806    -5.187     3.986 
 H                     2.414    -3.451     5.628 
 H                     0.288     0.022     4.21 
 H                     0.389     2.674     3.199 
 H                    -0.924     3.825     2.001 
 C                    -2.255     6.75     -1.785 
 N                    -1.374     5.979    -2.439 
 C                    -1.827     4.821    -2.946 
 C                    -3.097     4.354    -2.717 
 C                    -3.962     5.053    -1.859 
 C                    -5.105     4.328    -1.308 
 C                    -6.355     4.877    -0.979 
 C                    -7.361     4.122    -0.399 
 C                    -7.1       2.786    -0.117 
 O                    -7.887     1.871     0.504 
 C                    -7.167     0.731     0.62 
 C                    -7.516    -0.47      1.226 
 C                    -6.561    -1.471     1.291 
 C                    -5.269    -1.312     0.756 
 C                    -4.187    -2.276     0.928 
 C                    -2.874    -1.776     1.011 
 C                    -1.809    -2.629     1.119 
 N                    -1.949    -3.964     1.194 
 C                    -3.186    -4.463     1.154 
 C                    -4.314    -3.667     1.02 
 C                    -4.956    -0.129     0.085 
 C                    -5.889     0.881     0.04 
 C                    -5.847     2.227    -0.445 
 C                    -4.861     2.981    -1.037 
 C                    -3.538     6.33     -1.477 
 H                    -1.901     7.724    -1.462 
 H                    -1.148     4.219    -3.54 
 H                    -3.41      3.43     -3.175 
 H                    -6.55      5.913    -1.208 
 H                    -8.316     4.561    -0.16 
 H                    -8.494    -0.61      1.656 
 H                    -6.808    -2.385     1.807 
 H                    -2.693    -0.714     1.016 
 H                    -0.792    -2.225     1.173 
 H                    -3.277    -5.539     1.237 
 H                    -5.285    -4.134     0.974 
 H                    -4.011     0.002    -0.42 
 H                    -3.897     2.535    -1.23 
 H                    -4.18      6.97     -0.892 
 C                     1.55      4.168    -4.028 
 N                     1.002     5.395    -4.046 
 C                     0.255     5.715    -5.112 
 C                    -0.11      4.793    -6.083 
 C                     0.307     3.463    -5.968 
 C                    -0.236     2.299    -6.666 
 C                    -0.576     2.235    -8.026 
 C                    -1.006     1.059    -8.619 
 C                    -1.104    -0.079    -7.828 
 O                    -1.43     -1.344    -8.19 
 C                    -1.324    -2.12     -7.087 
 C                    -1.497    -3.494    -6.966 
 C                    -1.263    -4.075    -5.731 
 C                    -0.859    -3.324    -4.614 
 C                    -0.524    -3.897    -3.313 
 C                     0.461    -3.263    -2.537 
 C                     0.669    -3.638    -1.234 
 N                     0.       -4.641    -0.651 
 C                    -0.859    -5.338    -1.408 
 C                    -1.145    -5.004    -2.72 
 C                    -0.734    -1.939    -4.736 
 C                    -0.959    -1.351    -5.961 
 C                    -0.813    -0.012    -6.449 
 C                    -0.389     1.162    -5.87 
 C                     1.262     3.211    -4.968 
 H                     2.24      3.92     -3.227 
 H                    -0.103     6.737    -5.163 
 H                    -0.765     5.098    -6.884 
 H                    -0.454     3.113    -8.64 
 H                    -1.237     1.022    -9.671 
 H                    -1.783    -4.092    -7.815 
 H                    -1.351    -5.147    -5.641 
 H                     1.064    -2.475    -2.957 
 H                     1.403    -3.105    -0.636 
 H                    -1.343    -6.187    -0.935 
 H                    -1.873    -5.582    -3.266 
 H                    -0.49     -1.321    -3.886 
 H                    -0.198     1.193    -4.807 
 H                     1.751     2.252    -4.913 
 
 Stoichiometry    C88H56N8O4Pd2(4+)
 Framework group  C1[X(C88H56N8O4Pd2)]
 Deg. of freedom   468
 Full point group                 C1      NOp   1
 Largest Abelian subgroup         C1      NOp   1
 Largest concise Abelian subgroup C1      NOp   1
                         Standard orientation:                         
 ---------------------------------------------------------------------
 Center     Atomic      Atomic             Coordinates (Angstroms)
 Number     Number       Type             X           Y           Z
 ---------------------------------------------------------------------
      1         46           0        5.251901   -1.018347    1.451952
      2         46           0       -5.464100    0.912033   -1.239149
      3          6           0        3.286472   -3.082893    1.946927
      4          7           0        4.593563   -2.986498    1.652966
      5          6           0        5.145432   -4.014007    0.987530
      6          6           0        4.401440   -5.055232    0.456605
      7          6           0        3.008118   -5.068112    0.608016
      8          6           0        2.066611   -5.903340   -0.132586
      9          6           0        2.312552   -7.230170   -0.523797
     10          6           0        1.370583   -7.980673   -1.205692
     11          6           0        0.153271   -7.384666   -1.509985
     12          8           0       -0.917639   -7.924945   -2.136822
     13          6           0       -1.884160   -6.979211   -2.172778
     14          6           0       -3.171457   -7.076685   -2.684870
     15          6           0       -4.004991   -5.978376   -2.568244
     16          6           0       -3.589781   -4.792255   -1.940672
     17          6           0       -4.450885   -3.630863   -1.726756
     18          6           0       -4.272510   -2.885036   -0.548160
     19          6           0       -4.875711   -1.661513   -0.404270
     20          7           0       -5.690160   -1.134307   -1.335970
     21          6           0       -5.976659   -1.887562   -2.403480
     22          6           0       -5.392447   -3.125784   -2.629293
     23          6           0       -2.282533   -4.693570   -1.459861
     24          6           0       -1.439798   -5.776793   -1.578666
     25          6           0       -0.097399   -6.043792   -1.146148
     26          6           0        0.849322   -5.306851   -0.468781
     27          6           0        2.488979   -4.099880    1.482719
     28          1           0        2.841229   -2.317622    2.571078
     29          1           0        6.218704   -3.975626    0.841036
     30          1           0        4.898044   -5.820078   -0.118886
     31          1           0        3.247431   -7.694699   -0.251355
     32          1           0        1.568352   -9.003782   -1.480033
     33          1           0       -3.515110   -7.988648   -3.146123
     34          1           0       -5.018724   -6.054108   -2.929224
     35          1           0       -3.653219   -3.267042    0.248457
     36          1           0       -4.693237   -1.081105    0.500405
     37          1           0       -6.683511   -1.473689   -3.113793
     38          1           0       -5.637132   -3.667955   -3.527824
     39          1           0       -1.916083   -3.776809   -1.022404
     40          1           0        0.649065   -4.271793   -0.233286
     41          1           0        1.453653   -4.130826    1.781285
     42          6           0        3.306560    0.272654    3.094044
     43          7           0        4.367373   -0.534773    3.254440
     44          6           0        4.402624   -1.290494    4.360910
     45          6           0        3.349800   -1.357692    5.255295
     46          6           0        2.177464   -0.615097    5.034657
     47          6           0        0.944795   -0.796524    5.792209
     48          6           0        0.947701   -1.305057    7.105419
     49          6           0       -0.218940   -1.562491    7.796389
     50          6           0       -1.424448   -1.309015    7.156227
     51          8           0       -2.664730   -1.539533    7.624777
     52          6           0       -3.535260   -1.151401    6.662283
     53          6           0       -4.919593   -1.239055    6.698345
     54          6           0       -5.623414   -0.799366    5.591622
     55          6           0       -4.971717   -0.233093    4.488837
     56          6           0       -5.678704    0.270533    3.305655
     57          6           0       -5.367692    1.540124    2.803843
     58          6           0       -5.741925    1.882295    1.523892
     59          7           0       -6.359011    1.024405    0.691186
     60          6           0       -6.869596   -0.084288    1.250329
     61          6           0       -6.579577   -0.480467    2.545576
     62          6           0       -3.579919   -0.143416    4.462057
     63          6           0       -2.856810   -0.636145    5.535424
     64          6           0       -1.456146   -0.761068    5.851115
     65          6           0       -0.277825   -0.512227    5.173847
     66          6           0        2.232591    0.280910    3.952035
     67          1           0        3.306919    0.940999    2.235664
     68          1           0        5.296596   -1.886411    4.512410
     69          1           0        3.427628   -2.024678    6.097579
     70          1           0        1.887318   -1.478623    7.604162
     71          1           0       -0.201812   -1.953186    8.800037
     72          1           0       -5.423893   -1.638370    7.561525
     73          1           0       -6.700259   -0.852291    5.596149
     74          1           0       -4.819126    2.243210    3.409880
     75          1           0       -5.539579    2.879404    1.157240
     76          1           0       -7.504711   -0.698602    0.621718
     77          1           0       -6.985236   -1.405181    2.926152
     78          1           0       -3.073359    0.276687    3.605024
     79          1           0       -0.320435   -0.148630    4.158141
     80          1           0        1.431072    0.978353    3.775902
     81          6           0        6.046977    1.814431    2.146369
     82          7           0        5.645452    0.988414    1.169235
     83          6           0        4.992550    1.534983    0.130869
     84          6           0        4.623208    2.856259    0.095544
     85          6           0        4.854293    3.683645    1.206859
     86          6           0        4.083042    4.921067    1.305010
     87          6           0        4.512224    6.121268    1.894469
     88          6           0        3.684809    7.227111    1.999146
     89          6           0        2.382959    7.120686    1.523331
     90          8           0        1.374447    8.027627    1.574306
     91          6           0        0.273069    7.436851    1.055263
     92          6           0       -1.017657    7.937803    0.934794
     93          6           0       -2.001930    7.096641    0.442956
     94          6           0       -1.731746    5.771012    0.055040
     95          6           0       -2.756080    4.804945   -0.328443
     96          6           0       -2.529248    3.452428   -0.012056
     97          6           0       -3.424450    2.488609   -0.390427
     98          7           0       -4.570142    2.770534   -1.034910
     99          6           0       -4.827567    4.049506   -1.315508
    100          6           0       -3.959319    5.080611   -0.988517
    101          6           0       -0.417604    5.304593    0.111446
    102          6           0        0.561130    6.123917    0.624672
    103          6           0        1.944502    5.918596    0.929354
    104          6           0        2.779711    4.832151    0.814288
    105          6           0        5.676741    3.147494    2.203127
    106          1           0        6.654030    1.376606    2.932573
    107          1           0        4.724225    0.894870   -0.702520
    108          1           0        4.125054    3.241685   -0.778983
    109          1           0        5.526373    6.195959    2.254587
    110          1           0        4.035693    8.141433    2.449438
    111          1           0       -1.251945    8.944504    1.239171
    112          1           0       -3.015380    7.462025    0.397403
    113          1           0       -1.660034    3.162076    0.554330
    114          1           0       -3.229252    1.438764   -0.145183
    115          1           0       -5.765421    4.256119   -1.816194
    116          1           0       -4.216932    6.091714   -1.261193
    117          1           0       -0.147377    4.328027   -0.260720
    118          1           0        2.397542    3.911818    0.399083
    119          1           0        5.977561    3.746457    3.048550
    120          6           0        4.633091   -1.803317   -1.183589
    121          7           0        5.736077   -1.387796   -0.537896
    122          6           0        6.654912   -0.730075   -1.258944
    123          6           0        6.436230   -0.317726   -2.565962
    124          6           0        5.210182   -0.587730   -3.182336
    125          6           0        4.663700    0.039739   -4.384247
    126          6           0        5.369355    0.319151   -5.564618
    127          6           0        4.744289    0.840639   -6.685719
    128          6           0        3.379909    1.094521   -6.619837
    129          8           0        2.545797    1.533024   -7.594270
    130          6           0        1.297068    1.561407   -7.074760
    131          6           0        0.097978    1.882381   -7.700542
    132          6           0       -1.071399    1.769578   -6.967484
    133          6           0       -1.078230    1.343305   -5.628398
    134          6           0       -2.287351    1.132490   -4.836731
    135          6           0       -2.277872    0.124957   -3.857371
    136          6           0       -3.307218    0.019744   -2.956774
    137          7           0       -4.382964    0.816827   -2.986563
    138          6           0       -4.469787    1.706672   -3.985250
    139          6           0       -3.461254    1.893218   -4.914098
    140          6           0        0.136094    1.068818   -4.996886
    141          6           0        1.305031    1.172428   -5.717890
    142          6           0        2.672279    0.864381   -5.421043
    143          6           0        3.303767    0.348393   -4.312769
    144          6           0        4.359808   -1.462326   -2.484141
    145          1           0        3.921687   -2.424595   -0.647749
    146          1           0        7.581503   -0.483491   -0.753103
    147          1           0        7.191552    0.262837   -3.072013
    148          1           0        6.418709    0.077012   -5.619298
    149          1           0        5.297003    1.023679   -7.592602
    150          1           0        0.077927    2.188286   -8.733122
    151          1           0       -2.009943    1.973129   -7.460161
    152          1           0       -1.461680   -0.576341   -3.802938
    153          1           0       -3.259728   -0.736420   -2.178051
    154          1           0       -5.378866    2.298654   -4.029054
    155          1           0       -3.574801    2.650602   -5.672821
    156          1           0        0.177200    0.802597   -3.952187
    157          1           0        2.744732    0.206240   -3.399159
    158          1           0        3.469138   -1.845426   -2.955064
 ---------------------------------------------------------------------
 Rotational constants (GHZ):           0.0137436           0.0117528           0.0115450
 Standard basis: def2SVP (5D, 7F)
 There are  1852 symmetry adapted cartesian basis functions of A   symmetry.
 There are  1742 symmetry adapted basis functions of A   symmetry.
  1742 basis functions,  3022 primitive gaussians,  1852 cartesian basis functions
   352 alpha electrons      352 beta electrons
       nuclear repulsion energy     19527.3900858994 Hartrees.
 NAtoms=  158 NActive=  158 NUniq=  158 SFac= 1.00D+00 NAtFMM=   60 NAOKFM=T Big=T
 Integral buffers will be    131072 words long.
 Raffenetti 2 integral format.
 Two-electron integral symmetry is turned on.
 Nuclear repulsion after empirical dispersion term =    19527.1253874481 Hartrees.
 ------------------------------------------------------------------------------
 Polarizable Continuum Model (PCM)
 =================================
 Model                : PCM.
 Atomic radii         : UFF (Universal Force Field).
 Polarization charges : Total charges.
 Charge compensation  : None.
 Solution method      : On-the-fly selection.
 Cavity type          : Scaled VdW (van der Waals Surface) (Alpha=1.100).
 Cavity algorithm     : GePol (No added spheres)
                        Default sphere list used, NSphG=  158.
                        Lebedev-Laikov grids with approx.  5.0 points / Ang**2.
                        Smoothing algorithm: York/Karplus (Gamma=1.0000).
                        Polarization charges: spherical gaussians, with
                                              point-specific exponents (IZeta= 3).
                        Self-potential: point-specific (ISelfS= 7).
                        Self-field    : sphere-specific E.n sum rule (ISelfD= 2).
 Solvent              : DiMethylSulfoxide, Eps=  46.826000 Eps(inf)=   2.007889
 ------------------------------------------------------------------------------
 One-electron integrals computed using PRISM.
   1 Symmetry operations used in ECPInt.
 ECPInt:  NShTT=  312445 NPrTT= 1154419 LenC2=  187334 LenP2D=  391060.
 LDataN:  DoStor=T MaxTD1= 7 Len=  274
 NBasis=  1742 RedAO= T EigKep=  2.17D-04  NBF=  1742
 NBsUse=  1742 1.00D-06 EigRej= -1.00D+00 NBFU=  1742
 Defaulting to unpruned grid for atomic number  46.
 ExpMin= 3.70D-02 ExpMax= 2.27D+03 ExpMxC= 3.41D+02 IAcc=3 IRadAn=         5 AccDes= 0.00D+00
 Harris functional with IExCor= 1009 and IRadAn=       5 diagonalized for initial guess.
 HarFok:  IExCor= 1009 AccDes= 0.00D+00 IRadAn=         5 IDoV= 1 UseB2=F ITyADJ=14
 ICtDFT=  3500011 ScaDFX=  1.000000  1.000000  1.000000  1.000000
 Defaulting to unpruned grid for atomic number  46.
 FoFCou: FMM=F IPFlag=           0 FMFlag=      100000 FMFlg1=        2001
         NFxFlg=           0 DoJE=T BraDBF=F KetDBF=T FulRan=T
         wScrn=  0.000000 ICntrl=       500 IOpCl=  0 I1Cent=   200000004 NGrid=           0
         NMat0=    1 NMatS0=      1 NMatT0=    0 NMatD0=    1 NMtDS0=    0 NMtDT0=    0
 Petite list used in FoFCou.
 Requested convergence on RMS density matrix=1.00D-08 within 128 cycles.
 Requested convergence on MAX density matrix=1.00D-06.
 Requested convergence on             energy=1.00D-06.
 No special actions if energy rises.
 Defaulting to unpruned grid for atomic number  46.
 Defaulting to unpruned grid for atomic number  46.
 Defaulting to unpruned grid for atomic number  46.
 Defaulting to unpruned grid for atomic number  46.
 Defaulting to unpruned grid for atomic number  46.
 Defaulting to unpruned grid for atomic number  46.
 Defaulting to unpruned grid for atomic number  46.
 Defaulting to unpruned grid for atomic number  46.
 Defaulting to unpruned grid for atomic number  46.
 Defaulting to unpruned grid for atomic number  46.
 Defaulting to unpruned grid for atomic number  46.
 Defaulting to unpruned grid for atomic number  46.
 Defaulting to unpruned grid for atomic number  46.
 Defaulting to unpruned grid for atomic number  46.
 Defaulting to unpruned grid for atomic number  46.
 Defaulting to unpruned grid for atomic number  46.
 Defaulting to unpruned grid for atomic number  46.
 Defaulting to unpruned grid for atomic number  46.
 Defaulting to unpruned grid for atomic number  46.
 Defaulting to unpruned grid for atomic number  46.
 Defaulting to unpruned grid for atomic number  46.
 Defaulting to unpruned grid for atomic number  46.
 Defaulting to unpruned grid for atomic number  46.
 Defaulting to unpruned grid for atomic number  46.
 Defaulting to unpruned grid for atomic number  46.
 Defaulting to unpruned grid for atomic number  46.
 Defaulting to unpruned grid for atomic number  46.
 Defaulting to unpruned grid for atomic number  46.
 Defaulting to unpruned grid for atomic number  46.
 Defaulting to unpruned grid for atomic number  46.
 Defaulting to unpruned grid for atomic number  46.
 Defaulting to unpruned grid for atomic number  46.
 Defaulting to unpruned grid for atomic number  46.
 Defaulting to unpruned grid for atomic number  46.
 Defaulting to unpruned grid for atomic number  46.
 Defaulting to unpruned grid for atomic number  46.
 Defaulting to unpruned grid for atomic number  46.
 Defaulting to unpruned grid for atomic number  46.
 Defaulting to unpruned grid for atomic number  46.
 Defaulting to unpruned grid for atomic number  46.
 Defaulting to unpruned grid for atomic number  46.
 Defaulting to unpruned grid for atomic number  46.
 Defaulting to unpruned grid for atomic number  46.
 Defaulting to unpruned grid for atomic number  46.
 Defaulting to unpruned grid for atomic number  46.
 Defaulting to unpruned grid for atomic number  46.
 Defaulting to unpruned grid for atomic number  46.
 Defaulting to unpruned grid for atomic number  46.
 Inv3:  Mode=1 IEnd=   332516352.
 Iteration    1 A*A^-1 deviation from unit magnitude is 7.77D-15 for  10503.
 Iteration    1 A*A^-1 deviation from orthogonality  is 3.44D-15 for  10506   5656.
 Iteration    1 A^-1*A deviation from unit magnitude is 7.55D-15 for  10503.
 Iteration    1 A^-1*A deviation from orthogonality  is 6.00D-15 for  10514   5625.
 EnCoef did   100 forward-backward iterations
 EnCoef did     2 forward-backward iterations
 Error on total polarization charges =  0.02520
 SCF Done:  E(RPBE1PBE) =  -4373.90313210     A.U. after   19 cycles
            NFock= 19  Conv=0.22D-08     -V/T= 2.0477
 Hyperfine terms turned off by default for NAtoms > 100.

 **********************************************************************

            Population analysis using the SCF Density.

 **********************************************************************

 Orbital symmetries:
       Occupied  (A) (A) (A) (A) (A) (A) (A) (A) (A) (A) (A) (A)
                 (A) (A) (A) (A) (A) (A) (A) (A) (A) (A) (A) (A)
                 (A) (A) (A) (A) (A) (A) (A) (A) (A) (A) (A) (A)
                 (A) (A) (A) (A) (A) (A) (A) (A) (A) (A) (A) (A)
                 (A) (A) (A) (A) (A) (A) (A) (A) (A) (A) (A) (A)
                 (A) (A) (A) (A) (A) (A) (A) (A) (A) (A) (A) (A)
                 (A) (A) (A) (A) (A) (A) (A) (A) (A) (A) (A) (A)
                 (A) (A) (A) (A) (A) (A) (A) (A) (A) (A) (A) (A)
                 (A) (A) (A) (A) (A) (A) (A) (A) (A) (A) (A) (A)
                 (A) (A) (A) (A) (A) (A) (A) (A) (A) (A) (A) (A)
                 (A) (A) (A) (A) (A) (A) (A) (A) (A) (A) (A) (A)
                 (A) (A) (A) (A) (A) (A) (A) (A) (A) (A) (A) (A)
                 (A) (A) (A) (A) (A) (A) (A) (A) (A) (A) (A) (A)
                 (A) (A) (A) (A) (A) (A) (A) (A) (A) (A) (A) (A)
                 (A) (A) (A) (A) (A) (A) (A) (A) (A) (A) (A) (A)
                 (A) (A) (A) (A) (A) (A) (A) (A) (A) (A) (A) (A)
                 (A) (A) (A) (A) (A) (A) (A) (A) (A) (A) (A) (A)
                 (A) (A) (A) (A) (A) (A) (A) (A) (A) (A) (A) (A)
                 (A) (A) (A) (A) (A) (A) (A) (A) (A) (A) (A) (A)
                 (A) (A) (A) (A) (A) (A) (A) (A) (A) (A) (A) (A)
                 (A) (A) (A) (A) (A) (A) (A) (A) (A) (A) (A) (A)
                 (A) (A) (A) (A) (A) (A) (A) (A) (A) (A) (A) (A)
                 (A) (A) (A) (A) (A) (A) (A) (A) (A) (A) (A) (A)
                 (A) (A) (A) (A) (A) (A) (A) (A) (A) (A) (A) (A)
                 (A) (A) (A) (A) (A) (A) (A) (A) (A) (A) (A) (A)
                 (A) (A) (A) (A) (A) (A) (A) (A) (A) (A) (A) (A)
                 (A) (A) (A) (A) (A) (A) (A) (A) (A) (A) (A) (A)
                 (A) (A) (A) (A) (A) (A) (A) (A) (A) (A) (A) (A)
                 (A) (A) (A) (A) (A) (A) (A) (A) (A) (A) (A) (A)
                 (A) (A) (A) (A)
       Virtual   (A) (A) (A) (A) (A) (A) (A) (A) (A) (A) (A) (A)
                 (A) (A) (A) (A) (A) (A) (A) (A) (A) (A) (A) (A)
                 (A) (A) (A) (A) (A) (A) (A) (A) (A) (A) (A) (A)
                 (A) (A) (A) (A) (A) (A) (A) (A) (A) (A) (A) (A)
                 (A) (A) (A) (A) (A) (A) (A) (A) (A) (A) (A) (A)
                 (A) (A) (A) (A) (A) (A) (A) (A) (A) (A) (A) (A)
                 (A) (A) (A) (A) (A) (A) (A) (A) (A) (A) (A) (A)
                 (A) (A) (A) (A) (A) (A) (A) (A) (A) (A) (A) (A)
                 (A) (A) (A) (A) (A) (A) (A) (A) (A) (A) (A) (A)
                 (A) (A) (A) (A) (A) (A) (A) (A) (A) (A) (A) (A)
                 (A) (A) (A) (A) (A) (A) (A) (A) (A) (A) (A) (A)
                 (A) (A) (A) (A) (A) (A) (A) (A) (A) (A) (A) (A)
                 (A) (A) (A) (A) (A) (A) (A) (A) (A) (A) (A) (A)
                 (A) (A) (A) (A) (A) (A) (A) (A) (A) (A) (A) (A)
                 (A) (A) (A) (A) (A) (A) (A) (A) (A) (A) (A) (A)
                 (A) (A) (A) (A) (A) (A) (A) (A) (A) (A) (A) (A)
                 (A) (A) (A) (A) (A) (A) (A) (A) (A) (A) (A) (A)
                 (A) (A) (A) (A) (A) (A) (A) (A) (A) (A) (A) (A)
                 (A) (A) (A) (A) (A) (A) (A) (A) (A) (A) (A) (A)
                 (A) (A) (A) (A) (A) (A) (A) (A) (A) (A) (A) (A)
                 (A) (A) (A) (A) (A) (A) (A) (A) (A) (A) (A) (A)
                 (A) (A) (A) (A) (A) (A) (A) (A) (A) (A) (A) (A)
                 (A) (A) (A) (A) (A) (A) (A) (A) (A) (A) (A) (A)
                 (A) (A) (A) (A) (A) (A) (A) (A) (A) (A) (A) (A)
                 (A) (A) (A) (A) (A) (A) (A) (A) (A) (A) (A) (A)
                 (A) (A) (A) (A) (A) (A) (A) (A) (A) (A) (A) (A)
                 (A) (A) (A) (A) (A) (A) (A) (A) (A) (A) (A) (A)
                 (A) (A) (A) (A) (A) (A) (A) (A) (A) (A) (A) (A)
                 (A) (A) (A) (A) (A) (A) (A) (A) (A) (A) (A) (A)
                 (A) (A) (A) (A) (A) (A) (A) (A) (A) (A) (A) (A)
                 (A) (A) (A) (A) (A) (A) (A) (A) (A) (A) (A) (A)
                 (A) (A) (A) (A) (A) (A) (A) (A) (A) (A) (A) (A)
                 (A) (A) (A) (A) (A) (A) (A) (A) (A) (A) (A) (A)
                 (A) (A) (A) (A) (A) (A) (A) (A) (A) (A) (A) (A)
                 (A) (A) (A) (A) (A) (A) (A) (A) (A) (A) (A) (A)
                 (A) (A) (A) (A) (A) (A) (A) (A) (A) (A) (A) (A)
                 (A) (A) (A) (A) (A) (A) (A) (A) (A) (A) (A) (A)
                 (A) (A) (A) (A) (A) (A) (A) (A) (A) (A) (A) (A)
                 (A) (A) (A) (A) (A) (A) (A) (A) (A) (A) (A) (A)
                 (A) (A) (A) (A) (A) (A) (A) (A) (A) (A) (A) (A)
                 (A) (A) (A) (A) (A) (A) (A) (A) (A) (A) (A) (A)
                 (A) (A) (A) (A) (A) (A) (A) (A) (A) (A) (A) (A)
                 (A) (A) (A) (A) (A) (A) (A) (A) (A) (A) (A) (A)
                 (A) (A) (A) (A) (A) (A) (A) (A) (A) (A) (A) (A)
                 (A) (A) (A) (A) (A) (A) (A) (A) (A) (A) (A) (A)
                 (A) (A) (A) (A) (A) (A) (A) (A) (A) (A) (A) (A)
                 (A) (A) (A) (A) (A) (A) (A) (A) (A) (A) (A) (A)
                 (A) (A) (A) (A) (A) (A) (A) (A) (A) (A) (A) (A)
                 (A) (A) (A) (A) (A) (A) (A) (A) (A) (A) (A) (A)
                 (A) (A) (A) (A) (A) (A) (A) (A) (A) (A) (A) (A)
                 (A) (A) (A) (A) (A) (A) (A) (A) (A) (A) (A) (A)
                 (A) (A) (A) (A) (A) (A) (A) (A) (A) (A) (A) (A)
                 (A) (A) (A) (A) (A) (A) (A) (A) (A) (A) (A) (A)
                 (A) (A) (A) (A) (A) (A) (A) (A) (A) (A) (A) (A)
                 (A) (A) (A) (A) (A) (A) (A) (A) (A) (A) (A) (A)
                 (A) (A) (A) (A) (A) (A) (A) (A) (A) (A) (A) (A)
                 (A) (A) (A) (A) (A) (A) (A) (A) (A) (A) (A) (A)
                 (A) (A) (A) (A) (A) (A) (A) (A) (A) (A) (A) (A)
                 (A) (A) (A) (A) (A) (A) (A) (A) (A) (A) (A) (A)
                 (A) (A) (A) (A) (A) (A) (A) (A) (A) (A) (A) (A)
                 (A) (A) (A) (A) (A) (A) (A) (A) (A) (A) (A) (A)
                 (A) (A) (A) (A) (A) (A) (A) (A) (A) (A) (A) (A)
                 (A) (A) (A) (A) (A) (A) (A) (A) (A) (A) (A) (A)
                 (A) (A) (A) (A) (A) (A) (A) (A) (A) (A) (A) (A)
                 (A) (A) (A) (A) (A) (A) (A) (A) (A) (A) (A) (A)
                 (A) (A) (A) (A) (A) (A) (A) (A) (A) (A) (A) (A)
                 (A) (A) (A) (A) (A) (A) (A) (A) (A) (A) (A) (A)
                 (A) (A) (A) (A) (A) (A) (A) (A) (A) (A) (A) (A)
                 (A) (A) (A) (A) (A) (A) (A) (A) (A) (A) (A) (A)
                 (A) (A) (A) (A) (A) (A) (A) (A) (A) (A) (A) (A)
                 (A) (A) (A) (A) (A) (A) (A) (A) (A) (A) (A) (A)
                 (A) (A) (A) (A) (A) (A) (A) (A) (A) (A) (A) (A)
                 (A) (A) (A) (A) (A) (A) (A) (A) (A) (A) (A) (A)
                 (A) (A) (A) (A) (A) (A) (A) (A) (A) (A) (A) (A)
                 (A) (A) (A) (A) (A) (A) (A) (A) (A) (A) (A) (A)
                 (A) (A) (A) (A) (A) (A) (A) (A) (A) (A) (A) (A)
                 (A) (A) (A) (A) (A) (A) (A) (A) (A) (A) (A) (A)
                 (A) (A) (A) (A) (A) (A) (A) (A) (A) (A) (A) (A)
                 (A) (A) (A) (A) (A) (A) (A) (A) (A) (A) (A) (A)
                 (A) (A) (A) (A) (A) (A) (A) (A) (A) (A) (A) (A)
                 (A) (A) (A) (A) (A) (A) (A) (A) (A) (A) (A) (A)
                 (A) (A) (A) (A) (A) (A) (A) (A) (A) (A) (A) (A)
                 (A) (A) (A) (A) (A) (A) (A) (A) (A) (A) (A) (A)
                 (A) (A) (A) (A) (A) (A) (A) (A) (A) (A) (A) (A)
                 (A) (A) (A) (A) (A) (A) (A) (A) (A) (A) (A) (A)
                 (A) (A) (A) (A) (A) (A) (A) (A) (A) (A) (A) (A)
                 (A) (A) (A) (A) (A) (A) (A) (A) (A) (A) (A) (A)
                 (A) (A) (A) (A) (A) (A) (A) (A) (A) (A) (A) (A)
                 (A) (A) (A) (A) (A) (A) (A) (A) (A) (A) (A) (A)
                 (A) (A) (A) (A) (A) (A) (A) (A) (A) (A) (A) (A)
                 (A) (A) (A) (A) (A) (A) (A) (A) (A) (A) (A) (A)
                 (A) (A) (A) (A) (A) (A) (A) (A) (A) (A) (A) (A)
                 (A) (A) (A) (A) (A) (A) (A) (A) (A) (A) (A) (A)
                 (A) (A) (A) (A) (A) (A) (A) (A) (A) (A) (A) (A)
                 (A) (A) (A) (A) (A) (A) (A) (A) (A) (A) (A) (A)
                 (A) (A) (A) (A) (A) (A) (A) (A) (A) (A) (A) (A)
                 (A) (A) (A) (A) (A) (A) (A) (A) (A) (A) (A) (A)
                 (A) (A) (A) (A) (A) (A) (A) (A) (A) (A) (A) (A)
                 (A) (A) (A) (A) (A) (A) (A) (A) (A) (A) (A) (A)
                 (A) (A) (A) (A) (A) (A) (A) (A) (A) (A) (A) (A)
                 (A) (A) (A) (A) (A) (A) (A) (A) (A) (A) (A) (A)
                 (A) (A) (A) (A) (A) (A) (A) (A) (A) (A) (A) (A)
                 (A) (A) (A) (A) (A) (A) (A) (A) (A) (A) (A) (A)
                 (A) (A) (A) (A) (A) (A) (A) (A) (A) (A) (A) (A)
                 (A) (A) (A) (A) (A) (A) (A) (A) (A) (A) (A) (A)
                 (A) (A) (A) (A) (A) (A) (A) (A) (A) (A) (A) (A)
                 (A) (A) (A) (A) (A) (A) (A) (A) (A) (A) (A) (A)
                 (A) (A) (A) (A) (A) (A) (A) (A) (A) (A) (A) (A)
                 (A) (A) (A) (A) (A) (A) (A) (A) (A) (A) (A) (A)
                 (A) (A) (A) (A) (A) (A) (A) (A) (A) (A) (A) (A)
                 (A) (A) (A) (A) (A) (A) (A) (A) (A) (A) (A) (A)
                 (A) (A) (A) (A) (A) (A) (A) (A) (A) (A) (A) (A)
                 (A) (A) (A) (A) (A) (A) (A) (A) (A) (A) (A) (A)
                 (A) (A) (A) (A) (A) (A) (A) (A) (A) (A) (A) (A)
                 (A) (A) (A) (A) (A) (A) (A) (A) (A) (A) (A) (A)
                 (A) (A) (A) (A) (A) (A) (A) (A) (A) (A)
 The electronic state is 1-A.
 Alpha  occ. eigenvalues --  -19.30856 -19.30851 -19.30823 -19.30776 -14.48826
 Alpha  occ. eigenvalues --  -14.48710 -14.48540 -14.48453 -14.48443 -14.48221
 Alpha  occ. eigenvalues --  -14.48213 -14.47585 -10.32656 -10.32648 -10.32636
 Alpha  occ. eigenvalues --  -10.32630 -10.32625 -10.32610 -10.32596 -10.32433
 Alpha  occ. eigenvalues --  -10.32225 -10.32177 -10.32056 -10.32048 -10.32018
 Alpha  occ. eigenvalues --  -10.32015 -10.32013 -10.31997 -10.31957 -10.31950
 Alpha  occ. eigenvalues --  -10.31855 -10.31850 -10.31824 -10.31799 -10.31710
 Alpha  occ. eigenvalues --  -10.31523 -10.30683 -10.30589 -10.30576 -10.30540
 Alpha  occ. eigenvalues --  -10.30495 -10.30469 -10.30394 -10.30316 -10.28418
 Alpha  occ. eigenvalues --  -10.28399 -10.28375 -10.28298 -10.28288 -10.28258
 Alpha  occ. eigenvalues --  -10.28239 -10.28114 -10.28112 -10.28057 -10.28005
 Alpha  occ. eigenvalues --  -10.27922 -10.27896 -10.27889 -10.27876 -10.27806
 Alpha  occ. eigenvalues --  -10.27737 -10.27730 -10.27717 -10.27712 -10.27711
 Alpha  occ. eigenvalues --  -10.27707 -10.27665 -10.27610 -10.27351 -10.27227
 Alpha  occ. eigenvalues --  -10.27188 -10.27120 -10.27113 -10.27107 -10.27069
 Alpha  occ. eigenvalues --  -10.27047 -10.27029 -10.27029 -10.27026 -10.27019
 Alpha  occ. eigenvalues --  -10.27015 -10.27014 -10.27009 -10.27002 -10.26996
 Alpha  occ. eigenvalues --  -10.26983 -10.26972 -10.26878 -10.26843 -10.26837
 Alpha  occ. eigenvalues --  -10.26816 -10.26812 -10.26801 -10.26786 -10.26775
 Alpha  occ. eigenvalues --  -10.26771 -10.26755 -10.26754 -10.26657 -10.26603
 Alpha  occ. eigenvalues --   -3.57647  -3.57492  -2.25588  -2.25351  -2.25336
 Alpha  occ. eigenvalues --   -2.25335  -2.21351  -2.21094  -1.17405  -1.17276
 Alpha  occ. eigenvalues --   -1.17175  -1.17124  -1.03958  -1.03842  -1.03388
 Alpha  occ. eigenvalues --   -1.03166  -1.03083  -1.03060  -1.02773  -1.02554
 Alpha  occ. eigenvalues --   -0.92720  -0.92689  -0.92676  -0.92525  -0.92120
 Alpha  occ. eigenvalues --   -0.92092  -0.92066  -0.92011  -0.88317  -0.88194
 Alpha  occ. eigenvalues --   -0.88162  -0.88075  -0.87887  -0.87772  -0.87731
 Alpha  occ. eigenvalues --   -0.87663  -0.83418  -0.83396  -0.83375  -0.83364
 Alpha  occ. eigenvalues --   -0.83159  -0.83084  -0.83048  -0.82884  -0.82856
 Alpha  occ. eigenvalues --   -0.82804  -0.82650  -0.82362  -0.81062  -0.80986
 Alpha  occ. eigenvalues --   -0.80963  -0.80938  -0.79061  -0.78972  -0.78956
 Alpha  occ. eigenvalues --   -0.78832  -0.77566  -0.77545  -0.77474  -0.77472
 Alpha  occ. eigenvalues --   -0.71688  -0.71546  -0.71516  -0.71485  -0.71354
 Alpha  occ. eigenvalues --   -0.71326  -0.71225  -0.71157  -0.70236  -0.70215
 Alpha  occ. eigenvalues --   -0.70071  -0.69797  -0.69742  -0.69709  -0.69656
 Alpha  occ. eigenvalues --   -0.69395  -0.68036  -0.67997  -0.67940  -0.67777
 Alpha  occ. eigenvalues --   -0.65255  -0.65220  -0.65190  -0.65109  -0.63990
 Alpha  occ. eigenvalues --   -0.63933  -0.63928  -0.63740  -0.62873  -0.62837
 Alpha  occ. eigenvalues --   -0.62814  -0.62803  -0.60679  -0.60032  -0.59963
 Alpha  occ. eigenvalues --   -0.59883  -0.59683  -0.59148  -0.59074  -0.58920
 Alpha  occ. eigenvalues --   -0.57881  -0.57580  -0.57345  -0.57319  -0.57095
 Alpha  occ. eigenvalues --   -0.57067  -0.57039  -0.56912  -0.55408  -0.55339
 Alpha  occ. eigenvalues --   -0.55264  -0.55107  -0.54795  -0.54493  -0.53987
 Alpha  occ. eigenvalues --   -0.53912  -0.53667  -0.53586  -0.53047  -0.52934
 Alpha  occ. eigenvalues --   -0.52527  -0.52083  -0.52034  -0.52017  -0.51950
 Alpha  occ. eigenvalues --   -0.51908  -0.51787  -0.51760  -0.51733  -0.51713
 Alpha  occ. eigenvalues --   -0.51690  -0.51649  -0.51399  -0.50731  -0.50594
 Alpha  occ. eigenvalues --   -0.50508  -0.50333  -0.50148  -0.49487  -0.49338
 Alpha  occ. eigenvalues --   -0.49254  -0.49231  -0.49084  -0.49021  -0.48933
 Alpha  occ. eigenvalues --   -0.48854  -0.48819  -0.48698  -0.48510  -0.48336
 Alpha  occ. eigenvalues --   -0.48245  -0.48231  -0.48062  -0.47974  -0.47787
 Alpha  occ. eigenvalues --   -0.47722  -0.47657  -0.47641  -0.47442  -0.47312
 Alpha  occ. eigenvalues --   -0.47151  -0.47037  -0.46844  -0.46792  -0.46756
 Alpha  occ. eigenvalues --   -0.46631  -0.46563  -0.46055  -0.45857  -0.45704
 Alpha  occ. eigenvalues --   -0.45195  -0.45111  -0.43885  -0.43751  -0.43351
 Alpha  occ. eigenvalues --   -0.43264  -0.42847  -0.42789  -0.42567  -0.42562
 Alpha  occ. eigenvalues --   -0.42425  -0.42346  -0.42181  -0.42100  -0.41974
 Alpha  occ. eigenvalues --   -0.41942  -0.41929  -0.41816  -0.41281  -0.41239
 Alpha  occ. eigenvalues --   -0.41042  -0.40942  -0.40836  -0.40757  -0.40664
 Alpha  occ. eigenvalues --   -0.40578  -0.40559  -0.40315  -0.40201  -0.40140
 Alpha  occ. eigenvalues --   -0.39013  -0.38954  -0.38834  -0.38815  -0.38412
 Alpha  occ. eigenvalues --   -0.38222  -0.37359  -0.37315  -0.37235  -0.37145
 Alpha  occ. eigenvalues --   -0.36876  -0.36714  -0.36672  -0.36569  -0.36497
 Alpha  occ. eigenvalues --   -0.36329  -0.36274  -0.35791  -0.35605  -0.35424
 Alpha  occ. eigenvalues --   -0.34428  -0.34130  -0.33581  -0.33497  -0.33273
 Alpha  occ. eigenvalues --   -0.33094  -0.33065  -0.32743  -0.32655  -0.32503
 Alpha  occ. eigenvalues --   -0.32357  -0.32292  -0.32072  -0.31681  -0.31669
 Alpha  occ. eigenvalues --   -0.31551  -0.31197  -0.31054  -0.29671  -0.29588
 Alpha  occ. eigenvalues --   -0.29450  -0.29392  -0.29378  -0.29333  -0.26532
 Alpha  occ. eigenvalues --   -0.26485  -0.26459  -0.26450  -0.26378  -0.26325
 Alpha  occ. eigenvalues --   -0.26303  -0.26288
 Alpha virt. eigenvalues --   -0.12562  -0.12440  -0.09714  -0.09576  -0.09277
 Alpha virt. eigenvalues --   -0.09036  -0.08945  -0.08542  -0.07759  -0.07264
 Alpha virt. eigenvalues --   -0.06575  -0.06439  -0.06392  -0.06345  -0.05841
 Alpha virt. eigenvalues --   -0.05791  -0.05524  -0.04941  -0.04826  -0.04403
 Alpha virt. eigenvalues --   -0.04078  -0.03957  -0.01870  -0.01782  -0.01707
 Alpha virt. eigenvalues --   -0.01612  -0.00615  -0.00568  -0.00460  -0.00353
 Alpha virt. eigenvalues --    0.00755   0.00987   0.01182   0.01262   0.01402
 Alpha virt. eigenvalues --    0.01478   0.01946   0.03350   0.04932   0.05300
 Alpha virt. eigenvalues --    0.05537   0.05664   0.06795   0.07117   0.07184
 Alpha virt. eigenvalues --    0.07507   0.07736   0.07844   0.07934   0.08028
 Alpha virt. eigenvalues --    0.08064   0.08236   0.08377   0.08409   0.08485
 Alpha virt. eigenvalues --    0.08606   0.08773   0.08839   0.09043   0.09112
 Alpha virt. eigenvalues --    0.09263   0.09445   0.09612   0.09849   0.09943
 Alpha virt. eigenvalues --    0.10026   0.10422   0.10514   0.10592   0.10621
 Alpha virt. eigenvalues --    0.10930   0.11159   0.11274   0.11652   0.11769
 Alpha virt. eigenvalues --    0.12282   0.12373   0.12538   0.12769   0.12947
 Alpha virt. eigenvalues --    0.12999   0.13082   0.13240   0.13568   0.13670
 Alpha virt. eigenvalues --    0.13806   0.13913   0.14077   0.14174   0.14274
 Alpha virt. eigenvalues --    0.14312   0.14423   0.14495   0.14579   0.14929
 Alpha virt. eigenvalues --    0.15252   0.15373   0.15676   0.15974   0.16115
 Alpha virt. eigenvalues --    0.16363   0.16471   0.16660   0.16853   0.16984
 Alpha virt. eigenvalues --    0.17067   0.17234   0.17434   0.17633   0.17874
 Alpha virt. eigenvalues --    0.17909   0.18210   0.18541   0.18733   0.18913
 Alpha virt. eigenvalues --    0.19038   0.19160   0.19579   0.19745   0.20153
 Alpha virt. eigenvalues --    0.20387   0.20591   0.20711   0.20870   0.21062
 Alpha virt. eigenvalues --    0.21211   0.21290   0.21399   0.21484   0.21781
 Alpha virt. eigenvalues --    0.22078   0.22387   0.22516   0.22781   0.22915
 Alpha virt. eigenvalues --    0.23383   0.23821   0.23886   0.24021   0.24229
 Alpha virt. eigenvalues --    0.24285   0.24399   0.24480   0.24576   0.24625
 Alpha virt. eigenvalues --    0.24777   0.24803   0.25123   0.25177   0.25542
 Alpha virt. eigenvalues --    0.25599   0.25740   0.25848   0.25977   0.26331
 Alpha virt. eigenvalues --    0.26531   0.26561   0.26660   0.26875   0.27030
 Alpha virt. eigenvalues --    0.27106   0.27182   0.27282   0.27384   0.27520
 Alpha virt. eigenvalues --    0.27596   0.27677   0.27834   0.27911   0.28323
 Alpha virt. eigenvalues --    0.28603   0.28962   0.29076   0.29223   0.29263
 Alpha virt. eigenvalues --    0.29355   0.29525   0.29592   0.29867   0.29993
 Alpha virt. eigenvalues --    0.30090   0.30266   0.30711   0.30741   0.30911
 Alpha virt. eigenvalues --    0.31159   0.31456   0.31612   0.31654   0.31848
 Alpha virt. eigenvalues --    0.31977   0.32279   0.32328   0.32528   0.32901
 Alpha virt. eigenvalues --    0.33050   0.33159   0.33265   0.33325   0.33419
 Alpha virt. eigenvalues --    0.33539   0.33690   0.33719   0.33841   0.33912
 Alpha virt. eigenvalues --    0.34383   0.34529   0.35045   0.35052   0.35372
 Alpha virt. eigenvalues --    0.35488   0.35685   0.35744   0.35907   0.36082
 Alpha virt. eigenvalues --    0.36237   0.36386   0.36428   0.36501   0.36590
 Alpha virt. eigenvalues --    0.36687   0.36816   0.37103   0.37166   0.37459
 Alpha virt. eigenvalues --    0.37565   0.37743   0.38009   0.38218   0.38595
 Alpha virt. eigenvalues --    0.38827   0.39015   0.39133   0.39236   0.39373
 Alpha virt. eigenvalues --    0.39572   0.39845   0.40049   0.40126   0.40293
 Alpha virt. eigenvalues --    0.40409   0.40581   0.40762   0.40847   0.41099
 Alpha virt. eigenvalues --    0.41264   0.41416   0.41476   0.41715   0.41911
 Alpha virt. eigenvalues --    0.42171   0.42298   0.42497   0.42686   0.42815
 Alpha virt. eigenvalues --    0.42906   0.43218   0.43242   0.43359   0.43602
 Alpha virt. eigenvalues --    0.43635   0.43895   0.44050   0.44280   0.44615
 Alpha virt. eigenvalues --    0.44680   0.44802   0.44864   0.45054   0.45360
 Alpha virt. eigenvalues --    0.45513   0.45558   0.45781   0.45879   0.46066
 Alpha virt. eigenvalues --    0.46167   0.46220   0.46386   0.46492   0.46681
 Alpha virt. eigenvalues --    0.46916   0.47024   0.47148   0.47253   0.47317
 Alpha virt. eigenvalues --    0.47550   0.47629   0.47805   0.48054   0.48259
 Alpha virt. eigenvalues --    0.48418   0.48692   0.48899   0.49114   0.49258
 Alpha virt. eigenvalues --    0.49518   0.49566   0.49861   0.49900   0.49988
 Alpha virt. eigenvalues --    0.50127   0.50374   0.50567   0.50762   0.50824
 Alpha virt. eigenvalues --    0.50927   0.51182   0.51312   0.51411   0.51499
 Alpha virt. eigenvalues --    0.51595   0.51640   0.51804   0.51968   0.52044
 Alpha virt. eigenvalues --    0.52141   0.52389   0.52548   0.52871   0.53057
 Alpha virt. eigenvalues --    0.53130   0.53248   0.53435   0.53596   0.53705
 Alpha virt. eigenvalues --    0.53863   0.54012   0.54243   0.54323   0.54425
 Alpha virt. eigenvalues --    0.54590   0.54769   0.54906   0.55156   0.55314
 Alpha virt. eigenvalues --    0.55436   0.55581   0.55624   0.55778   0.56061
 Alpha virt. eigenvalues --    0.56290   0.56594   0.56789   0.57061   0.57403
 Alpha virt. eigenvalues --    0.57678   0.57771   0.58020   0.58198   0.58220
 Alpha virt. eigenvalues --    0.58411   0.58499   0.58643   0.58767   0.59088
 Alpha virt. eigenvalues --    0.59214   0.59366   0.59450   0.59763   0.60143
 Alpha virt. eigenvalues --    0.60299   0.60407   0.60472   0.60649   0.60751
 Alpha virt. eigenvalues --    0.60979   0.61237   0.61434   0.61582   0.61786
 Alpha virt. eigenvalues --    0.61852   0.61949   0.62046   0.62192   0.62315
 Alpha virt. eigenvalues --    0.62583   0.62727   0.62774   0.62883   0.63060
 Alpha virt. eigenvalues --    0.63219   0.63347   0.63416   0.63627   0.63770
 Alpha virt. eigenvalues --    0.64039   0.64172   0.64205   0.64297   0.64492
 Alpha virt. eigenvalues --    0.64627   0.64633   0.64791   0.65021   0.65057
 Alpha virt. eigenvalues --    0.65130   0.65212   0.65383   0.65489   0.65569
 Alpha virt. eigenvalues --    0.65622   0.65744   0.65864   0.66081   0.66246
 Alpha virt. eigenvalues --    0.66256   0.66406   0.66557   0.66665   0.66749
 Alpha virt. eigenvalues --    0.66976   0.67029   0.67178   0.67246   0.67318
 Alpha virt. eigenvalues --    0.67644   0.67735   0.68014   0.68027   0.68150
 Alpha virt. eigenvalues --    0.68209   0.68253   0.68558   0.68594   0.68742
 Alpha virt. eigenvalues --    0.68898   0.69015   0.69086   0.69124   0.69169
 Alpha virt. eigenvalues --    0.69222   0.69519   0.69630   0.69737   0.69926
 Alpha virt. eigenvalues --    0.69965   0.70089   0.70183   0.70293   0.70575
 Alpha virt. eigenvalues --    0.70607   0.70766   0.71005   0.71076   0.71179
 Alpha virt. eigenvalues --    0.71350   0.71491   0.71627   0.71658   0.71837
 Alpha virt. eigenvalues --    0.71990   0.72204   0.72206   0.72407   0.72539
 Alpha virt. eigenvalues --    0.72654   0.72731   0.72950   0.73168   0.73239
 Alpha virt. eigenvalues --    0.73459   0.73635   0.74042   0.74133   0.74337
 Alpha virt. eigenvalues --    0.74570   0.74627   0.74921   0.75048   0.75123
 Alpha virt. eigenvalues --    0.75383   0.75583   0.75648   0.75739   0.75773
 Alpha virt. eigenvalues --    0.75918   0.76022   0.76192   0.76301   0.76508
 Alpha virt. eigenvalues --    0.76744   0.76853   0.76913   0.77163   0.77261
 Alpha virt. eigenvalues --    0.77298   0.77573   0.77635   0.77778   0.77909
 Alpha virt. eigenvalues --    0.78092   0.78322   0.78461   0.78629   0.78904
 Alpha virt. eigenvalues --    0.78966   0.78997   0.79381   0.79556   0.79740
 Alpha virt. eigenvalues --    0.80094   0.80197   0.80281   0.80397   0.80681
 Alpha virt. eigenvalues --    0.80740   0.81022   0.81234   0.81353   0.81410
 Alpha virt. eigenvalues --    0.81602   0.81722   0.81906   0.82298   0.82583
 Alpha virt. eigenvalues --    0.82766   0.82826   0.83037   0.83324   0.83633
 Alpha virt. eigenvalues --    0.83841   0.83865   0.84151   0.84250   0.84647
 Alpha virt. eigenvalues --    0.85050   0.85239   0.85324   0.85717   0.86132
 Alpha virt. eigenvalues --    0.86289   0.86658   0.86803   0.87052   0.87617
 Alpha virt. eigenvalues --    0.87796   0.87849   0.88054   0.88489   0.88794
 Alpha virt. eigenvalues --    0.88946   0.89229   0.89350   0.89470   0.89683
 Alpha virt. eigenvalues --    0.90070   0.90330   0.90535   0.90724   0.91087
 Alpha virt. eigenvalues --    0.91304   0.91389   0.91955   0.92052   0.92208
 Alpha virt. eigenvalues --    0.92378   0.92668   0.92964   0.93291   0.93390
 Alpha virt. eigenvalues --    0.93948   0.94192   0.94484   0.94755   0.95003
 Alpha virt. eigenvalues --    0.95241   0.95919   0.96214   0.96411   0.96918
 Alpha virt. eigenvalues --    0.97385   0.97599   0.97933   0.98306   0.98606
 Alpha virt. eigenvalues --    0.98783   0.99138   0.99567   0.99810   1.00252
 Alpha virt. eigenvalues --    1.00529   1.00805   1.01164   1.01646   1.02074
 Alpha virt. eigenvalues --    1.02472   1.02499   1.02905   1.03270   1.03369
 Alpha virt. eigenvalues --    1.03543   1.03710   1.03885   1.04190   1.04451
 Alpha virt. eigenvalues --    1.04613   1.04694   1.04869   1.05042   1.05452
 Alpha virt. eigenvalues --    1.05952   1.06048   1.06337   1.06633   1.07174
 Alpha virt. eigenvalues --    1.07942   1.08452   1.08609   1.08887   1.09391
 Alpha virt. eigenvalues --    1.09532   1.09825   1.10131   1.10449   1.10790
 Alpha virt. eigenvalues --    1.11117   1.11530   1.11604   1.12159   1.12623
 Alpha virt. eigenvalues --    1.12718   1.12976   1.13122   1.13191   1.13355
 Alpha virt. eigenvalues --    1.14006   1.14280   1.14789   1.14924   1.15548
 Alpha virt. eigenvalues --    1.15658   1.16164   1.16544   1.16946   1.17313
 Alpha virt. eigenvalues --    1.17479   1.17713   1.17839   1.18023   1.18189
 Alpha virt. eigenvalues --    1.18662   1.18866   1.18931   1.19695   1.20063
 Alpha virt. eigenvalues --    1.20233   1.20473   1.20585   1.20668   1.20814
 Alpha virt. eigenvalues --    1.21007   1.21195   1.21323   1.21511   1.21673
 Alpha virt. eigenvalues --    1.21844   1.21941   1.22078   1.22175   1.22273
 Alpha virt. eigenvalues --    1.22411   1.22455   1.22593   1.22697   1.22745
 Alpha virt. eigenvalues --    1.22870   1.23058   1.23227   1.23247   1.23468
 Alpha virt. eigenvalues --    1.23701   1.23803   1.23894   1.24253   1.24465
 Alpha virt. eigenvalues --    1.24632   1.24677   1.25103   1.25258   1.25588
 Alpha virt. eigenvalues --    1.25861   1.26129   1.26309   1.26659   1.26740
 Alpha virt. eigenvalues --    1.26894   1.27035   1.27372   1.27535   1.27824
 Alpha virt. eigenvalues --    1.28285   1.28565   1.28766   1.28954   1.29101
 Alpha virt. eigenvalues --    1.29207   1.29390   1.29603   1.29745   1.29855
 Alpha virt. eigenvalues --    1.30166   1.30338   1.30570   1.30851   1.30958
 Alpha virt. eigenvalues --    1.31265   1.31379   1.31547   1.31990   1.32167
 Alpha virt. eigenvalues --    1.32541   1.32866   1.33138   1.33576   1.33728
 Alpha virt. eigenvalues --    1.33856   1.34422   1.34573   1.34712   1.35299
 Alpha virt. eigenvalues --    1.35456   1.35591   1.35794   1.35935   1.36405
 Alpha virt. eigenvalues --    1.36604   1.36852   1.37173   1.37248   1.37703
 Alpha virt. eigenvalues --    1.37840   1.38123   1.38199   1.38478   1.38643
 Alpha virt. eigenvalues --    1.38854   1.39304   1.39579   1.39788   1.40481
 Alpha virt. eigenvalues --    1.40848   1.41288   1.42244   1.43345   1.43537
 Alpha virt. eigenvalues --    1.44590   1.44829   1.46046   1.46588   1.46781
 Alpha virt. eigenvalues --    1.46967   1.47412   1.47445   1.47923   1.48200
 Alpha virt. eigenvalues --    1.48403   1.48766   1.49167   1.49321   1.49904
 Alpha virt. eigenvalues --    1.50323   1.50669   1.50829   1.51328   1.51834
 Alpha virt. eigenvalues --    1.51906   1.52099   1.52397   1.52499   1.52620
 Alpha virt. eigenvalues --    1.53612   1.54231   1.56748   1.57807   1.57997
 Alpha virt. eigenvalues --    1.58603   1.59013   1.59739   1.59791   1.60237
 Alpha virt. eigenvalues --    1.60450   1.60570   1.61126   1.61759   1.62457
 Alpha virt. eigenvalues --    1.63014   1.63730   1.64011   1.64326   1.64565
 Alpha virt. eigenvalues --    1.64795   1.64851   1.65819   1.66615   1.66880
 Alpha virt. eigenvalues --    1.67213   1.67336   1.67403   1.67474   1.67646
 Alpha virt. eigenvalues --    1.67761   1.67886   1.68144   1.68336   1.68394
 Alpha virt. eigenvalues --    1.68680   1.68798   1.68914   1.69235   1.69254
 Alpha virt. eigenvalues --    1.69344   1.69570   1.69681   1.69758   1.69816
 Alpha virt. eigenvalues --    1.69946   1.69992   1.70030   1.70070   1.70195
 Alpha virt. eigenvalues --    1.70215   1.70537   1.70639   1.70725   1.70989
 Alpha virt. eigenvalues --    1.71002   1.71220   1.71240   1.71478   1.71619
 Alpha virt. eigenvalues --    1.71657   1.71805   1.71897   1.72223   1.72279
 Alpha virt. eigenvalues --    1.72380   1.72693   1.72962   1.72990   1.73233
 Alpha virt. eigenvalues --    1.73553   1.73784   1.73978   1.74050   1.74177
 Alpha virt. eigenvalues --    1.74210   1.74536   1.74569   1.74764   1.74974
 Alpha virt. eigenvalues --    1.75035   1.75043   1.75098   1.75350   1.75430
 Alpha virt. eigenvalues --    1.75468   1.75545   1.75722   1.75782   1.75917
 Alpha virt. eigenvalues --    1.76129   1.76239   1.76353   1.76637   1.76726
 Alpha virt. eigenvalues --    1.76858   1.76915   1.77101   1.77285   1.77420
 Alpha virt. eigenvalues --    1.77475   1.77539   1.77692   1.77936   1.78029
 Alpha virt. eigenvalues --    1.78235   1.78452   1.78559   1.78751   1.78835
 Alpha virt. eigenvalues --    1.78927   1.79076   1.79491   1.79853   1.80064
 Alpha virt. eigenvalues --    1.80176   1.80521   1.80702   1.80759   1.80877
 Alpha virt. eigenvalues --    1.81150   1.81193   1.81431   1.81577   1.81627
 Alpha virt. eigenvalues --    1.81707   1.81941   1.82327   1.82671   1.82756
 Alpha virt. eigenvalues --    1.83277   1.83341   1.83484   1.83522   1.83987
 Alpha virt. eigenvalues --    1.84179   1.84359   1.84667   1.84919   1.85588
 Alpha virt. eigenvalues --    1.85972   1.86124   1.86284   1.86541   1.86620
 Alpha virt. eigenvalues --    1.86998   1.87404   1.87786   1.88283   1.88449
 Alpha virt. eigenvalues --    1.89173   1.89644   1.89830   1.90153   1.90444
 Alpha virt. eigenvalues --    1.90514   1.90709   1.90880   1.91085   1.91343
 Alpha virt. eigenvalues --    1.91544   1.91811   1.91975   1.92028   1.92104
 Alpha virt. eigenvalues --    1.92187   1.92488   1.92599   1.92663   1.92798
 Alpha virt. eigenvalues --    1.92936   1.93176   1.93441   1.93572   1.94053
 Alpha virt. eigenvalues --    1.94147   1.94240   1.94630   1.94677   1.95018
 Alpha virt. eigenvalues --    1.95109   1.95198   1.95516   1.95616   1.95979
 Alpha virt. eigenvalues --    1.96279   1.96299   1.96551   1.96680   1.96731
 Alpha virt. eigenvalues --    1.96867   1.97038   1.97213   1.97348   1.97371
 Alpha virt. eigenvalues --    1.97466   1.97533   1.97706   1.97778   1.97847
 Alpha virt. eigenvalues --    1.97916   1.98105   1.98192   1.98304   1.98513
 Alpha virt. eigenvalues --    1.98964   1.99533   1.99615   1.99871   2.00187
 Alpha virt. eigenvalues --    2.00600   2.00714   2.01145   2.01322   2.02180
 Alpha virt. eigenvalues --    2.02245   2.02491   2.02621   2.02796   2.03326
 Alpha virt. eigenvalues --    2.03639   2.04002   2.05496   2.05564   2.05670
 Alpha virt. eigenvalues --    2.06010   2.06084   2.06415   2.06549   2.06774
 Alpha virt. eigenvalues --    2.06953   2.07371   2.07617   2.07721   2.07870
 Alpha virt. eigenvalues --    2.07904   2.08227   2.08347   2.08601   2.08821
 Alpha virt. eigenvalues --    2.09058   2.09192   2.09601   2.09945   2.10049
 Alpha virt. eigenvalues --    2.10371   2.10452   2.10568   2.10664   2.11346
 Alpha virt. eigenvalues --    2.11589   2.11835   2.12287   2.12473   2.12820
 Alpha virt. eigenvalues --    2.13024   2.13194   2.13254   2.13605   2.13667
 Alpha virt. eigenvalues --    2.13820   2.13888   2.14279   2.14981   2.15189
 Alpha virt. eigenvalues --    2.15313   2.15541   2.15667   2.15745   2.15860
 Alpha virt. eigenvalues --    2.16038   2.16117   2.16351   2.16433   2.16724
 Alpha virt. eigenvalues --    2.16993   2.17682   2.18180   2.18963   2.19345
 Alpha virt. eigenvalues --    2.19641   2.19753   2.19998   2.20110   2.20187
 Alpha virt. eigenvalues --    2.20750   2.21324   2.21361   2.21722   2.21881
 Alpha virt. eigenvalues --    2.22028   2.22203   2.22262   2.22479   2.22633
 Alpha virt. eigenvalues --    2.22712   2.22919   2.23130   2.23231   2.23452
 Alpha virt. eigenvalues --    2.23554   2.23771   2.23977   2.24177   2.24325
 Alpha virt. eigenvalues --    2.24893   2.25279   2.25481   2.25565   2.25795
 Alpha virt. eigenvalues --    2.26372   2.26765   2.26864   2.26964   2.27254
 Alpha virt. eigenvalues --    2.27514   2.27763   2.28082   2.28388   2.28709
 Alpha virt. eigenvalues --    2.28949   2.29002   2.29229   2.29537   2.29889
 Alpha virt. eigenvalues --    2.30122   2.30914   2.31308   2.31723   2.31831
 Alpha virt. eigenvalues --    2.32045   2.32201   2.32219   2.32452   2.32934
 Alpha virt. eigenvalues --    2.32990   2.33160   2.33445   2.33817   2.34101
 Alpha virt. eigenvalues --    2.34248   2.34352   2.34369   2.34616   2.34783
 Alpha virt. eigenvalues --    2.34945   2.35103   2.35244   2.35414   2.35480
 Alpha virt. eigenvalues --    2.35618   2.35689   2.35777   2.35898   2.36100
 Alpha virt. eigenvalues --    2.36163   2.36577   2.36710   2.36733   2.36866
 Alpha virt. eigenvalues --    2.36921   2.37085   2.37504   2.37645   2.37778
 Alpha virt. eigenvalues --    2.37904   2.37956   2.38087   2.38194   2.38481
 Alpha virt. eigenvalues --    2.38906   2.39293   2.39906   2.40235   2.40372
 Alpha virt. eigenvalues --    2.40537   2.40770   2.41024   2.41120   2.41449
 Alpha virt. eigenvalues --    2.41686   2.41847   2.42649   2.44051   2.44206
 Alpha virt. eigenvalues --    2.44502   2.45599   2.45851   2.46262   2.46947
 Alpha virt. eigenvalues --    2.47439   2.47644   2.47947   2.48058   2.48514
 Alpha virt. eigenvalues --    2.48570   2.48980   2.49102   2.49615   2.49891
 Alpha virt. eigenvalues --    2.50124   2.50285   2.50531   2.51220   2.51969
 Alpha virt. eigenvalues --    2.52565   2.53260   2.54021   2.54562   2.54869
 Alpha virt. eigenvalues --    2.55268   2.55622   2.55860   2.56104   2.56457
 Alpha virt. eigenvalues --    2.56698   2.56816   2.56846   2.57545   2.57932
 Alpha virt. eigenvalues --    2.58496   2.58788   2.59088   2.59328   2.59795
 Alpha virt. eigenvalues --    2.60368   2.60508   2.60887   2.61106   2.61348
 Alpha virt. eigenvalues --    2.61624   2.61952   2.62084   2.62142   2.62547
 Alpha virt. eigenvalues --    2.63140   2.63298   2.63675   2.64161   2.64750
 Alpha virt. eigenvalues --    2.65176   2.65617   2.66052   2.66654   2.66799
 Alpha virt. eigenvalues --    2.67051   2.67286   2.67539   2.67692   2.67921
 Alpha virt. eigenvalues --    2.68096   2.68187   2.68298   2.68687   2.69101
 Alpha virt. eigenvalues --    2.69247   2.69598   2.70130   2.70273   2.70696
 Alpha virt. eigenvalues --    2.71267   2.71415   2.71501   2.71836   2.72030
 Alpha virt. eigenvalues --    2.72220   2.72331   2.72506   2.72770   2.73043
 Alpha virt. eigenvalues --    2.73160   2.73440   2.73558   2.73838   2.74083
 Alpha virt. eigenvalues --    2.74597   2.74736   2.74859   2.74875   2.75338
 Alpha virt. eigenvalues --    2.76338   2.76457   2.76549   2.76597   2.76831
 Alpha virt. eigenvalues --    2.77047   2.77195   2.77638   2.78214   2.78402
 Alpha virt. eigenvalues --    2.78427   2.78868   2.79637   2.80074   2.80386
 Alpha virt. eigenvalues --    2.80444   2.82196   2.82492   2.82546   2.82647
 Alpha virt. eigenvalues --    2.82857   2.84641   2.85493   2.85698   2.86070
 Alpha virt. eigenvalues --    2.86552   2.86920   2.87073   2.87110   2.87387
 Alpha virt. eigenvalues --    2.89683   2.90067   2.90306   2.90440   2.90501
 Alpha virt. eigenvalues --    2.90729   2.91085   2.91401   2.91730   2.91888
 Alpha virt. eigenvalues --    2.91906   2.92131   2.92174   2.92436   2.92749
 Alpha virt. eigenvalues --    2.92837   2.92960   2.93084   2.93212   2.93399
 Alpha virt. eigenvalues --    2.94454   2.95061   2.95181   2.95208   2.95837
 Alpha virt. eigenvalues --    2.96086   2.96167   2.96311   2.96547   2.96584
 Alpha virt. eigenvalues --    2.96926   2.97116   2.97494   2.97578   2.98171
 Alpha virt. eigenvalues --    2.99174   3.03094   3.03289   3.03429   3.03938
 Alpha virt. eigenvalues --    3.04659   3.04875   3.04964   3.05253   3.06886
 Alpha virt. eigenvalues --    3.07231   3.07306   3.07611   3.07912   3.08130
 Alpha virt. eigenvalues --    3.08360   3.08625   3.09516   3.09618   3.09786
 Alpha virt. eigenvalues --    3.09976   3.10296   3.10474   3.10798   3.11061
 Alpha virt. eigenvalues --    3.16801   3.17444   3.17703   3.17787   3.18456
 Alpha virt. eigenvalues --    3.18770   3.18941   3.19026   3.20009   3.20232
 Alpha virt. eigenvalues --    3.20361   3.20431   3.30325   3.30711   3.30933
 Alpha virt. eigenvalues --    3.31054   3.31529   3.31825   3.32044   3.32380
 Alpha virt. eigenvalues --    3.38509   3.38945   3.38988   3.39194   3.39837
 Alpha virt. eigenvalues --    3.40064   3.40420   3.41546   3.46401   3.46859
 Alpha virt. eigenvalues --    3.46991   3.47102   3.51689   3.52182   3.52431
 Alpha virt. eigenvalues --    3.52514   3.61047   3.61510   3.61670   3.61825
 Alpha virt. eigenvalues --    3.63537   3.63982   3.64185   3.64512   3.80462
 Alpha virt. eigenvalues --    3.80558   3.80640   3.80796  51.52472  51.54646
          Condensed to atoms (all electrons):
 Mulliken charges:
               1
     1  Pd   0.499138
     2  Pd   0.499400
     3  C    0.143398
     4  N   -0.313377
     5  C    0.121808
     6  C   -0.015362
     7  C    0.041463
     8  C    0.034459
     9  C   -0.011354
    10  C   -0.077775
    11  C    0.226800
    12  O   -0.249175
    13  C    0.225073
    14  C   -0.078005
    15  C   -0.007504
    16  C    0.028427
    17  C    0.045778
    18  C   -0.020696
    19  C    0.100846
    20  N   -0.335350
    21  C    0.137772
    22  C   -0.014760
    23  C   -0.062134
    24  C    0.015672
    25  C    0.014636
    26  C   -0.065332
    27  C   -0.032709
    28  H    0.077198
    29  H    0.104253
    30  H    0.060942
    31  H    0.044165
    32  H    0.041407
    33  H    0.041783
    34  H    0.043751
    35  H    0.063990
    36  H    0.121082
    37  H    0.103291
    38  H    0.060873
    39  H    0.036792
    40  H    0.037824
    41  H    0.062692
    42  C    0.136131
    43  N   -0.325506
    44  C    0.129653
    45  C   -0.033861
    46  C    0.056626
    47  C    0.043253
    48  C   -0.026088
    49  C   -0.069068
    50  C    0.217224
    51  O   -0.244242
    52  C    0.211228
    53  C   -0.072375
    54  C    0.002210
    55  C   -0.002775
    56  C    0.013610
    57  C   -0.017401
    58  C    0.135367
    59  N   -0.303274
    60  C    0.099843
    61  C    0.000709
    62  C   -0.040964
    63  C    0.023252
    64  C    0.012777
    65  C   -0.054566
    66  C   -0.031817
    67  H    0.093250
    68  H    0.103768
    69  H    0.060431
    70  H    0.045688
    71  H    0.040288
    72  H    0.040156
    73  H    0.042642
    74  H    0.062482
    75  H    0.096318
    76  H    0.105905
    77  H    0.060564
    78  H    0.035478
    79  H    0.030735
    80  H    0.060114
    81  C    0.131610
    82  N   -0.316425
    83  C    0.138430
    84  C   -0.033979
    85  C    0.043494
    86  C    0.029241
    87  C   -0.009946
    88  C   -0.080178
    89  C    0.231588
    90  O   -0.253017
    91  C    0.232088
    92  C   -0.079916
    93  C   -0.010093
    94  C    0.031753
    95  C    0.071975
    96  C   -0.041754
    97  C    0.116113
    98  N   -0.338027
    99  C    0.141189
   100  C   -0.036476
   101  C   -0.065521
   102  C    0.009483
   103  C    0.013594
   104  C   -0.067427
   105  C   -0.009227
   106  H    0.106433
   107  H    0.083334
   108  H    0.064172
   109  H    0.043893
   110  H    0.041968
   111  H    0.041318
   112  H    0.043100
   113  H    0.059775
   114  H    0.125170
   115  H    0.094265
   116  H    0.061199
   117  H    0.037903
   118  H    0.039611
   119  H    0.061129
   120  C    0.136702
   121  N   -0.317101
   122  C    0.116323
   123  C   -0.007108
   124  C    0.028426
   125  C    0.031504
   126  C   -0.002924
   127  C   -0.081956
   128  C    0.229754
   129  O   -0.251436
   130  C    0.227522
   131  C   -0.077802
   132  C   -0.012300
   133  C    0.030172
   134  C    0.066096
   135  C   -0.051215
   136  C    0.142196
   137  N   -0.304796
   138  C    0.151360
   139  C   -0.029671
   140  C   -0.062748
   141  C    0.012306
   142  C    0.015987
   143  C   -0.073284
   144  C   -0.028369
   145  H    0.087470
   146  H    0.103467
   147  H    0.061775
   148  H    0.042918
   149  H    0.041753
   150  H    0.040895
   151  H    0.043950
   152  H    0.060415
   153  H    0.087571
   154  H    0.098578
   155  H    0.059932
   156  H    0.035184
   157  H    0.042429
   158  H    0.065240
 Sum of Mulliken charges =   4.00000
 Mulliken charges with hydrogens summed into heavy atoms:
               1
     1  Pd   0.499138
     2  Pd   0.499400
     3  C    0.220596
     4  N   -0.313377
     5  C    0.226061
     6  C    0.045580
     7  C    0.041463
     8  C    0.034459
     9  C    0.032812
    10  C   -0.036368
    11  C    0.226800
    12  O   -0.249175
    13  C    0.225073
    14  C   -0.036222
    15  C    0.036248
    16  C    0.028427
    17  C    0.045778
    18  C    0.043294
    19  C    0.221927
    20  N   -0.335350
    21  C    0.241063
    22  C    0.046114
    23  C   -0.025343
    24  C    0.015672
    25  C    0.014636
    26  C   -0.027508
    27  C    0.029982
    42  C    0.229382
    43  N   -0.325506
    44  C    0.233421
    45  C    0.026570
    46  C    0.056626
    47  C    0.043253
    48  C    0.019600
    49  C   -0.028780
    50  C    0.217224
    51  O   -0.244242
    52  C    0.211228
    53  C   -0.032219
    54  C    0.044852
    55  C   -0.002775
    56  C    0.013610
    57  C    0.045081
    58  C    0.231686
    59  N   -0.303274
    60  C    0.205748
    61  C    0.061274
    62  C   -0.005486
    63  C    0.023252
    64  C    0.012777
    65  C   -0.023831
    66  C    0.028297
    81  C    0.238043
    82  N   -0.316425
    83  C    0.221764
    84  C    0.030193
    85  C    0.043494
    86  C    0.029241
    87  C    0.033948
    88  C   -0.038209
    89  C    0.231588
    90  O   -0.253017
    91  C    0.232088
    92  C   -0.038599
    93  C    0.033007
    94  C    0.031753
    95  C    0.071975
    96  C    0.018021
    97  C    0.241283
    98  N   -0.338027
    99  C    0.235454
   100  C    0.024724
   101  C   -0.027618
   102  C    0.009483
   103  C    0.013594
   104  C   -0.027816
   105  C    0.051903
   120  C    0.224172
   121  N   -0.317101
   122  C    0.219790
   123  C    0.054667
   124  C    0.028426
   125  C    0.031504
   126  C    0.039994
   127  C   -0.040202
   128  C    0.229754
   129  O   -0.251436
   130  C    0.227522
   131  C   -0.036907
   132  C    0.031650
   133  C    0.030172
   134  C    0.066096
   135  C    0.009201
   136  C    0.229767
   137  N   -0.304796
   138  C    0.249938
   139  C    0.030261
   140  C   -0.027564
   141  C    0.012306
   142  C    0.015987
   143  C   -0.030855
   144  C    0.036871
 Electronic spatial extent (au):  <R**2>=         107814.0978
 Charge=              4.0000 electrons
 Dipole moment (field-independent basis, Debye):
    X=             -0.7885    Y=             -0.2767    Z=              0.2520  Tot=              0.8728
 Quadrupole moment (field-independent basis, Debye-Ang):
   XX=           -147.1011   YY=           -383.2548   ZZ=           -386.7525
   XY=            -36.2673   XZ=             57.8552   YZ=            -10.6335
 Traceless Quadrupole moment (field-independent basis, Debye-Ang):
   XX=            158.6017   YY=            -77.5520   ZZ=            -81.0497
   XY=            -36.2673   XZ=             57.8552   YZ=            -10.6335
 Octapole moment (field-independent basis, Debye-Ang**2):
  XXX=             33.8141  YYY=              6.2221  ZZZ=             43.4695  XYY=            -24.6434
  XXY=            -27.7038  XXZ=            -28.9104  XZZ=            -25.0015  YZZ=            -21.8862
  YYZ=            -34.4083  XYZ=             48.9157
 Hexadecapole moment (field-independent basis, Debye-Ang**3):
 XXXX=         -40479.3564 YYYY=         -39747.7366 ZZZZ=         -38355.0103 XXXY=           -571.6117
 XXXZ=           1344.9897 YYYX=          -1941.3313 YYYZ=           1473.0835 ZZZX=           1385.5922
 ZZZY=          -2262.1279 XXYY=         -13338.7723 XXZZ=         -12513.4733 YYZZ=         -14952.5598
 XXYZ=             11.9730 YYXZ=           1735.7701 ZZXY=           -103.8488
 N-N= 1.952712538745D+04 E-N=-4.893384837746D+04  KE= 4.174598009170D+03
 Unable to Open any file for archive entry.
 1\1\GINC-CX3-7-13\SP\RPBE1PBE\def2SVP\C88H56N8O4Pd2(4+)\VPOSLIGU\02-Ja
 n-2023\0\\# SP PBE1PBE/def2svp empiricaldispersion=GD3BJ scrf=(solvent
 =dmso)\\m2_l1\\4,1\Pd,0,0.66,6.008,-2.087\Pd,0,0.002,-4.63,1.406\C,0,2
 .927,4.835,-0.725\N,0,2.687,5.767,-1.662\C,0,3.655,5.984,-2.567\C,0,4.
 782,5.185,-2.672\C,0,4.951,4.096,-1.806\C,0,5.899,2.998,-1.974\C,0,7.1
 95,3.135,-2.499\C,0,8.058,2.059,-2.613\C,0,7.609,0.812,-2.197\O,0,8.27
 7,-0.365,-2.186\C,0,7.448,-1.295,-1.659\C,0,7.699,-2.639,-1.415\C,0,6.
 701,-3.392,-0.822\C,0,5.466,-2.833,-0.454\C,0,4.407,-3.564,0.239\C,0,3
 .628,-2.865,1.178\C,0,2.479,-3.423,1.678\N,0,2.062,-4.658,1.346\C,0,2.
 859,-5.388,0.558\C,0,4.026,-4.888,-0.002\C,0,5.212,-1.489,-0.735\C,0,6
 .194,-0.731,-1.334\C,0,6.3,0.655,-1.692\C,0,5.45,1.734,-1.585\C,0,4.03
 5,4.024,-0.744\H,0,2.208,4.713,0.076\H,0,3.497,6.804,-3.258\H,0,5.494,
 5.376,-3.459\H,0,7.546,4.114,-2.786\H,0,9.056,2.186,-2.999\H,0,8.651,-
 3.078,-1.667\H,0,6.897,-4.428,-0.594\H,0,3.925,-1.881,1.506\H,0,1.868,
 -2.849,2.375\H,0,2.539,-6.403,0.351\H,0,4.606,-5.515,-0.659\H,0,4.253,
 -1.044,-0.515\H,0,4.441,1.583,-1.23\H,0,4.179,3.316,0.056\C,0,-0.426,5
 .112,0.396\N,0,0.253,6.173,-0.069\C,0,0.983,6.87,0.813\C,0,1.156,6.468
 ,2.125\C,0,0.555,5.288,2.595\C,0,0.864,4.674,3.881\C,0,1.349,5.428,4.9
 67\C,0,1.727,4.842,6.158\C,0,1.622,3.462,6.267\O,0,1.985,2.693,7.31\C,
 0,1.713,1.409,6.975\C,0,1.957,0.274,7.735\C,0,1.617,-0.952,7.192\C,0,0
 .997,-1.05,5.94\C,0,0.595,-2.326,5.337\C,0,-0.694,-2.464,4.808\C,0,-0.
 972,-3.495,3.939\N,0,-0.037,-4.367,3.52\C,0,1.114,-4.383,4.211\C,0,1.4
 55,-3.409,5.135\C,0,0.75,0.096,5.184\C,0,1.141,1.326,5.686\C,0,1.101,2
 .684,5.205\C,0,0.73,3.288,4.019\C,0,-0.325,4.665,1.692\H,0,-1.077,4.58
 6,-0.299\H,0,1.471,7.764,0.439\H,0,1.797,7.051,2.765\H,0,1.407,6.501,4
 .883\H,0,2.098,5.431,6.98\H,0,2.398,0.351,8.714\H,0,1.792,-1.849,7.764
 \H,0,-1.464,-1.754,5.064\H,0,-1.98,-3.624,3.569\H,0,1.806,-5.187,3.986
 \H,0,2.414,-3.451,5.628\H,0,0.288,0.022,4.21\H,0,0.389,2.674,3.199\H,0
 ,-0.924,3.825,2.001\C,0,-2.255,6.75,-1.785\N,0,-1.374,5.979,-2.439\C,0
 ,-1.827,4.821,-2.946\C,0,-3.097,4.354,-2.717\C,0,-3.962,5.053,-1.859\C
 ,0,-5.105,4.328,-1.308\C,0,-6.355,4.877,-0.979\C,0,-7.361,4.122,-0.399
 \C,0,-7.1,2.786,-0.117\O,0,-7.887,1.871,0.504\C,0,-7.167,0.731,0.62\C,
 0,-7.516,-0.47,1.226\C,0,-6.561,-1.471,1.291\C,0,-5.269,-1.312,0.756\C
 ,0,-4.187,-2.276,0.928\C,0,-2.874,-1.776,1.011\C,0,-1.809,-2.629,1.119
 \N,0,-1.949,-3.964,1.194\C,0,-3.186,-4.463,1.154\C,0,-4.314,-3.667,1.0
 2\C,0,-4.956,-0.129,0.085\C,0,-5.889,0.881,0.04\C,0,-5.847,2.227,-0.44
 5\C,0,-4.861,2.981,-1.037\C,0,-3.538,6.33,-1.477\H,0,-1.901,7.724,-1.4
 62\H,0,-1.148,4.219,-3.54\H,0,-3.41,3.43,-3.175\H,0,-6.55,5.913,-1.208
 \H,0,-8.316,4.561,-0.16\H,0,-8.494,-0.61,1.656\H,0,-6.808,-2.385,1.807
 \H,0,-2.693,-0.714,1.016\H,0,-0.792,-2.225,1.173\H,0,-3.277,-5.539,1.2
 37\H,0,-5.285,-4.134,0.974\H,0,-4.011,0.002,-0.42\H,0,-3.897,2.535,-1.
 23\H,0,-4.18,6.97,-0.892\C,0,1.55,4.168,-4.028\N,0,1.002,5.395,-4.046\
 C,0,0.255,5.715,-5.112\C,0,-0.11,4.793,-6.083\C,0,0.307,3.463,-5.968\C
 ,0,-0.236,2.299,-6.666\C,0,-0.576,2.235,-8.026\C,0,-1.006,1.059,-8.619
 \C,0,-1.104,-0.079,-7.828\O,0,-1.43,-1.344,-8.19\C,0,-1.324,-2.12,-7.0
 87\C,0,-1.497,-3.494,-6.966\C,0,-1.263,-4.075,-5.731\C,0,-0.859,-3.324
 ,-4.614\C,0,-0.524,-3.897,-3.313\C,0,0.461,-3.263,-2.537\C,0,0.669,-3.
 638,-1.234\N,0,0.,-4.641,-0.651\C,0,-0.859,-5.338,-1.408\C,0,-1.145,-5
 .004,-2.72\C,0,-0.734,-1.939,-4.736\C,0,-0.959,-1.351,-5.961\C,0,-0.81
 3,-0.012,-6.449\C,0,-0.389,1.162,-5.87\C,0,1.262,3.211,-4.968\H,0,2.24
 ,3.92,-3.227\H,0,-0.103,6.737,-5.163\H,0,-0.765,5.098,-6.884\H,0,-0.45
 4,3.113,-8.64\H,0,-1.237,1.022,-9.671\H,0,-1.783,-4.092,-7.815\H,0,-1.
 351,-5.147,-5.641\H,0,1.064,-2.475,-2.957\H,0,1.403,-3.105,-0.636\H,0,
 -1.343,-6.187,-0.935\H,0,-1.873,-5.582,-3.266\H,0,-0.49,-1.321,-3.886\
 H,0,-0.198,1.193,-4.807\H,0,1.751,2.252,-4.913\\Version=ES64L-G16RevC.
 01\State=1-A\HF=-4373.9031321\RMSD=2.236e-09\Dipole=0.1419429,-0.19659
 89,0.2431446\Quadrupole=-61.5700857,109.6537526,-48.083667,6.4430741,-
 0.5743877,-62.9634008\PG=C01 [X(C88H56N8O4Pd2)]\\@
 The archive entry for this job was punched.


 ALL PAPERS THAT YOU SAVE WILL NEVER BE NEEDED UNTIL
 SUCH TIME AS THEY ARE DISPOSED OF, WHEN THEY BECOME
 ESSENTIAL.

           -- JOHN CORCORAN IN
              PAUL DICKSON'S "THE OFFICIAL RULES"
 Job cpu time:       0 days 12 hours 30 minutes 11.3 seconds.
 Elapsed time:       0 days  0 hours 16 minutes  5.4 seconds.
 File lengths (MBytes):  RWF=   3552 Int=      0 D2E=      0 Chk=    192 Scr=     16
 Normal termination of Gaussian 16 at Mon Jan  2 14:35:59 2023.
