      -----------------------------------------------------------      
     |                   =====================                   |     
     |                           x T B                           |     
     |                   =====================                   |     
     |                         S. Grimme                         |     
     |          Mulliken Center for Theoretical Chemistry        |     
     |                    University of Bonn                     |     
     |                Version 6.2 RC2 (SAW190805)                |     
      -----------------------------------------------------------      

   This program is distributed in the hope that it will be useful,
   but WITHOUT ANY WARRANTY; without even the implied warranty of
   MERCHANTABILITY or FITNESS FOR A PARTICULAR PURPOSE.
   
   FOR NON-COMMERCIAL, ACADEMIA USE ONLY.
   
   Cite this work as:
   * S. Grimme, C. Bannwarth, P. Shushkov, J. Chem. Theory Comput., 2017,
     13, 1989-2009. DOI: 10.1021/acs.jctc.7b00118
   * C. Bannwarth, S. Ehlert and S. Grimme., J. Chem. Theory Comput., 2019,
     15, 1652-1671. DOI: 10.1021/acs.jctc.8b01176
   * P. Pracht, E. Caldeweyher, S. Ehlert, S. Grimme, ChemRxiv, 2019, preprint.
     DOI: 10.26434/chemrxiv.8326202.v1
   
   for DFT-D4:
   * E. Caldeweyher, C. Bannwarth and S. Grimme, J. Chem. Phys., 2017,
     147, 034112. DOI: 10.1063/1.4993215
   * E. Caldeweyher, S. Ehlert, A. Hansen, H. Neugebauer, S. Spicher,
     C. Bannwarth and S. Grimme, J. Chem. Phys., 2019, 150, 154122.
     DOI: 10.1063/1.5090222
   
   for sTDA-xTB:
   * S. Grimme and C. Bannwarth, J. Chem. Phys., 2016, 145, 054103.
     DOI: 10.1063/1.4959605
   
   in the mass-spec context:
   * V. Asgeirsson, C. Bauer and S. Grimme, Chem. Sci., 2017, 8, 4879.
     DOI: 10.1039/c7sc00601b
   
   for metadynamics refer to:
   * S. Grimme, J. Chem. Theory Comput., 2019, 155, 2847-2862
     DOI: 10.1021/acs.jctc.9b00143
   
   with help from (in alphabetical order)
   C. Bannwarth, F. Bohle, G. Brandenburg, E. Caldeweyher, M. Checinski,
   S. Dohm, S. Ehlert, S. Ehrlich, F. März, H. Neugebauer, J. Pisarek,
   P. Pracht, P. Shushkov, and S. Spicher.
   
 * started run on 2021/06/21 at 19:34:40.869     

           -------------------------------------------------
          |                Calculation Setup                |
           -------------------------------------------------

          program call               : /home/atarzia/software/xtb-190806/bin/xtb /data/atarzia/projects/unsymm/screening/production/free_energy_calculations/fe_5d3_a/input_structure.xyz --gfn 2 --hess --parallel 6 --etemp 300 --gbsa dmso --chrg 4 --uhf 0 -I det_control.in
          coordinate file            : /data/atarzia/projects/unsymm/screening/production/free_energy_calculations/fe_5d3_a/input_structure.xyz
          omp threads                :                     6
          number of atoms            :                   162
          number of electrons        :                   496
          charge                     :                     4
          spin                       :                   0.0
          first test random number   :      0.97025592460844


########################################################################
# WARNING! Please study the warnings concerning your input carefully
#  - XTBHOME is not set, using HOME instead
#  - XTBPATH is not set, using XTBHOME instead
#  - Process number higher than OMP_NUM_THREADS, I hope you know what you are doing.
########################################################################

           ------------------------------------------------- 
          |                 G F N 2 - x T B                 |
          | Geometry, Frequencies, Noncovalent interactions |
          |            JCTC 2019 parametrisation            |
           ------------------------------------------------- 
             k(s)              :                1.8500
             k(p)              :                2.2300
             k(d)              :                2.2300
             k(f)              :                2.0000
             kEN (H0ij)        :               -2.0000
             D4 a1             :                0.5200
             D4 a2             :                5.0000
             D4 s6             :                1.0000
             D4 s8             :                2.7000
             D4 s9             :                5.0000
             alphaj            :                2.0000

  Z AO/shell   Hii/eV     exponent
  1     Wed Apr 25 08:07:45 CEST 2018   EN: 2.200 GM2: 0.406  GM3: 0.0800  RAES: 1.40
     1s    -10.707211    1.230000
  6     Wed Apr 25 08:07:45 CEST 2018   EN: 2.550 GM2: 0.538  GM3: 0.1500  RAES: 3.00
     2s    -13.970922    2.096432
     2p    -10.063292    1.800000
  7     Wed Apr 25 08:07:45 CEST 2018   EN: 3.040 GM2: 0.461  GM3:-0.0640  RAES: 1.90
     2s    -16.686243    2.339881
     2p    -12.523956    2.014332
 46     Wed Apr 25 16:26:58 CEST 2018   EN: 2.200 GM2: 0.273  GM3: 0.0800  RAES: 5.00
     4d    -11.963518    2.353691
     5s     -9.714059    1.828354
     5p     -2.035281    1.333352

 Solvent             : dmso
 Using internal parameter file: .param_gbsa2_dmso
 Gsolv ref. state (COSMO-RS): gsolv [1 M gas/solution]
 temperature (mdtemp)       :    298.150000000000     
 dielectric constant        :    46.6800000000000     
 rho                        :    1.10000000000000     
 mass                       :    78.1300000000000     
 surface tension            :    15.5689454083859     
 probe radius               :   0.949087640000000     
 vdW radii scaling          :    1.00000000000000     
 Gshift (Eh)                :   5.161738145414381E-003
 c1                         :    1.63948621000000     
 soset                      :   1.179665000000000E-002
 HB correction              :  T
           ------------------------------------------------- 
          |        Self-Consistent Charge Iterations        |
           ------------------------------------------------- 

          ...................................................
          :                      SETUP                      :
          :.................................................:
          :  # basis functions                 492          :
          :  # atomic orbitals                 490          :
          :  # shells                          270          :
          :  # electrons                       496          :
          :  max. iterations                   250          :
          :  Hamiltonian                  GFN2-xTB          :
          :  restarted?                      false          :
          :  GBSA solvation                   true          :
          :  PC potential                    false          :
          :  electronic temp.          300.0000000     K    :
          :  accuracy                    1.0000000          :
          :  -> integral cutoff          0.2500000E+02      :
          :  -> integral neglect         0.1000000E-07      :
          :  -> SCF convergence          0.1000000E-05 Eh   :
          :  -> wf. convergence          0.1000000E-03 e    :
          :  Broyden damping             0.4000000          :
          ...................................................

 iter      E             dE          RMSdq      gap      omega  full diag
   1   -269.5172200 -0.269517E+03  0.632E+00    2.18       0.0  T
   2   -269.9841073 -0.466887E+00  0.423E+00    1.68       1.0  T
   3   -269.7402934  0.243814E+00  0.232E+00    1.79       1.0  T
   4   -270.1738207 -0.433527E+00  0.103E+00    2.05       1.0  T
   5   -270.2479936 -0.741730E-01  0.523E-01    2.05       1.0  T
   6   -270.2876167 -0.396231E-01  0.201E-01    2.08       1.0  T
   7   -270.2896521 -0.203544E-02  0.875E-02    2.10       1.0  T
   8   -270.2896898 -0.376822E-04  0.313E-02    2.10       1.0  T
   9   -270.2897403 -0.505156E-04  0.170E-02    2.10       1.0  T
  10   -270.2897668 -0.264496E-04  0.812E-03    2.10       1.0  T
  11   -270.2897731 -0.635298E-05  0.404E-03    2.10       1.9  T
  12   -270.2897737 -0.572746E-06  0.188E-03    2.10       4.2  T
  13   -270.2897740 -0.254055E-06  0.790E-04    2.10      10.0  T
  14   -270.2897740 -0.258484E-07  0.431E-04    2.10      18.2  T

   *** convergence criteria satisfied after 14 iterations ***

         #    Occupation            Energy/Eh            Energy/eV
      -------------------------------------------------------------
         1        2.0000           -0.7300189             -19.8648
       ...           ...                  ...                  ...
       242        2.0000           -0.4090460             -11.1307
       243        2.0000           -0.4088781             -11.1261
       244        2.0000           -0.4088012             -11.1240
       245        2.0000           -0.3958661             -10.7721
       246        2.0000           -0.3958659             -10.7721
       247        2.0000           -0.3957099             -10.7678
       248        2.0000           -0.3956968             -10.7675 (HOMO)
       249                         -0.3185894              -8.6693 (LUMO)
       250                         -0.3185863              -8.6692
       251                         -0.3161528              -8.6030
       252                         -0.3152796              -8.5792
       253                         -0.3103286              -8.4445
       ...                                ...                  ...
       490                          1.4034330              38.1894
      -------------------------------------------------------------
                  HL-Gap            0.0771074 Eh            2.0982 eV
             Fermi-level           -0.3571431 Eh           -9.7184 eV

 SCC (total)                   0 d,  0 h,  0 min,  1.731 sec
 SCC setup                      ...        0 min,  0.066 sec (  3.802%)
 Dispersion                     ...        0 min,  0.023 sec (  1.327%)
 integral evaluation            ...        0 min,  0.301 sec ( 17.365%)
 zeroth order Hamiltonian       ...        0 min,  0.006 sec (  0.326%)
 iterations                     ...        0 min,  1.068 sec ( 61.676%)
 molecular gradient             ...        0 min,  0.260 sec ( 15.002%)
 printout                       ...        0 min,  0.009 sec (  0.497%)

         :::::::::::::::::::::::::::::::::::::::::::::::::::::
         ::                     SUMMARY                     ::
         :::::::::::::::::::::::::::::::::::::::::::::::::::::
         :: total energy            -265.166163081061 Eh    ::
         :: total w/o Gsasa/hb      -265.038738920283 Eh    ::
         :: gradient norm              0.000668360764 Eh/a0 ::
         :: HOMO-LUMO gap              2.098197819139 eV    ::
         ::.................................................::
         :: SCC energy              -270.403316457600 Eh    ::
         :: -> isotropic ES            0.623549166555 Eh    ::
         :: -> anisotropic ES         -0.089679165112 Eh    ::
         :: -> anisotropic XC          0.193708840710 Eh    ::
         :: -> dispersion             -0.229318145001 Eh    ::
         :: -> Gsolv                  -0.661071791541 Eh    ::
         ::    -> Gborn               -0.533647630763 Eh    ::
         ::    -> Gsasa               -0.118704198723 Eh    ::
         ::    -> Ghb                 -0.013881700200 Eh    ::
         ::    -> Gshift               0.005161738145 Eh    ::
         :: repulsion energy           5.235521704637 Eh    ::
         :: add. restraining           0.000000000000 Eh    ::
         :::::::::::::::::::::::::::::::::::::::::::::::::::::

           ------------------------------------------------- 
          |                Numerical Hessian                |
           ------------------------------------------------- 
step length          :   0.00500
SCC accuracy         :   0.30000
Hessian scale factor :   1.00000
frozen atoms in %    :   0.00000    0
RMS gradient         :   0.00067
estimated CPU  time     93.79 min
estimated wall time     23.50 min

writing file <hessian>.

 projected vibrational frequencies (cm-1)
eigval :       -0.00    -0.00    -0.00     0.00     0.00     0.00
eigval :        3.72     5.73     5.82     6.21     8.72    14.35
eigval :       14.51    15.11    19.19    19.28    21.26    21.75
eigval :       22.89    31.94    32.65    33.12    43.55    45.89
eigval :       46.53    46.57    51.29    52.83    55.13    55.24
eigval :       58.33    58.67    63.03    66.46    80.38    82.50
eigval :       82.59    84.31    89.97    91.11    91.41    96.12
eigval :       98.58   104.24   104.38   109.35   111.91   114.45
eigval :      116.56   116.62   122.28   128.19   131.35   131.68
eigval :      135.19   135.89   143.26   143.29   147.02   164.84
eigval :      165.00   173.72   173.92   175.09   175.30   179.00
eigval :      181.47   183.72   185.10   198.11   198.20   220.57
eigval :      222.13   222.17   228.89   234.83   236.22   253.75
eigval :      253.78   253.85   259.83   263.82   263.94   268.24
eigval :      272.22   272.62   272.75   281.20   284.80   286.98
eigval :      287.02   292.80   292.91   293.34   329.32   333.18
eigval :      333.43   333.90   337.15   337.26   339.65   341.46
eigval :      341.57   342.48   345.42   353.10   368.77   387.57
eigval :      390.86   392.62   392.86   394.77   396.72   396.95
eigval :      418.78   418.83   418.84   418.88   435.62   436.19
eigval :      436.32   436.39   438.03   452.12   453.37   453.39
eigval :      455.60   456.34   456.37   456.53   477.89   477.93
eigval :      478.03   479.29   486.35   487.50   487.52   488.65
eigval :      499.19   500.07   500.28   500.29   504.01   515.17
eigval :      521.27   521.28   523.19   525.07   525.10   525.13
eigval :      528.26   530.06   530.58   530.62   536.72   539.98
eigval :      541.85   541.87   572.23   575.38   575.97   576.01
eigval :      576.30   576.44   577.32   577.40   606.63   619.06
eigval :      619.06   619.20   619.84   624.36   628.70   628.71
eigval :      647.43   647.51   647.53   647.56   659.61   660.30
eigval :      660.51   660.52   660.89   670.72   670.84   673.46
eigval :      716.27   718.06   718.06   718.61   723.60   725.58
eigval :      725.90   725.97   766.23   772.54   776.19   776.41
eigval :      779.02   779.15   780.72   783.11   785.84   786.64
eigval :      786.72   788.26   793.77   799.73   799.75   800.11
eigval :      803.74   809.98   813.16   813.74   813.76   819.45
eigval :      819.84   831.58   842.55   852.57   852.74   853.82
eigval :      855.72   856.00   856.19   856.70   860.60   860.97
eigval :      861.31   867.71   875.90   880.27   883.19   883.23
eigval :      885.05   887.59   891.41   891.71   891.74   892.20
eigval :      895.61   895.64   896.03   896.18   896.47   896.65
eigval :      896.93   896.96   898.28   899.28   931.41   931.61
eigval :      931.88   932.42   933.80   933.89   934.09   934.37
eigval :      934.56   934.67   934.82   934.86   945.08   947.77
eigval :      949.39   949.40   982.82   984.27   984.63   984.66
eigval :      998.74  1002.22  1002.27  1004.55  1046.17  1047.25
eigval :     1047.29  1048.18  1073.85  1074.02  1074.26  1074.32
eigval :     1080.95  1081.46  1081.57  1084.18  1106.88  1107.21
eigval :     1107.31  1108.21  1121.29  1122.62  1122.69  1123.15
eigval :     1124.63  1126.84  1126.89  1131.75  1134.53  1136.65
eigval :     1136.80  1138.26  1148.97  1157.73  1157.79  1166.30
eigval :     1170.41  1170.89  1170.97  1178.03  1181.05  1182.34
eigval :     1182.45  1184.73  1184.91  1185.00  1185.26  1186.42
eigval :     1193.72  1196.09  1196.14  1201.28  1210.24  1212.70
eigval :     1212.77  1217.41  1219.56  1219.89  1220.14  1222.28
eigval :     1222.96  1226.96  1226.98  1237.10  1244.02  1244.15
eigval :     1244.29  1244.84  1285.87  1285.94  1285.98  1288.26
eigval :     1291.74  1291.75  1293.52  1295.03  1309.21  1309.76
eigval :     1309.78  1312.13  1312.22  1312.35  1312.37  1312.50
eigval :     1323.15  1323.21  1324.10  1324.81  1348.35  1348.35
eigval :     1350.47  1352.38  1369.58  1370.92  1371.06  1371.11
eigval :     1378.36  1378.38  1378.74  1383.15  1399.34  1400.20
eigval :     1400.22  1401.59  1404.22  1405.07  1405.09  1405.22
eigval :     1425.24  1425.61  1425.65  1426.07  1450.56  1450.62
eigval :     1451.19  1451.75  1464.04  1464.04  1465.12  1465.57
eigval :     1473.15  1473.20  1473.52  1473.80  1525.61  1526.49
eigval :     1527.76  1527.78  1536.85  1536.93  1537.59  1537.67
eigval :     1542.09  1542.60  1542.69  1542.89  1555.19  1555.24
eigval :     1555.31  1555.35  1558.05  1559.59  1560.16  1560.20
eigval :     1566.90  1567.24  1567.35  1567.45  1574.69  1574.86
eigval :     1574.94  1575.05  2304.89  2305.08  2305.17  2305.59
eigval :     2307.61  2307.81  2307.90  2308.23  2964.16  2966.96
eigval :     2967.20  2972.35  2974.88  2974.97  2975.95  2982.43
eigval :     3003.79  3004.99  3005.06  3006.71  3007.73  3007.84
eigval :     3007.88  3011.12  3080.33  3080.66  3080.82  3081.31
eigval :     3093.29  3093.33  3093.34  3093.62  3094.15  3094.34
eigval :     3094.44  3094.59  3100.50  3100.66  3100.76  3101.40
eigval :     3101.90  3102.01  3102.04  3102.48  3107.16  3107.39
eigval :     3107.49  3107.59  3108.67  3108.85  3109.17  3109.45
eigval :     3109.60  3109.75  3109.89  3110.21  3119.27  3119.39
eigval :     3119.49  3119.56  3119.61  3119.82  3119.93  3120.18
           -------------------------------------------------
          |                Property Printout                |
           -------------------------------------------------

    * Orbital Energies and Occupations

         #    Occupation            Energy/Eh            Energy/eV
      -------------------------------------------------------------
         1        2.0000           -0.7300125             -19.8646
       ...           ...                  ...                  ...
       236        2.0000           -0.4226826             -11.5018
       237        2.0000           -0.4223169             -11.4918
       238        2.0000           -0.4223103             -11.4916
       239        2.0000           -0.4197552             -11.4221
       240        2.0000           -0.4180199             -11.3749
       241        2.0000           -0.4090476             -11.1308
       242        2.0000           -0.4090417             -11.1306
       243        2.0000           -0.4088737             -11.1260
       244        2.0000           -0.4087969             -11.1239
       245        2.0000           -0.3958623             -10.7720
       246        2.0000           -0.3958621             -10.7720
       247        2.0000           -0.3957060             -10.7677
       248        2.0000           -0.3956930             -10.7674 (HOMO)
       249                         -0.3185852              -8.6691 (LUMO)
       250                         -0.3185821              -8.6691
       251                         -0.3161484              -8.6028
       252                         -0.3152757              -8.5791
       253                         -0.3103220              -8.4443
       254                         -0.3103177              -8.4442
       255                         -0.3071796              -8.3588
       256                         -0.3068334              -8.3494
       257                         -0.2972345              -8.0882
       258                         -0.2972263              -8.0879
       259                         -0.2952078              -8.0330
       ...                                ...                  ...
       490                          1.4034358              38.1894
      -------------------------------------------------------------
                  HL-Gap            0.0771078 Eh            2.0982 eV
             Fermi-level           -0.3571391 Eh           -9.7182 eV

     #   Z        covCN         q      C6AA      α(0)
     1  46 Pd     3.541    -0.086   274.480    34.167
     2  46 Pd     3.512    -0.077   274.062    34.141
     3   6 C      1.983    -0.025    31.707     9.093
     4   6 C      1.981    -0.034    31.958     9.129
     5   6 C      2.966     0.043    27.022     8.526
     6   6 C      2.921    -0.018    28.461     8.749
     7   6 C      2.914    -0.019    28.487     8.752
     8   6 C      2.914    -0.031    28.782     8.797
     9   6 C      2.981     0.004    27.926     8.668
    10   6 C      2.893     0.061    26.629     8.461
    11   7 N      2.667    -0.100    23.200     7.154
    12   6 C      2.918     0.039    27.124     8.540
    13   6 C      2.911    -0.028    28.696     8.784
    14   6 C      3.000     0.015    27.659     8.627
    15   1 H      0.926     0.058     2.223     2.331
    16   1 H      0.926     0.057     2.233     2.337
    17   1 H      0.926     0.071     2.071     2.250
    18   1 H      0.925     0.121     1.606     1.982
    19   1 H      0.925     0.137     1.481     1.903
    20   1 H      0.926     0.098     1.807     2.102
    21   6 C      2.970     0.039    27.121     8.542
    22   6 C      2.924    -0.024    28.605     8.771
    23   6 C      2.916    -0.026    28.662     8.779
    24   6 C      2.927    -0.026    28.650     8.778
    25   6 C      2.970     0.038    27.140     8.545
    26   6 C      2.935    -0.033    28.817     8.804
    27   1 H      0.926     0.041     2.440     2.443
    28   1 H      0.926     0.035     2.519     2.482
    29   1 H      0.926     0.048     2.344     2.394
    30   1 H      0.926     0.075     2.034     2.231
    31   6 C      1.983    -0.008    31.256     9.028
    32   6 C      1.980    -0.033    31.932     9.126
    33   6 C      2.965     0.050    26.885     8.505
    34   6 C      2.934    -0.006    28.164     8.704
    35   6 C      2.911    -0.028    28.709     8.786
    36   6 C      2.921     0.053    26.817     8.492
    37   7 N      2.664    -0.094    23.087     7.136
    38   6 C      2.896     0.049    26.896     8.503
    39   1 H      0.926     0.084     1.941     2.179
    40   1 H      0.926     0.093     1.847     2.125
    41   1 H      0.925     0.119     1.619     1.990
    42   1 H      0.925     0.145     1.428     1.869
    43   6 C      1.983    -0.025    31.707     9.094
    44   6 C      1.981    -0.034    31.958     9.129
    45   6 C      2.966     0.043    27.022     8.527
    46   6 C      2.921    -0.018    28.461     8.749
    47   6 C      2.914    -0.019    28.487     8.752
    48   6 C      2.914    -0.031    28.783     8.797
    49   6 C      2.981     0.004    27.927     8.669
    50   6 C      2.893     0.061    26.629     8.461
    51   7 N      2.667    -0.100    23.196     7.153
    52   6 C      2.918     0.039    27.124     8.540
    53   6 C      2.911    -0.028    28.696     8.784
    54   6 C      3.000     0.015    27.659     8.627
    55   1 H      0.926     0.058     2.222     2.331
    56   1 H      0.926     0.057     2.233     2.337
    57   1 H      0.926     0.071     2.071     2.250
    58   1 H      0.925     0.121     1.606     1.982
    59   1 H      0.925     0.137     1.482     1.903
    60   1 H      0.926     0.098     1.807     2.102
    61   6 C      2.970     0.039    27.121     8.542
    62   6 C      2.924    -0.024    28.605     8.771
    63   6 C      2.916    -0.026    28.662     8.779
    64   6 C      2.927    -0.026    28.650     8.778
    65   6 C      2.970     0.038    27.141     8.545
    66   6 C      2.935    -0.033    28.817     8.804
    67   1 H      0.926     0.041     2.440     2.443
    68   1 H      0.926     0.035     2.519     2.482
    69   1 H      0.926     0.048     2.344     2.394
    70   1 H      0.926     0.075     2.034     2.230
    71   6 C      1.983    -0.008    31.255     9.028
    72   6 C      1.980    -0.033    31.933     9.126
    73   6 C      2.965     0.050    26.885     8.505
    74   6 C      2.934    -0.006    28.164     8.704
    75   6 C      2.911    -0.028    28.709     8.786
    76   6 C      2.921     0.053    26.817     8.492
    77   7 N      2.664    -0.094    23.085     7.136
    78   6 C      2.896     0.049    26.897     8.503
    79   1 H      0.926     0.084     1.942     2.179
    80   1 H      0.926     0.093     1.847     2.125
    81   1 H      0.925     0.119     1.619     1.990
    82   1 H      0.925     0.145     1.428     1.869
    83   6 C      1.983    -0.025    31.708     9.094
    84   6 C      1.981    -0.034    31.958     9.129
    85   6 C      2.966     0.043    27.022     8.527
    86   6 C      2.921    -0.018    28.461     8.749
    87   6 C      2.914    -0.019    28.487     8.752
    88   6 C      2.914    -0.031    28.782     8.797
    89   6 C      2.981     0.004    27.926     8.668
    90   6 C      2.893     0.061    26.630     8.461
    91   7 N      2.667    -0.099    23.194     7.153
    92   6 C      2.918     0.039    27.124     8.540
    93   6 C      2.911    -0.028    28.696     8.784
    94   6 C      3.000     0.015    27.659     8.627
    95   1 H      0.926     0.058     2.223     2.331
    96   1 H      0.926     0.057     2.233     2.337
    97   1 H      0.926     0.071     2.071     2.250
    98   1 H      0.925     0.121     1.605     1.981
    99   1 H      0.925     0.137     1.482     1.903
   100   1 H      0.926     0.098     1.807     2.102
   101   6 C      2.970     0.039    27.121     8.542
   102   6 C      2.924    -0.024    28.605     8.771
   103   6 C      2.916    -0.026    28.661     8.779
   104   6 C      2.927    -0.026    28.650     8.778
   105   6 C      2.970     0.038    27.141     8.545
   106   6 C      2.935    -0.033    28.817     8.804
   107   1 H      0.926     0.041     2.440     2.443
   108   1 H      0.926     0.035     2.520     2.482
   109   1 H      0.926     0.048     2.344     2.394
   110   1 H      0.926     0.075     2.035     2.231
   111   6 C      1.983    -0.008    31.256     9.029
   112   6 C      1.980    -0.033    31.933     9.126
   113   6 C      2.965     0.050    26.885     8.505
   114   6 C      2.934    -0.006    28.165     8.704
   115   6 C      2.911    -0.028    28.709     8.786
   116   6 C      2.922     0.053    26.817     8.492
   117   7 N      2.664    -0.094    23.083     7.136
   118   6 C      2.896     0.049    26.897     8.503
   119   1 H      0.926     0.084     1.942     2.179
   120   1 H      0.926     0.093     1.847     2.125
   121   1 H      0.925     0.119     1.619     1.990
   122   1 H      0.925     0.145     1.428     1.869
   123   6 C      1.983    -0.025    31.708     9.094
   124   6 C      1.981    -0.034    31.958     9.129
   125   6 C      2.966     0.043    27.022     8.526
   126   6 C      2.921    -0.018    28.461     8.749
   127   6 C      2.914    -0.019    28.487     8.752
   128   6 C      2.914    -0.031    28.783     8.797
   129   6 C      2.981     0.004    27.926     8.668
   130   6 C      2.893     0.061    26.629     8.461
   131   7 N      2.667    -0.100    23.198     7.153
   132   6 C      2.918     0.039    27.124     8.540
   133   6 C      2.911    -0.028    28.697     8.784
   134   6 C      3.000     0.015    27.660     8.627
   135   1 H      0.926     0.058     2.223     2.331
   136   1 H      0.926     0.057     2.233     2.337
   137   1 H      0.926     0.071     2.071     2.250
   138   1 H      0.925     0.121     1.606     1.981
   139   1 H      0.925     0.137     1.481     1.903
   140   1 H      0.926     0.098     1.807     2.102
   141   6 C      2.970     0.039    27.121     8.542
   142   6 C      2.924    -0.024    28.605     8.771
   143   6 C      2.916    -0.026    28.662     8.779
   144   6 C      2.927    -0.026    28.650     8.778
   145   6 C      2.970     0.038    27.141     8.545
   146   6 C      2.935    -0.033    28.817     8.804
   147   1 H      0.926     0.041     2.440     2.443
   148   1 H      0.926     0.035     2.520     2.482
   149   1 H      0.926     0.048     2.344     2.394
   150   1 H      0.926     0.075     2.034     2.230
   151   6 C      1.983    -0.008    31.256     9.029
   152   6 C      1.980    -0.033    31.933     9.126
   153   6 C      2.965     0.050    26.885     8.505
   154   6 C      2.934    -0.006    28.165     8.704
   155   6 C      2.911    -0.028    28.709     8.786
   156   6 C      2.922     0.053    26.817     8.492
   157   7 N      2.664    -0.094    23.085     7.136
   158   6 C      2.896     0.049    26.896     8.503
   159   1 H      0.926     0.084     1.941     2.179
   160   1 H      0.926     0.093     1.847     2.125
   161   1 H      0.925     0.119     1.619     1.990
   162   1 H      0.925     0.145     1.428     1.869

 Mol. C6AA /au·bohr⁶  :     437607.202474
 Mol. C8AA /au·bohr⁸  :   12389781.341112
 Mol. α(0) /au        :       1085.901362


Wiberg/Mayer (AO) data.
largest (>0.10) Wiberg bond orders for each atom
          total WBO             WBO to atom ...
     1  Pd  3.523        N   91 0.596    N  131 0.596    N   51 0.596    N   11 0.596
     2  Pd  3.495        N  117 0.592    N   77 0.592    N  157 0.592    N   37 0.592
     3  C   3.945        C    4 2.645    C   21 1.129
     4  C   3.954        C    3 2.645    C    5 1.140
     5  C   3.988        C    6 1.442    C   14 1.213    C    4 1.140
     6  C   3.964        C    5 1.442    C    7 1.347    H   15 0.968
     7  C   3.987        C    8 1.534    C    6 1.347    H   16 0.968
     8  C   3.942        C    7 1.534    C    9 1.272    H   17 0.965
     9  C   3.987        C   10 1.288    C    8 1.272    C   14 1.238
    10  C   3.962        N   11 1.451    C    9 1.288    H   18 0.917    C   13 0.104
    11  N   3.535        C   10 1.451    C   12 1.236    Pd   1 0.596
    12  C   3.963        C   13 1.548    N   11 1.236    H   19 0.895
    13  C   3.981        C   12 1.548    C   14 1.291    H   20 0.955    C   10 0.104
    14  C   3.983        C   13 1.291    C    9 1.238    C    5 1.213
    15  H   0.996        C    6 0.968
    16  H   0.995        C    7 0.968
    17  H   0.994        C    8 0.965
    18  H   0.984        C   10 0.917
    19  H   0.980        C   12 0.895
    20  H   0.989        C   13 0.955
    21  C   3.988        C   26 1.368    C   22 1.347    C    3 1.129
    22  C   3.939        C   23 1.446    C   21 1.347    H   27 0.971
    23  C   3.991        C   24 1.449    C   22 1.446    H   28 0.969
    24  C   3.945        C   23 1.449    C   25 1.340    H   29 0.970
    25  C   3.987        C   26 1.372    C   24 1.340    C   31 1.130
    26  C   3.957        C   25 1.372    C   21 1.368    H   30 0.966
    27  H   0.998        C   22 0.971
    28  H   0.996        C   23 0.969
    29  H   0.998        C   24 0.970
    30  H   0.994        C   26 0.966
    31  C   3.947        C   32 2.647    C   25 1.130
    32  C   3.952        C   31 2.647    C   33 1.138
    33  C   3.985        C   38 1.350    C   34 1.337    C   32 1.138
    34  C   3.970        C   35 1.454    C   33 1.337    H   39 0.964
    35  C   3.981        C   34 1.454    C   36 1.424    H   40 0.961
    36  C   3.934        C   35 1.424    N   37 1.341    H   41 0.904
    37  N   3.539        C   38 1.369    C   36 1.341    Pd   2 0.592
    38  C   3.946        N   37 1.369    C   33 1.350    H   42 0.913
    39  H   0.991        C   34 0.964
    40  H   0.989        C   35 0.961
    41  H   0.985        C   36 0.904
    42  H   0.978        C   38 0.913
    43  C   3.945        C   44 2.645    C   61 1.129
    44  C   3.954        C   43 2.645    C   45 1.140
    45  C   3.988        C   46 1.442    C   54 1.214    C   44 1.140
    46  C   3.964        C   45 1.442    C   47 1.347    H   55 0.968
    47  C   3.987        C   48 1.534    C   46 1.347    H   56 0.968
    48  C   3.942        C   47 1.534    C   49 1.272    H   57 0.965
    49  C   3.987        C   50 1.288    C   48 1.272    C   54 1.238
    50  C   3.962        N   51 1.452    C   49 1.288    H   58 0.917    C   53 0.104
    51  N   3.535        C   50 1.452    C   52 1.236    Pd   1 0.596
    52  C   3.963        C   53 1.548    N   51 1.236    H   59 0.895
    53  C   3.981        C   52 1.548    C   54 1.291    H   60 0.955    C   50 0.104
    54  C   3.983        C   53 1.291    C   49 1.238    C   45 1.214
    55  H   0.996        C   46 0.968
    56  H   0.995        C   47 0.968
    57  H   0.994        C   48 0.965
    58  H   0.984        C   50 0.917
    59  H   0.980        C   52 0.895
    60  H   0.989        C   53 0.955
    61  C   3.988        C   66 1.368    C   62 1.347    C   43 1.129
    62  C   3.939        C   63 1.445    C   61 1.347    H   67 0.971
    63  C   3.991        C   64 1.449    C   62 1.445    H   68 0.969
    64  C   3.945        C   63 1.449    C   65 1.340    H   69 0.970
    65  C   3.987        C   66 1.372    C   64 1.340    C   71 1.130
    66  C   3.957        C   65 1.372    C   61 1.368    H   70 0.966
    67  H   0.998        C   62 0.971
    68  H   0.996        C   63 0.969
    69  H   0.998        C   64 0.970
    70  H   0.994        C   66 0.966
    71  C   3.947        C   72 2.647    C   65 1.130
    72  C   3.952        C   71 2.647    C   73 1.138
    73  C   3.985        C   78 1.350    C   74 1.337    C   72 1.138
    74  C   3.970        C   75 1.454    C   73 1.337    H   79 0.964
    75  C   3.981        C   74 1.454    C   76 1.424    H   80 0.961
    76  C   3.934        C   75 1.424    N   77 1.341    H   81 0.904
    77  N   3.539        C   78 1.369    C   76 1.341    Pd   2 0.592
    78  C   3.946        N   77 1.369    C   73 1.350    H   82 0.913
    79  H   0.991        C   74 0.964
    80  H   0.989        C   75 0.961
    81  H   0.985        C   76 0.904
    82  H   0.978        C   78 0.913
    83  C   3.945        C   84 2.645    C  101 1.129
    84  C   3.954        C   83 2.645    C   85 1.141
    85  C   3.988        C   86 1.442    C   94 1.213    C   84 1.141
    86  C   3.964        C   85 1.442    C   87 1.347    H   95 0.968
    87  C   3.987        C   88 1.534    C   86 1.347    H   96 0.968
    88  C   3.942        C   87 1.534    C   89 1.272    H   97 0.965
    89  C   3.987        C   90 1.288    C   88 1.272    C   94 1.238
    90  C   3.962        N   91 1.452    C   89 1.288    H   98 0.917    C   93 0.104
    91  N   3.535        C   90 1.452    C   92 1.236    Pd   1 0.596
    92  C   3.963        C   93 1.548    N   91 1.236    H   99 0.895
    93  C   3.981        C   92 1.548    C   94 1.291    H  100 0.955    C   90 0.104
    94  C   3.983        C   93 1.291    C   89 1.238    C   85 1.213
    95  H   0.996        C   86 0.968
    96  H   0.995        C   87 0.968
    97  H   0.994        C   88 0.965
    98  H   0.984        C   90 0.917
    99  H   0.980        C   92 0.895
   100  H   0.989        C   93 0.955
   101  C   3.988        C  106 1.368    C  102 1.346    C   83 1.129
   102  C   3.939        C  103 1.446    C  101 1.346    H  107 0.971
   103  C   3.991        C  104 1.449    C  102 1.446    H  108 0.969
   104  C   3.945        C  103 1.449    C  105 1.340    H  109 0.970
   105  C   3.987        C  106 1.372    C  104 1.340    C  111 1.130
   106  C   3.957        C  105 1.372    C  101 1.368    H  110 0.966
   107  H   0.998        C  102 0.971
   108  H   0.996        C  103 0.969
   109  H   0.998        C  104 0.970
   110  H   0.994        C  106 0.966
   111  C   3.947        C  112 2.647    C  105 1.130
   112  C   3.952        C  111 2.647    C  113 1.138
   113  C   3.985        C  118 1.350    C  114 1.337    C  112 1.138
   114  C   3.970        C  115 1.455    C  113 1.337    H  119 0.964
   115  C   3.981        C  114 1.455    C  116 1.424    H  120 0.961
   116  C   3.934        C  115 1.424    N  117 1.341    H  121 0.904
   117  N   3.539        C  118 1.368    C  116 1.341    Pd   2 0.592
   118  C   3.946        N  117 1.368    C  113 1.350    H  122 0.913
   119  H   0.991        C  114 0.964
   120  H   0.989        C  115 0.961
   121  H   0.985        C  116 0.904
   122  H   0.978        C  118 0.913
   123  C   3.945        C  124 2.645    C  141 1.129
   124  C   3.954        C  123 2.645    C  125 1.141
   125  C   3.988        C  126 1.442    C  134 1.213    C  124 1.141
   126  C   3.964        C  125 1.442    C  127 1.347    H  135 0.968
   127  C   3.987        C  128 1.534    C  126 1.347    H  136 0.968
   128  C   3.942        C  127 1.534    C  129 1.272    H  137 0.965
   129  C   3.987        C  130 1.288    C  128 1.272    C  134 1.238
   130  C   3.962        N  131 1.451    C  129 1.288    H  138 0.917    C  133 0.104
   131  N   3.535        C  130 1.451    C  132 1.236    Pd   1 0.596
   132  C   3.963        C  133 1.548    N  131 1.236    H  139 0.895
   133  C   3.981        C  132 1.548    C  134 1.291    H  140 0.955    C  130 0.104
   134  C   3.983        C  133 1.291    C  129 1.238    C  125 1.213
   135  H   0.996        C  126 0.968
   136  H   0.995        C  127 0.968
   137  H   0.994        C  128 0.965
   138  H   0.984        C  130 0.917
   139  H   0.980        C  132 0.895
   140  H   0.989        C  133 0.955
   141  C   3.988        C  146 1.368    C  142 1.347    C  123 1.129
   142  C   3.939        C  143 1.445    C  141 1.347    H  147 0.971
   143  C   3.991        C  144 1.449    C  142 1.445    H  148 0.969
   144  C   3.945        C  143 1.449    C  145 1.340    H  149 0.970
   145  C   3.987        C  146 1.372    C  144 1.340    C  151 1.130
   146  C   3.957        C  145 1.372    C  141 1.368    H  150 0.966
   147  H   0.998        C  142 0.971
   148  H   0.996        C  143 0.969
   149  H   0.998        C  144 0.970
   150  H   0.994        C  146 0.966
   151  C   3.947        C  152 2.647    C  145 1.130
   152  C   3.952        C  151 2.647    C  153 1.138
   153  C   3.985        C  158 1.350    C  154 1.337    C  152 1.138
   154  C   3.970        C  155 1.454    C  153 1.337    H  159 0.964
   155  C   3.981        C  154 1.454    C  156 1.424    H  160 0.961
   156  C   3.934        C  155 1.424    N  157 1.341    H  161 0.904
   157  N   3.539        C  158 1.369    C  156 1.341    Pd   2 0.592
   158  C   3.946        N  157 1.369    C  153 1.350    H  162 0.913
   159  H   0.991        C  154 0.964
   160  H   0.989        C  155 0.961
   161  H   0.985        C  156 0.904
   162  H   0.978        C  158 0.913

molecular dipole:
                 x           y           z       tot (Debye)
 q only:        5.161       2.823       0.782
   full:        5.180       3.127       0.794      15.512
molecular quadrupole (traceless):
                xx          xy          yy          xz          yz          zz
 q only:     -141.715      31.513     293.944       2.537      19.139    -152.229
  q+dip:     -157.859      34.964     326.381       2.635      21.216    -168.521
   full:     -143.199      32.360     296.986       2.550      19.401    -153.787

           -------------------------------------------------
          |               Frequency Printout                |
           -------------------------------------------------
 projected vibrational frequencies (cm-1)
eigval :       -0.00    -0.00    -0.00     0.00     0.00     0.00
eigval :        3.72     5.73     5.82     6.21     8.72    14.35
eigval :       14.51    15.11    19.19    19.28    21.26    21.75
eigval :       22.89    31.94    32.65    33.12    43.55    45.89
eigval :       46.53    46.57    51.29    52.83    55.13    55.24
eigval :       58.33    58.67    63.03    66.46    80.38    82.50
eigval :       82.59    84.31    89.97    91.11    91.41    96.12
eigval :       98.58   104.24   104.38   109.35   111.91   114.45
eigval :      116.56   116.62   122.28   128.19   131.35   131.68
eigval :      135.19   135.89   143.26   143.29   147.02   164.84
eigval :      165.00   173.72   173.92   175.09   175.30   179.00
eigval :      181.47   183.72   185.10   198.11   198.20   220.57
eigval :      222.13   222.17   228.89   234.83   236.22   253.75
eigval :      253.78   253.85   259.83   263.82   263.94   268.24
eigval :      272.22   272.62   272.75   281.20   284.80   286.98
eigval :      287.02   292.80   292.91   293.34   329.32   333.18
eigval :      333.43   333.90   337.15   337.26   339.65   341.46
eigval :      341.57   342.48   345.42   353.10   368.77   387.57
eigval :      390.86   392.62   392.86   394.77   396.72   396.95
eigval :      418.78   418.83   418.84   418.88   435.62   436.19
eigval :      436.32   436.39   438.03   452.12   453.37   453.39
eigval :      455.60   456.34   456.37   456.53   477.89   477.93
eigval :      478.03   479.29   486.35   487.50   487.52   488.65
eigval :      499.19   500.07   500.28   500.29   504.01   515.17
eigval :      521.27   521.28   523.19   525.07   525.10   525.13
eigval :      528.26   530.06   530.58   530.62   536.72   539.98
eigval :      541.85   541.87   572.23   575.38   575.97   576.01
eigval :      576.30   576.44   577.32   577.40   606.63   619.06
eigval :      619.06   619.20   619.84   624.36   628.70   628.71
eigval :      647.43   647.51   647.53   647.56   659.61   660.30
eigval :      660.51   660.52   660.89   670.72   670.84   673.46
eigval :      716.27   718.06   718.06   718.61   723.60   725.58
eigval :      725.90   725.97   766.23   772.54   776.19   776.41
eigval :      779.02   779.15   780.72   783.11   785.84   786.64
eigval :      786.72   788.26   793.77   799.73   799.75   800.11
eigval :      803.74   809.98   813.16   813.74   813.76   819.45
eigval :      819.84   831.58   842.55   852.57   852.74   853.82
eigval :      855.72   856.00   856.19   856.70   860.60   860.97
eigval :      861.31   867.71   875.90   880.27   883.19   883.23
eigval :      885.05   887.59   891.41   891.71   891.74   892.20
eigval :      895.61   895.64   896.03   896.18   896.47   896.65
eigval :      896.93   896.96   898.28   899.28   931.41   931.61
eigval :      931.88   932.42   933.80   933.89   934.09   934.37
eigval :      934.56   934.67   934.82   934.86   945.08   947.77
eigval :      949.39   949.40   982.82   984.27   984.63   984.66
eigval :      998.74  1002.22  1002.27  1004.55  1046.17  1047.25
eigval :     1047.29  1048.18  1073.85  1074.02  1074.26  1074.32
eigval :     1080.95  1081.46  1081.57  1084.18  1106.88  1107.21
eigval :     1107.31  1108.21  1121.29  1122.62  1122.69  1123.15
eigval :     1124.63  1126.84  1126.89  1131.75  1134.53  1136.65
eigval :     1136.80  1138.26  1148.97  1157.73  1157.79  1166.30
eigval :     1170.41  1170.89  1170.97  1178.03  1181.05  1182.34
eigval :     1182.45  1184.73  1184.91  1185.00  1185.26  1186.42
eigval :     1193.72  1196.09  1196.14  1201.28  1210.24  1212.70
eigval :     1212.77  1217.41  1219.56  1219.89  1220.14  1222.28
eigval :     1222.96  1226.96  1226.98  1237.10  1244.02  1244.15
eigval :     1244.29  1244.84  1285.87  1285.94  1285.98  1288.26
eigval :     1291.74  1291.75  1293.52  1295.03  1309.21  1309.76
eigval :     1309.78  1312.13  1312.22  1312.35  1312.37  1312.50
eigval :     1323.15  1323.21  1324.10  1324.81  1348.35  1348.35
eigval :     1350.47  1352.38  1369.58  1370.92  1371.06  1371.11
eigval :     1378.36  1378.38  1378.74  1383.15  1399.34  1400.20
eigval :     1400.22  1401.59  1404.22  1405.07  1405.09  1405.22
eigval :     1425.24  1425.61  1425.65  1426.07  1450.56  1450.62
eigval :     1451.19  1451.75  1464.04  1464.04  1465.12  1465.57
eigval :     1473.15  1473.20  1473.52  1473.80  1525.61  1526.49
eigval :     1527.76  1527.78  1536.85  1536.93  1537.59  1537.67
eigval :     1542.09  1542.60  1542.69  1542.89  1555.19  1555.24
eigval :     1555.31  1555.35  1558.05  1559.59  1560.16  1560.20
eigval :     1566.90  1567.24  1567.35  1567.45  1574.69  1574.86
eigval :     1574.94  1575.05  2304.89  2305.08  2305.17  2305.59
eigval :     2307.61  2307.81  2307.90  2308.23  2964.16  2966.96
eigval :     2967.20  2972.35  2974.88  2974.97  2975.95  2982.43
eigval :     3003.79  3004.99  3005.06  3006.71  3007.73  3007.84
eigval :     3007.88  3011.12  3080.33  3080.66  3080.82  3081.31
eigval :     3093.29  3093.33  3093.34  3093.62  3094.15  3094.34
eigval :     3094.44  3094.59  3100.50  3100.66  3100.76  3101.40
eigval :     3101.90  3102.01  3102.04  3102.48  3107.16  3107.39
eigval :     3107.49  3107.59  3108.67  3108.85  3109.17  3109.45
eigval :     3109.60  3109.75  3109.89  3110.21  3119.27  3119.39
eigval :     3119.49  3119.56  3119.61  3119.82  3119.93  3120.18
 reduced masses (amu)
   1: 25.32   2: 17.18   3: 22.04   4: 21.27   5: 21.80   6: 22.53   7: 11.47   8: 16.62
   9: 13.33  10: 14.70  11: 10.93  12: 12.57  13: 12.61  14: 11.09  15: 19.41  16: 19.44
  17: 38.13  18: 11.50  19: 12.36  20: 10.98  21: 15.15  22: 15.06  23: 15.16  24: 26.07
  25: 10.80  26: 10.73  27: 10.62  28: 11.33  29: 13.14  30: 13.34  31: 12.17  32: 11.98
  33: 11.16  34: 11.05  35: 18.53  36: 13.50  37: 13.52  38: 11.43  39: 11.24  40: 12.50
  41: 12.48  42: 10.99  43: 10.55  44: 15.20  45: 15.22  46: 11.60  47: 29.31  48: 10.57
  49: 12.12  50: 12.08  51: 12.80  52: 10.54  53: 10.65  54: 10.65  55: 11.30  56: 10.72
  57: 13.87  58: 13.85  59: 14.38  60: 10.45  61: 11.48  62: 14.98  63: 15.08  64: 11.03
  65: 11.03  66: 10.86  67: 11.12  68: 10.37  69: 11.14  70: 36.40  71: 36.43  72: 26.06
  73: 18.42  74: 18.35  75: 55.38  76: 11.20  77: 11.37  78: 36.58  79: 32.14  80: 37.06
  81: 11.49  82: 16.50  83: 16.45  84: 10.40  85: 10.67  86: 16.43  87: 16.55  88: 10.69
  89: 11.41  90: 31.68  91: 31.68  92: 32.76  93: 32.70  94: 23.82  95: 10.76  96: 11.53
  97: 11.44  98: 10.93  99: 14.47 100: 14.43 101: 10.47 102: 10.77 103: 10.78 104: 10.51
 105: 11.28 106: 16.90 107:  9.85 108: 10.04 109:  9.47 110:  9.46 111:  9.46 112:  9.44
 113: 13.72 114: 13.70 115: 11.86 116: 11.86 117: 11.86 118: 11.86 119: 10.22 120: 10.24
 121: 10.24 122: 10.24 123: 10.20 124: 10.25 125: 11.48 126: 11.48 127: 11.44 128: 11.27
 129: 11.26 130: 11.82 131: 11.94 132: 11.90 133: 11.40 134: 11.48 135: 11.52 136: 11.98
 137: 11.98 138: 11.61 139: 11.25 140: 11.27 141: 11.54 142: 11.54 143: 11.08 144: 11.18
 145: 12.21 146: 12.21 147: 11.47 148: 11.56 149: 11.71 150: 11.76 151: 11.57 152: 11.56
 153: 11.97 154: 11.97 155: 10.75 156: 10.90 157: 11.28 158: 11.28 159: 11.63 160: 11.41
 161: 11.85 162: 11.89 163: 11.63 164: 11.46 165: 11.99 166: 11.94 167: 10.26 168: 10.98
 169: 11.89 170: 10.98 171: 10.87 172: 11.87 173: 12.79 174: 12.79 175:  9.10 176:  9.10
 177:  9.09 178:  9.11 179: 11.36 180:  9.51 181: 11.44 182: 11.43 183: 10.65 184:  9.55
 185:  9.57 186:  9.92 187: 11.41 188: 11.53 189: 11.53 190: 11.44 191: 10.44 192: 10.72
 193: 10.75 194: 10.76 195:  5.06 196:  4.79 197:  4.64 198:  4.62 199:  4.41 200:  4.41
 201:  4.13 202:  4.34 203:  4.66 204:  4.71 205:  4.71 206:  4.63 207: 11.15 208: 10.89
 209: 10.90 210: 11.16 211:  3.73 212: 11.56 213: 11.59 214: 11.69 215: 11.69 216:  4.06
 217:  4.05 218:  3.73 219:  4.32 220:  4.03 221:  4.02 222:  4.57 223:  3.63 224:  3.62
 225:  3.61 226:  3.62 227:  3.79 228:  4.38 229:  4.38 230:  4.09 231: 11.12 232: 11.18
 233: 11.03 234: 11.00 235:  3.74 236:  3.50 237:  3.68 238:  3.75 239:  3.73 240:  3.73
 241:  4.01 242:  4.01 243:  3.99 244:  3.83 245:  3.87 246:  4.03 247:  4.04 248:  4.05
 249:  3.74 250:  3.62 251:  3.82 252:  3.82 253:  3.82 254:  3.81 255:  3.69 256:  3.64
 257:  3.58 258:  3.52 259:  3.53 260:  3.51 261:  3.68 262:  3.67 263: 10.87 264: 10.86
 265: 10.87 266: 10.87 267: 11.20 268: 11.22 269: 11.23 270: 11.23 271: 10.36 272: 10.52
 273: 10.52 274: 10.42 275:  9.06 276:  9.20 277:  9.20 278:  9.03 279:  7.18 280:  7.20
 281:  7.20 282:  7.28 283:  6.60 284:  6.61 285:  6.61 286:  6.76 287:  5.95 288:  5.94
 289:  5.94 290:  5.95 291:  3.91 292:  4.34 293:  4.33 294:  4.46 295:  4.23 296:  3.80
 297:  3.79 298:  3.56 299:  5.26 300:  5.81 301:  5.81 302:  6.03 303:  3.36 304:  2.98
 305:  2.99 306:  1.92 307:  2.80 308:  2.13 309:  2.13 310:  3.26 311:  3.48 312:  3.86
 313:  3.85 314:  1.93 315:  1.86 316:  1.89 317:  1.79 318:  4.17 319:  6.43 320:  6.22
 321:  6.23 322:  5.21 323:  4.58 324:  4.68 325:  4.70 326:  5.70 327:  7.05 328:  7.14
 329:  7.09 330:  6.31 331:  3.38 332:  3.25 333:  3.24 334:  3.23 335:  3.86 336:  3.85
 337:  3.85 338:  3.78 339:  7.15 340:  7.11 341:  7.13 342:  7.43 343: 12.01 344: 12.00
 345: 11.93 346: 11.66 347:  9.37 348:  9.27 349:  9.26 350:  9.51 351: 11.51 352: 11.74
 353: 11.76 354: 11.63 355: 10.07 356: 10.07 357: 10.09 358: 10.04 359:  9.88 360:  9.88
 361:  9.89 362:  9.70 363:  9.99 364: 10.10 365: 10.00 366: 10.01 367: 10.23 368: 10.23
 369: 10.29 370:  9.97 371: 11.40 372: 11.26 373: 11.26 374: 11.17 375:  9.97 376: 10.02
 377: 10.01 378: 10.08 379:  9.74 380:  9.70 381:  9.70 382:  9.68 383: 10.94 384: 10.94
 385: 10.98 386: 10.96 387: 11.19 388: 11.19 389: 11.18 390: 11.17 391: 10.77 392: 10.77
 393: 10.81 394: 10.81 395: 11.48 396: 11.55 397: 11.53 398: 11.53 399: 11.70 400: 11.71
 401: 11.71 402: 11.71 403: 11.67 404: 11.65 405: 11.64 406: 11.67 407: 11.44 408: 11.44
 409: 11.44 410: 11.44 411: 11.69 412: 11.69 413: 11.64 414: 11.64 415: 11.53 416: 11.56
 417: 11.57 418: 11.56 419: 11.51 420: 11.51 421: 11.52 422: 11.52 423: 12.01 424: 12.01
 425: 12.01 426: 12.01 427: 12.01 428: 12.01 429: 12.01 430: 12.01 431:  1.87 432:  1.85
 433:  1.85 434:  1.86 435:  1.85 436:  1.85 437:  1.84 438:  1.83 439:  1.85 440:  1.84
 441:  1.84 442:  1.86 443:  1.86 444:  1.86 445:  1.84 446:  1.85 447:  1.78 448:  1.78
 449:  1.78 450:  1.78 451:  1.78 452:  1.78 453:  1.78 454:  1.78 455:  1.84 456:  1.84
 457:  1.84 458:  1.84 459:  1.89 460:  1.89 461:  1.89 462:  1.89 463:  1.84 464:  1.84
 465:  1.84 466:  1.84 467:  1.83 468:  1.83 469:  1.83 470:  1.83 471:  1.81 472:  1.81
 473:  1.81 474:  1.81 475:  1.90 476:  1.90 477:  1.90 478:  1.89 479:  1.85 480:  1.90
 481:  1.90 482:  1.89 483:  1.86 484:  1.85 485:  1.90 486:  1.85
 IR intensities (amu)
   1:  0.73   2:  0.35   3:  0.59   4:  0.46   5:  0.35   6:  0.33   7:  0.05   8:  0.54
   9:  0.33  10:  0.43  11:  0.03  12:  0.07  13:  0.07  14:  0.02  15:  0.08  16:  0.08
  17:  0.01  18:  0.00  19:  0.02  20:  0.02  21:  0.25  22:  0.25  23:  0.04  24:  0.08
  25:  0.02  26:  0.02  27:  0.01  28:  0.01  29:  0.20  30:  0.21  31:  0.11  32:  0.10
  33:  0.00  34:  0.00  35:  0.13  36:  0.25  37:  0.25  38:  0.05  39:  0.00  40:  0.19
  41:  0.19  42:  0.01  43:  0.01  44:  0.02  45:  0.02  46:  0.00  47:  0.04  48:  0.01
  49:  0.14  50:  0.14  51:  0.01  52:  0.01  53:  0.14  54:  0.13  55:  0.01  56:  0.01
  57:  0.41  58:  0.41  59:  0.07  60:  0.01  61:  0.00  62:  0.54  63:  0.54  64:  0.24
  65:  0.24  66:  0.00  67:  0.01  68:  0.01  69:  0.01  70:  0.94  71:  0.93  72:  0.03
  73:  0.06  74:  0.06  75:  0.08  76:  0.01  77:  0.00  78:  0.97  79:  0.29  80:  1.00
  81:  0.05  82:  0.02  83:  0.03  84:  0.00  85:  0.09  86:  0.40  87:  0.40  88:  0.01
  89:  0.01  90:  1.07  91:  1.07  92:  0.27  93:  0.27  94:  0.18  95:  0.01  96:  0.16
  97:  0.15  98:  0.05  99:  0.20 100:  0.20 101:  0.04 102:  0.09 103:  0.09 104:  0.02
 105:  0.00 106:  0.08 107:  0.01 108:  0.01 109:  0.01 110:  0.08 111:  0.08 112:  0.02
 113:  0.27 114:  0.27 115:  0.06 116:  0.06 117:  0.06 118:  0.06 119:  0.01 120:  0.03
 121:  0.04 122:  0.03 123:  0.01 124:  0.01 125:  0.15 126:  0.16 127:  0.00 128:  0.09
 129:  0.08 130:  0.12 131:  0.22 132:  0.21 133:  0.07 134:  0.29 135:  0.00 136:  0.27
 137:  0.27 138:  0.53 139:  0.00 140:  0.18 141:  0.19 142:  0.19 143:  0.01 144:  0.01
 145:  0.17 146:  0.17 147:  0.01 148:  0.36 149:  0.27 150:  0.23 151:  0.00 152:  0.11
 153:  0.10 154:  0.10 155:  0.00 156:  0.00 157:  0.02 158:  0.02 159:  0.01 160:  0.03
 161:  0.47 162:  0.49 163:  0.07 164:  0.09 165:  0.41 166:  0.38 167:  0.01 168:  0.25
 169:  0.01 170:  0.25 171:  0.01 172:  0.12 173:  0.48 174:  0.48 175:  0.01 176:  0.01
 177:  0.01 178:  0.01 179:  0.00 180:  0.01 181:  0.13 182:  0.13 183:  0.05 184:  0.26
 185:  0.26 186:  0.01 187:  0.00 188:  0.14 189:  0.14 190:  0.50 191:  0.01 192:  0.02
 193:  0.07 194:  0.07 195:  0.03 196:  0.01 197:  0.23 198:  0.23 199:  0.10 200:  0.11
 201:  0.01 202:  0.01 203:  0.08 204:  0.37 205:  0.37 206:  0.02 207:  0.00 208:  0.05
 209:  0.05 210:  0.16 211:  0.02 212:  0.00 213:  0.01 214:  0.51 215:  0.51 216:  0.42
 217:  0.43 218:  0.00 219:  0.00 220:  0.06 221:  0.06 222:  0.01 223:  0.05 224:  0.10
 225:  0.07 226:  0.07 227:  0.00 228:  0.08 229:  0.08 230:  0.01 231:  0.01 232:  0.28
 233:  0.31 234:  0.31 235:  0.02 236:  0.01 237:  0.03 238:  0.06 239:  0.05 240:  0.08
 241:  0.01 242:  0.01 243:  0.00 244:  0.00 245:  0.00 246:  0.00 247:  0.02 248:  0.01
 249:  0.01 250:  0.01 251:  0.02 252:  0.02 253:  0.02 254:  0.02 255:  0.03 256:  0.02
 257:  0.01 258:  0.01 259:  0.02 260:  0.01 261:  0.02 262:  0.02 263:  0.00 264:  0.20
 265:  0.35 266:  0.35 267:  0.00 268:  0.11 269:  0.38 270:  0.38 271:  0.00 272:  0.03
 273:  0.02 274:  0.04 275:  0.01 276:  0.28 277:  0.28 278:  0.10 279:  0.12 280:  0.64
 281:  0.64 282:  0.17 283:  0.05 284:  0.56 285:  0.56 286:  0.48 287:  0.04 288:  0.22
 289:  0.22 290:  0.37 291:  0.00 292:  0.45 293:  0.45 294:  0.11 295:  0.02 296:  0.20
 297:  0.21 298:  0.33 299:  0.03 300:  0.70 301:  0.70 302:  1.12 303:  0.00 304:  0.16
 305:  0.17 306:  0.01 307:  0.18 308:  0.27 309:  0.27 310:  0.32 311:  0.03 312:  0.74
 313:  0.74 314:  0.07 315:  0.16 316:  0.14 317:  0.14 318:  0.08 319:  0.01 320:  0.87
 321:  0.87 322:  0.12 323:  0.01 324:  0.23 325:  0.22 326:  0.09 327:  0.01 328:  0.19
 329:  0.19 330:  0.15 331:  0.01 332:  0.07 333:  0.07 334:  0.08 335:  0.07 336:  0.12
 337:  0.14 338:  0.28 339:  0.26 340:  0.34 341:  0.32 342:  0.06 343:  0.18 344:  0.18
 345:  0.00 346:  0.31 347:  0.02 348:  0.11 349:  0.11 350:  0.75 351:  0.23 352:  0.02
 353:  0.03 354:  0.16 355:  0.22 356:  0.22 357:  0.02 358:  0.41 359:  0.11 360:  0.11
 361:  0.01 362:  0.46 363:  0.05 364:  0.66 365:  0.73 366:  0.72 367:  0.70 368:  0.70
 369:  0.08 370:  0.62 371:  0.10 372:  1.63 373:  1.62 374:  0.42 375:  0.02 376:  0.55
 377:  0.55 378:  0.72 379:  0.03 380:  0.21 381:  0.21 382:  1.50 383:  0.36 384:  0.36
 385:  0.03 386:  0.47 387:  0.67 388:  0.67 389:  0.03 390:  0.29 391:  0.39 392:  0.39
 393:  0.08 394:  0.86 395:  0.26 396:  0.03 397:  0.71 398:  0.71 399:  0.05 400:  0.06
 401:  0.83 402:  1.13 403:  2.41 404:  0.79 405:  0.73 406:  0.18 407:  0.41 408:  0.22
 409:  0.19 410:  0.22 411:  0.82 412:  0.09 413:  0.81 414:  0.81 415:  0.46 416:  0.09
 417:  0.39 418:  0.37 419:  0.60 420:  0.30 421:  0.14 422:  0.14 423:  0.94 424:  1.22
 425:  1.42 426:  4.29 427:  1.52 428:  1.96 429:  1.27 430:  1.61 431:  0.01 432:  0.04
 433:  0.03 434:  0.00 435:  0.03 436:  0.03 437:  0.21 438:  0.14 439:  0.01 440:  0.04
 441:  0.04 442:  0.02 443:  0.08 444:  0.08 445:  0.02 446:  0.13 447:  0.22 448:  0.21
 449:  0.21 450:  0.21 451:  0.13 452:  0.14 453:  0.20 454:  0.17 455:  0.25 456:  0.24
 457:  0.23 458:  0.26 459:  0.32 460:  0.53 461:  0.39 462:  0.43 463:  0.23 464:  0.27
 465:  0.26 466:  0.27 467:  0.02 468:  0.02 469:  0.02 470:  0.04 471:  0.08 472:  0.08
 473:  0.08 474:  0.08 475:  0.23 476:  0.24 477:  0.38 478:  0.35 479:  0.06 480:  0.03
 481:  0.04 482:  0.04 483:  0.07 484:  0.07 485:  0.05 486:  0.06
 Raman intensities (amu)
   1:  0.00   2:  0.00   3:  0.00   4:  0.00   5:  0.00   6:  0.00   7:  0.00   8:  0.00
   9:  0.00  10:  0.00  11:  0.00  12:  0.00  13:  0.00  14:  0.00  15:  0.00  16:  0.00
  17:  0.00  18:  0.00  19:  0.00  20:  0.00  21:  0.00  22:  0.00  23:  0.00  24:  0.00
  25:  0.00  26:  0.00  27:  0.00  28:  0.00  29:  0.00  30:  0.00  31:  0.00  32:  0.00
  33:  0.00  34:  0.00  35:  0.00  36:  0.00  37:  0.00  38:  0.00  39:  0.00  40:  0.00
  41:  0.00  42:  0.00  43:  0.00  44:  0.00  45:  0.00  46:  0.00  47:  0.00  48:  0.00
  49:  0.00  50:  0.00  51:  0.00  52:  0.00  53:  0.00  54:  0.00  55:  0.00  56:  0.00
  57:  0.00  58:  0.00  59:  0.00  60:  0.00  61:  0.00  62:  0.00  63:  0.00  64:  0.00
  65:  0.00  66:  0.00  67:  0.00  68:  0.00  69:  0.00  70:  0.00  71:  0.00  72:  0.00
  73:  0.00  74:  0.00  75:  0.00  76:  0.00  77:  0.00  78:  0.00  79:  0.00  80:  0.00
  81:  0.00  82:  0.00  83:  0.00  84:  0.00  85:  0.00  86:  0.00  87:  0.00  88:  0.00
  89:  0.00  90:  0.00  91:  0.00  92:  0.00  93:  0.00  94:  0.00  95:  0.00  96:  0.00
  97:  0.00  98:  0.00  99:  0.00 100:  0.00 101:  0.00 102:  0.00 103:  0.00 104:  0.00
 105:  0.00 106:  0.00 107:  0.00 108:  0.00 109:  0.00 110:  0.00 111:  0.00 112:  0.00
 113:  0.00 114:  0.00 115:  0.00 116:  0.00 117:  0.00 118:  0.00 119:  0.00 120:  0.00
 121:  0.00 122:  0.00 123:  0.00 124:  0.00 125:  0.00 126:  0.00 127:  0.00 128:  0.00
 129:  0.00 130:  0.00 131:  0.00 132:  0.00 133:  0.00 134:  0.00 135:  0.00 136:  0.00
 137:  0.00 138:  0.00 139:  0.00 140:  0.00 141:  0.00 142:  0.00 143:  0.00 144:  0.00
 145:  0.00 146:  0.00 147:  0.00 148:  0.00 149:  0.00 150:  0.00 151:  0.00 152:  0.00
 153:  0.00 154:  0.00 155:  0.00 156:  0.00 157:  0.00 158:  0.00 159:  0.00 160:  0.00
 161:  0.00 162:  0.00 163:  0.00 164:  0.00 165:  0.00 166:  0.00 167:  0.00 168:  0.00
 169:  0.00 170:  0.00 171:  0.00 172:  0.00 173:  0.00 174:  0.00 175:  0.00 176:  0.00
 177:  0.00 178:  0.00 179:  0.00 180:  0.00 181:  0.00 182:  0.00 183:  0.00 184:  0.00
 185:  0.00 186:  0.00 187:  0.00 188:  0.00 189:  0.00 190:  0.00 191:  0.00 192:  0.00
 193:  0.00 194:  0.00 195:  0.00 196:  0.00 197:  0.00 198:  0.00 199:  0.00 200:  0.00
 201:  0.00 202:  0.00 203:  0.00 204:  0.00 205:  0.00 206:  0.00 207:  0.00 208:  0.00
 209:  0.00 210:  0.00 211:  0.00 212:  0.00 213:  0.00 214:  0.00 215:  0.00 216:  0.00
 217:  0.00 218:  0.00 219:  0.00 220:  0.00 221:  0.00 222:  0.00 223:  0.00 224:  0.00
 225:  0.00 226:  0.00 227:  0.00 228:  0.00 229:  0.00 230:  0.00 231:  0.00 232:  0.00
 233:  0.00 234:  0.00 235:  0.00 236:  0.00 237:  0.00 238:  0.00 239:  0.00 240:  0.00
 241:  0.00 242:  0.00 243:  0.00 244:  0.00 245:  0.00 246:  0.00 247:  0.00 248:  0.00
 249:  0.00 250:  0.00 251:  0.00 252:  0.00 253:  0.00 254:  0.00 255:  0.00 256:  0.00
 257:  0.00 258:  0.00 259:  0.00 260:  0.00 261:  0.00 262:  0.00 263:  0.00 264:  0.00
 265:  0.00 266:  0.00 267:  0.00 268:  0.00 269:  0.00 270:  0.00 271:  0.00 272:  0.00
 273:  0.00 274:  0.00 275:  0.00 276:  0.00 277:  0.00 278:  0.00 279:  0.00 280:  0.00
 281:  0.00 282:  0.00 283:  0.00 284:  0.00 285:  0.00 286:  0.00 287:  0.00 288:  0.00
 289:  0.00 290:  0.00 291:  0.00 292:  0.00 293:  0.00 294:  0.00 295:  0.00 296:  0.00
 297:  0.00 298:  0.00 299:  0.00 300:  0.00 301:  0.00 302:  0.00 303:  0.00 304:  0.00
 305:  0.00 306:  0.00 307:  0.00 308:  0.00 309:  0.00 310:  0.00 311:  0.00 312:  0.00
 313:  0.00 314:  0.00 315:  0.00 316:  0.00 317:  0.00 318:  0.00 319:  0.00 320:  0.00
 321:  0.00 322:  0.00 323:  0.00 324:  0.00 325:  0.00 326:  0.00 327:  0.00 328:  0.00
 329:  0.00 330:  0.00 331:  0.00 332:  0.00 333:  0.00 334:  0.00 335:  0.00 336:  0.00
 337:  0.00 338:  0.00 339:  0.00 340:  0.00 341:  0.00 342:  0.00 343:  0.00 344:  0.00
 345:  0.00 346:  0.00 347:  0.00 348:  0.00 349:  0.00 350:  0.00 351:  0.00 352:  0.00
 353:  0.00 354:  0.00 355:  0.00 356:  0.00 357:  0.00 358:  0.00 359:  0.00 360:  0.00
 361:  0.00 362:  0.00 363:  0.00 364:  0.00 365:  0.00 366:  0.00 367:  0.00 368:  0.00
 369:  0.00 370:  0.00 371:  0.00 372:  0.00 373:  0.00 374:  0.00 375:  0.00 376:  0.00
 377:  0.00 378:  0.00 379:  0.00 380:  0.00 381:  0.00 382:  0.00 383:  0.00 384:  0.00
 385:  0.00 386:  0.00 387:  0.00 388:  0.00 389:  0.00 390:  0.00 391:  0.00 392:  0.00
 393:  0.00 394:  0.00 395:  0.00 396:  0.00 397:  0.00 398:  0.00 399:  0.00 400:  0.00
 401:  0.00 402:  0.00 403:  0.00 404:  0.00 405:  0.00 406:  0.00 407:  0.00 408:  0.00
 409:  0.00 410:  0.00 411:  0.00 412:  0.00 413:  0.00 414:  0.00 415:  0.00 416:  0.00
 417:  0.00 418:  0.00 419:  0.00 420:  0.00 421:  0.00 422:  0.00 423:  0.00 424:  0.00
 425:  0.00 426:  0.00 427:  0.00 428:  0.00 429:  0.00 430:  0.00 431:  0.00 432:  0.00
 433:  0.00 434:  0.00 435:  0.00 436:  0.00 437:  0.00 438:  0.00 439:  0.00 440:  0.00
 441:  0.00 442:  0.00 443:  0.00 444:  0.00 445:  0.00 446:  0.00 447:  0.00 448:  0.00
 449:  0.00 450:  0.00 451:  0.00 452:  0.00 453:  0.00 454:  0.00 455:  0.00 456:  0.00
 457:  0.00 458:  0.00 459:  0.00 460:  0.00 461:  0.00 462:  0.00 463:  0.00 464:  0.00
 465:  0.00 466:  0.00 467:  0.00 468:  0.00 469:  0.00 470:  0.00 471:  0.00 472:  0.00
 473:  0.00 474:  0.00 475:  0.00 476:  0.00 477:  0.00 478:  0.00 479:  0.00 480:  0.00
 481:  0.00 482:  0.00 483:  0.00 484:  0.00 485:  0.00 486:  0.00
 output can be read by thermo (or use thermo option).
 writing <g98.out> molden fake output.
 recommended (thermochemical) frequency scaling factor: 1.0
           -------------------------------------------------
          |             Thermodynamic Functions             |
           -------------------------------------------------

Refinement of some symmetry elements was terminated before convergence was reached.
Some symmetry elements may remain unidentified.
Molecule has the following symmetry elements: (C4) (C2) 
It seems to be the C4 point group
c4  symmetry found (for desy threshold:  0.10E+00) used in thermo

          ...................................................
          :                      SETUP                      :
          :.................................................:
          :  # frequencies                         480      :
          :  # imaginary freq.                       0      :
          :  linear?                             false      :
          :  only rotor calc.                    false      :
          :  symmetry                               c4      :
          :  rotational number                       4      :
          :  scaling factor                  1.0000000      :
          :  rotor cutoff                   50.0000000 cm⁻¹ :
          :  imag. cutoff                  -20.0000000 cm⁻¹ :
          :.................................................:

    mode    ω/cm⁻¹     T·S(HO)/kcal·mol⁻¹    T·S(FR)/kcal·mol⁻¹   T·S(vib)
   ------------------------------------------------------------------------
       1      3.72    -2.97393 (  0.00%)    -1.82605 (100.00%)    -1.82609
       2      5.73    -2.71798 (  0.02%)    -1.69808 ( 99.98%)    -1.69826
       3      5.82    -2.70919 (  0.02%)    -1.69369 ( 99.98%)    -1.69387
       4      6.21    -2.67089 (  0.02%)    -1.67454 ( 99.98%)    -1.67477
       5      8.72    -2.46984 (  0.09%)    -1.57400 ( 99.91%)    -1.57483
       6     14.35    -2.17453 (  0.67%)    -1.42632 ( 99.33%)    -1.43136
       7     14.51    -2.16784 (  0.71%)    -1.42297 ( 99.29%)    -1.42822
       8     15.11    -2.14396 (  0.83%)    -1.41102 ( 99.17%)    -1.41709
       9     19.19    -2.00257 (  2.12%)    -1.34029 ( 97.88%)    -1.35434
      10     19.28    -1.99983 (  2.16%)    -1.33892 ( 97.84%)    -1.35320
      11     21.26    -1.94188 (  3.16%)    -1.30992 ( 96.84%)    -1.32992
      12     21.75    -1.92831 (  3.46%)    -1.30313 ( 96.54%)    -1.32475
      13     22.89    -1.89800 (  4.21%)    -1.28796 ( 95.79%)    -1.31364
      14     31.94    -1.70089 ( 14.28%)    -1.18927 ( 85.72%)    -1.26234
      15     32.65    -1.68794 ( 15.39%)    -1.18278 ( 84.61%)    -1.26052
      16     33.12    -1.67949 ( 16.15%)    -1.17854 ( 83.85%)    -1.25944
      17     43.55    -1.51781 ( 36.53%)    -1.09747 ( 63.47%)    -1.25101
      18     45.89    -1.48685 ( 41.51%)    -1.08193 ( 58.49%)    -1.25003
      19     46.53    -1.47876 ( 42.85%)    -1.07788 ( 57.15%)    -1.24966
      20     46.57    -1.47818 ( 42.95%)    -1.07758 ( 57.05%)    -1.24963
      21     51.29    -1.42127 ( 52.55%)    -1.04900 ( 47.45%)    -1.24462
      22     52.83    -1.40382 ( 55.49%)    -1.04022 ( 44.51%)    -1.24198
      23     55.13    -1.37874 ( 59.64%)    -1.02762 ( 40.36%)    -1.23704
      24     55.24    -1.37753 ( 59.84%)    -1.02700 ( 40.16%)    -1.23677
      25     58.33    -1.34554 ( 64.94%)    -1.01091 ( 35.06%)    -1.22821
      26     58.67    -1.34207 ( 65.47%)    -1.00916 ( 34.53%)    -1.22712
      27     63.03    -1.29995 ( 71.63%)    -0.98795 ( 28.37%)    -1.21144
      28     66.46    -1.26877 ( 75.74%)    -0.97223 ( 24.26%)    -1.19683
      29     80.38    -1.15727 ( 86.98%)    -0.91590 ( 13.02%)    -1.12584
      30     82.50    -1.14206 ( 88.11%)    -0.90820 ( 11.89%)    -1.11426
      31     82.59    -1.14141 ( 88.16%)    -0.90787 ( 11.84%)    -1.11375
      32     84.31    -1.12938 ( 88.99%)    -0.90177 ( 11.01%)    -1.10433
      33     89.97    -1.09145 ( 91.29%)    -0.88253 (  8.71%)    -1.07326
      34     91.11    -1.08409 ( 91.68%)    -0.87879 (  8.32%)    -1.06702
      35     91.41    -1.08220 ( 91.78%)    -0.87783 (  8.22%)    -1.06541
      36     96.12    -1.05291 ( 93.18%)    -0.86293 (  6.82%)    -1.03995
      37     98.58    -1.03821 ( 93.79%)    -0.85544 (  6.21%)    -1.02686
      38    104.24    -1.00582 ( 94.97%)    -0.83892 (  5.03%)    -0.99743
      39    104.38    -1.00503 ( 95.00%)    -0.83852 (  5.00%)    -0.99670
      40    109.35    -0.97807 ( 95.81%)    -0.82474 (  4.19%)    -0.97165
      41    111.91    -0.96465 ( 96.17%)    -0.81787 (  3.83%)    -0.95902
      42    114.45    -0.95171 ( 96.49%)    -0.81123 (  3.51%)    -0.94677
      43    116.56    -0.94115 ( 96.72%)    -0.80582 (  3.28%)    -0.93672
      44    116.62    -0.94083 ( 96.73%)    -0.80565 (  3.27%)    -0.93641
      45    122.28    -0.91353 ( 97.28%)    -0.79162 (  2.72%)    -0.91022
      46    128.19    -0.88639 ( 97.74%)    -0.77763 (  2.26%)    -0.88393
      47    131.35    -0.87242 ( 97.94%)    -0.77042 (  2.06%)    -0.87032
      48    131.68    -0.87099 ( 97.96%)    -0.76968 (  2.04%)    -0.86893
      49    135.19    -0.85593 ( 98.16%)    -0.76189 (  1.84%)    -0.85421
      50    135.89    -0.85299 ( 98.20%)    -0.76036 (  1.80%)    -0.85133
      51    143.26    -0.82287 ( 98.54%)    -0.74472 (  1.46%)    -0.82173
      52    143.29    -0.82273 ( 98.54%)    -0.74465 (  1.46%)    -0.82159
      53    147.02    -0.80811 ( 98.68%)    -0.73704 (  1.32%)    -0.80718
      54    164.84    -0.74343 ( 99.16%)    -0.70314 (  0.84%)    -0.74310
      55    165.00    -0.74290 ( 99.16%)    -0.70286 (  0.84%)    -0.74257
      56    173.72    -0.71402 ( 99.32%)    -0.68760 (  0.68%)    -0.71384
      57    173.92    -0.71337 ( 99.32%)    -0.68726 (  0.68%)    -0.71320
      58    175.09    -0.70962 ( 99.34%)    -0.68527 (  0.66%)    -0.70946
      59    175.30    -0.70898 ( 99.34%)    -0.68493 (  0.66%)    -0.70882
      60    179.00    -0.69731 ( 99.39%)    -0.67873 (  0.61%)    -0.69720
      61    181.47    -0.68969 ( 99.43%)    -0.67468 (  0.57%)    -0.68961
      62    183.72    -0.68286 ( 99.45%)    -0.67103 (  0.55%)    -0.68279
      63    185.10    -0.67868 ( 99.47%)    -0.66880 (  0.53%)    -0.67863
      64    198.11    -0.64121 ( 99.60%)    -0.64869 (  0.40%)    -0.64124
      65    198.20    -0.64095 ( 99.60%)    -0.64855 (  0.40%)    -0.64098
      66    220.57    -0.58269 ( 99.74%)    -0.61686 (  0.26%)    -0.58278
      67    222.13    -0.57890 ( 99.74%)    -0.61478 (  0.26%)    -0.57899
      68    222.17    -0.57880 ( 99.74%)    -0.61472 (  0.26%)    -0.57889
      69    228.89    -0.56279 ( 99.77%)    -0.60590 (  0.23%)    -0.56289
      70    234.83    -0.54911 ( 99.79%)    -0.59831 (  0.21%)    -0.54921
      71    236.22    -0.54597 ( 99.80%)    -0.59657 (  0.20%)    -0.54608
      72    253.75    -0.50815 ( 99.85%)    -0.57535 (  0.15%)    -0.50825
      73    253.78    -0.50810 ( 99.85%)    -0.57532 (  0.15%)    -0.50821
      74    253.85    -0.50796 ( 99.85%)    -0.57524 (  0.15%)    -0.50806
      75    259.83    -0.49580 ( 99.86%)    -0.56834 (  0.14%)    -0.49590
      76    263.82    -0.48788 ( 99.87%)    -0.56383 (  0.13%)    -0.48797
      77    263.94    -0.48763 ( 99.87%)    -0.56369 (  0.13%)    -0.48773
      78    268.24    -0.47929 ( 99.88%)    -0.55891 (  0.12%)    -0.47939
      79    272.22    -0.47170 ( 99.89%)    -0.55455 (  0.11%)    -0.47180
      80    272.62    -0.47094 ( 99.89%)    -0.55411 (  0.11%)    -0.47103
      81    272.75    -0.47069 ( 99.89%)    -0.55396 (  0.11%)    -0.47079
      82    281.20    -0.45509 ( 99.90%)    -0.54493 (  0.10%)    -0.45518
      83    284.80    -0.44861 ( 99.91%)    -0.54115 (  0.09%)    -0.44870
      84    286.98    -0.44476 ( 99.91%)    -0.53890 (  0.09%)    -0.44484
      85    287.02    -0.44469 ( 99.91%)    -0.53886 (  0.09%)    -0.44477
      86    292.80    -0.43462 ( 99.92%)    -0.53295 (  0.08%)    -0.43471
      87    292.91    -0.43443 ( 99.92%)    -0.53284 (  0.08%)    -0.43451
      88    293.34    -0.43369 ( 99.92%)    -0.53241 (  0.08%)    -0.43378
   ------------------------------------------------------------------------

   temp. (K)  partition function   enthalpy   heat capacity  entropy
                                   cal/mol     cal/K/mol   cal/K/mol   J/K/mol
 298.15  VIB  0.436E+48            56106.985    354.525    359.607
         ROT  0.214E+09              888.752      2.981     41.098
         INT  0.933E+56            56995.738    357.506    400.705
         TR   0.581E+29             1481.254      4.968     47.836
         TOT                       58476.9916   362.4739   448.5410  1876.6957

       T/K    H(0)-H(T)+PV         H(T)/Eh          T*S/Eh         G(T)/Eh
   ------------------------------------------------------------------------
    298.15    0.931890E-01    0.127479E+01    0.213116E+00    0.106168E+01
   ------------------------------------------------------------------------

         :::::::::::::::::::::::::::::::::::::::::::::::::::::
         ::                  THERMODYNAMIC                  ::
         :::::::::::::::::::::::::::::::::::::::::::::::::::::
         :: total free energy        -264.104485527188 Eh   ::
         ::.................................................::
         :: total energy             -265.166162988964 Eh   ::
         :: zero point energy           1.181604762116 Eh   ::
         :: G(RRHO) w/o ZPVE           -0.119927300340 Eh   ::
         :: G(RRHO) contrib.            1.061677461776 Eh   ::
         :::::::::::::::::::::::::::::::::::::::::::::::::::::

           -------------------------------------------------
          | TOTAL ENERGY             -265.166162988964 Eh   |
          | TOTAL ENTHALPY           -263.891369208923 Eh   |
          | TOTAL FREE ENERGY        -264.104485527188 Eh   |
          | GRADIENT NORM               0.000670921774 Eh/α |
          | HOMO-LUMO GAP               2.098209411184 eV   |
           -------------------------------------------------

------------------------------------------------------------------------
 * finished run on 2021/06/21 at 19:47:38.297     
------------------------------------------------------------------------
 total:
 * wall-time:     0 d,  0 h, 12 min, 57.428 sec
 *  cpu-time:     0 d,  0 h, 48 min,  6.949 sec
 * ratio c/w:     3.713 speedup
 SCF:
 * wall-time:     0 d,  0 h,  0 min,  1.737 sec
 *  cpu-time:     0 d,  0 h,  0 min,  6.337 sec
 * ratio c/w:     3.649 speedup
 numerical hessian:
 * wall-time:     0 d,  0 h, 12 min, 53.627 sec
 *  cpu-time:     0 d,  0 h, 47 min, 58.500 sec
 * ratio c/w:     3.721 speedup

