 Entering Gaussian System, Link 0=g16
 Initial command:
 /apps/gaussian/g16-c01-avx/g16/l1.exe "/rds/general/ephemeral/user/atarzia/ephemeral/unsymm/single_point_dft/s_4d2_c/Gau-6280.inp" -scrdir="/rds/general/ephemeral/user/atarzia/ephemeral/unsymm/single_point_dft/s_4d2_c/"
 Entering Link 1 = /apps/gaussian/g16-c01-avx/g16/l1.exe PID=      6281.
  
 Copyright (c) 1988-2019, Gaussian, Inc.  All Rights Reserved.
  
 This is part of the Gaussian(R) 16 program.  It is based on
 the Gaussian(R) 09 system (copyright 2009, Gaussian, Inc.),
 the Gaussian(R) 03 system (copyright 2003, Gaussian, Inc.),
 the Gaussian(R) 98 system (copyright 1998, Gaussian, Inc.),
 the Gaussian(R) 94 system (copyright 1995, Gaussian, Inc.),
 the Gaussian 92(TM) system (copyright 1992, Gaussian, Inc.),
 the Gaussian 90(TM) system (copyright 1990, Gaussian, Inc.),
 the Gaussian 88(TM) system (copyright 1988, Gaussian, Inc.),
 the Gaussian 86(TM) system (copyright 1986, Carnegie Mellon
 University), and the Gaussian 82(TM) system (copyright 1983,
 Carnegie Mellon University). Gaussian is a federally registered
 trademark of Gaussian, Inc.
  
 This software contains proprietary and confidential information,
 including trade secrets, belonging to Gaussian, Inc.
  
 This software is provided under written license and may be
 used, copied, transmitted, or stored only in accord with that
 written license.
  
 The following legend is applicable only to US Government
 contracts under FAR:
  
                    RESTRICTED RIGHTS LEGEND
  
 Use, reproduction and disclosure by the US Government is
 subject to restrictions as set forth in subparagraphs (a)
 and (c) of the Commercial Computer Software - Restricted
 Rights clause in FAR 52.227-19.
  
 Gaussian, Inc.
 340 Quinnipiac St., Bldg. 40, Wallingford CT 06492
  
  
 ---------------------------------------------------------------
 Warning -- This program may not be used in any manner that
 competes with the business of Gaussian, Inc. or will provide
 assistance to any competitor of Gaussian, Inc.  The licensee
 of this program is prohibited from giving any competitor of
 Gaussian, Inc. access to this program.  By using this program,
 the user acknowledges that Gaussian, Inc. is engaged in the
 business of creating and licensing software in the field of
 computational chemistry and represents and warrants to the
 licensee that it is not a competitor of Gaussian, Inc. and that
 it will not use this program in any manner prohibited above.
 ---------------------------------------------------------------
  

 Cite this work as:
 Gaussian 16, Revision C.01,
 M. J. Frisch, G. W. Trucks, H. B. Schlegel, G. E. Scuseria, 
 M. A. Robb, J. R. Cheeseman, G. Scalmani, V. Barone, 
 G. A. Petersson, H. Nakatsuji, X. Li, M. Caricato, A. V. Marenich, 
 J. Bloino, B. G. Janesko, R. Gomperts, B. Mennucci, H. P. Hratchian, 
 J. V. Ortiz, A. F. Izmaylov, J. L. Sonnenberg, D. Williams-Young, 
 F. Ding, F. Lipparini, F. Egidi, J. Goings, B. Peng, A. Petrone, 
 T. Henderson, D. Ranasinghe, V. G. Zakrzewski, J. Gao, N. Rega, 
 G. Zheng, W. Liang, M. Hada, M. Ehara, K. Toyota, R. Fukuda, 
 J. Hasegawa, M. Ishida, T. Nakajima, Y. Honda, O. Kitao, H. Nakai, 
 T. Vreven, K. Throssell, J. A. Montgomery, Jr., J. E. Peralta, 
 F. Ogliaro, M. J. Bearpark, J. J. Heyd, E. N. Brothers, K. N. Kudin, 
 V. N. Staroverov, T. A. Keith, R. Kobayashi, J. Normand, 
 K. Raghavachari, A. P. Rendell, J. C. Burant, S. S. Iyengar, 
 J. Tomasi, M. Cossi, J. M. Millam, M. Klene, C. Adamo, R. Cammi, 
 J. W. Ochterski, R. L. Martin, K. Morokuma, O. Farkas, 
 J. B. Foresman, and D. J. Fox, Gaussian, Inc., Wallingford CT, 2019.
 
 ******************************************
 Gaussian 16:  ES64L-G16RevC.01  3-Jul-2019
                26-Feb-2021 
 ******************************************
 %chk=_s_4d2_c.chk
 %mem=60000mb
 %nprocshared=32
 Will use up to   32 processors via shared memory.
 ----------------------------------------------------------------------
 #P PBE1PBE/Def2SVP SP SCF=(YQC,MaxCycle=900) int=(Grid=Superfinegrid) 
 EmpiricalDispersion=GD3BJ SCRF=(PCM,Solvent=DiMethylSulfoxide)
 ----------------------------------------------------------------------
 1/38=1,172=1/1;
 2/12=2,17=6,18=5,40=1/2;
 3/5=43,7=101,11=2,25=1,30=1,70=2201,72=21,74=-13,75=-7,124=41/1,2,3;
 4//1;
 5/5=2,7=900,8=4,13=1,38=1,53=21/8,2,8;
 6/7=2,8=2,9=2,10=2,28=1/1;
 99/5=1,9=1/99;
 Leave Link    1 at Fri Feb 26 11:24:31 2021, MaxMem=  7864320000 cpu:               2.9 elap:               0.1
 (Enter /apps/gaussian/g16-c01-avx/g16/l101.exe)
 --------
 _s_4d2_c
 --------
 Symbolic Z-matrix:
 Charge =  4 Multiplicity = 1
 Pd                    0.4669    3.6007    0.2441 
 Pd                    1.3526   -5.6117    1.2515 
 C                     6.8431   -2.9242    1.1298 
 C                     6.7596   -4.1299    1.1851 
 C                     6.763    -5.5369    1.1266 
 C                     7.9701   -6.2116    1.0871 
 C                     8.017    -7.5981    0.9079 
 C                     6.8667   -8.3261    0.732 
 C                     5.6157   -7.6842    0.7765 
 C                     4.3964   -8.3694    0.5742 
 C                     3.2149   -7.6929    0.66 
 N                     3.1623   -6.3771    0.9826 
 C                     4.2795   -5.6951    1.1434 
 C                     5.549    -6.2808    1.0174 
 H                     8.8907   -5.6561    1.1803 
 H                     8.977    -8.091     0.8852 
 H                     6.9079   -9.3897    0.5569 
 H                     4.4136   -9.4237    0.3489 
 H                     2.2607   -8.1814    0.4736 
 H                     4.1899   -4.6416    1.3971 
 C                     6.936    -1.5252    0.9669 
 C                     8.1907   -0.9105    0.9024 
 C                     8.2751    0.4486    0.6621 
 C                     7.1308    1.2065    0.4793 
 C                     5.8702    0.6078    0.5465 
 C                     5.7835   -0.7597    0.8017 
 H                     9.085    -1.5004    1.032 
 H                     9.244     0.9212    0.6059 
 H                     7.2251    2.2562    0.2502 
 H                     4.8232   -1.2402    0.898 
 C                     4.6479    1.3899    0.3387 
 C                     4.5427    2.7276    0.7333 
 C                     3.3484    3.3979    0.5646 
 N                     2.2694    2.8046    0.0459 
 C                     2.3575    1.537    -0.3761 
 C                     3.5207    0.8103   -0.2595 
 H                     5.3762    3.2328    1.1934 
 H                     3.2334    4.4379    0.8558 
 H                     1.4529    1.1192   -0.8156 
 H                     3.5698   -0.1969   -0.6405 
 C                     1.9775   -2.8166    6.6335 
 C                     2.0023   -4.0249    6.5783 
 C                     1.9203   -5.4299    6.6246 
 C                     2.0239   -6.0774    7.8427 
 C                     1.8268   -7.4586    7.9454 
 C                     1.4912   -8.2073    6.845 
 C                     1.386    -7.5937    5.5834 
 C                     1.0159   -8.3001    4.4168 
 C                     0.9608   -7.6506    3.2182 
 N                     1.2978   -6.3435    3.0935 
 C                     1.6144   -5.6419    4.1644 
 C                     1.6423   -6.1976    5.453 
 H                     2.2446   -5.5044    8.7302 
 H                     1.9187   -7.9301    8.9119 
 H                     1.3033   -9.2658    6.934 
 H                     0.7756   -9.3488    4.4876 
 H                     0.6437   -8.1548    2.3079 
 H                     1.8749   -4.5961    4.018 
 C                     1.8482   -1.4129    6.7077 
 C                     1.9271   -0.7688    7.9467 
 C                     1.7174    0.5958    8.0229 
 C                     1.4244    1.3303    6.8863 
 C                     1.3485    0.7022    5.6405 
 C                     1.5732   -0.6711    5.5607 
 H                     2.1423   -1.3404    8.8364 
 H                     1.7718    1.0913    8.9803 
 H                     1.2215    2.3855    6.979 
 H                     1.5613   -1.1746    4.6074 
 C                     1.0209    1.4606    4.4295 
 C                     1.4156    2.7909    4.2539 
 C                     1.1228    3.4403    3.0721 
 N                     0.4818    2.8331    2.0693 
 C                     0.0616    1.5717    2.2279 
 C                     0.299     0.866     3.3856 
 H                     1.9696    3.3066    5.0211 
 H                     1.4099    4.4743    2.9047 
 H                    -0.4777    1.1416    1.3851 
 H                    -0.0826   -0.1361    3.4953 
 C                    -5.023     0.912     0.3609 
 C                    -4.9391    2.1179    0.3122 
 C                    -4.9427    3.5246    0.3785 
 C                    -6.1501    4.1985    0.4248 
 C                    -6.1973    5.584     0.612 
 C                    -5.0469    6.3115    0.7889 
 C                    -3.7957    5.6706    0.7375 
 C                    -2.5762    6.3553    0.9402 
 C                    -1.3945    5.6799    0.8477 
 N                    -1.3421    4.3658    0.5181 
 C                    -2.4594    3.6841    0.3564 
 C                    -3.7289    4.2685    0.4887 
 H                    -7.0706    3.643     0.331 
 H                    -7.1574    6.0762    0.64 
 H                    -5.0881    7.3741    0.97 
 H                    -2.5933    7.4084    1.171 
 H                    -0.4402    6.168     1.0342 
 H                    -2.3698    2.632     0.0967 
 C                    -5.1161   -0.4878    0.5163 
 C                    -6.3706   -1.1038    0.5696 
 C                    -6.4555   -2.4641    0.8028 
 C                    -5.3117   -3.222     0.9895 
 C                    -4.0513   -2.622     0.9336 
 C                    -3.9641   -1.2532    0.6854 
 H                    -7.2646   -0.5141    0.437 
 H                    -7.4243   -2.9378    0.8504 
 H                    -5.4067   -4.2728    1.213 
 H                    -3.0035   -0.7715    0.598 
 C                    -2.8296   -3.4039    1.1453 
 C                    -2.7207   -4.7395    0.7447 
 C                    -1.5267   -5.4094    0.9172 
 N                    -0.4512   -4.8176    1.445 
 C                    -0.5434   -3.5523    1.873 
 C                    -1.7066   -2.8262    1.7533 
 H                    -3.5509   -5.2433    0.2772 
 H                    -1.4089   -6.4479    0.6214 
 H                     0.3581   -3.1358    2.32 
 H                    -1.759    -1.8212    2.1394 
 C                    -0.1327    0.807    -5.1439 
 C                    -0.1618    2.0152   -5.0875 
 C                    -0.0844    3.4205   -5.1323 
 C                    -0.1846    4.0686   -6.3504 
 C                     0.008     5.4505   -6.4512 
 C                     0.3358    6.1995   -5.3487 
 C                     0.4374    5.5853   -4.0871 
 C                     0.8       6.292    -2.9184 
 C                     0.8524    5.6418   -1.7201 
 N                     0.5195    4.3334   -1.5977 
 C                     0.2098    3.6315   -2.6705 
 C                     0.1855    4.1882   -3.9588 
 H                    -0.3992    3.4954   -7.2394 
 H                    -0.0811    5.9224   -7.4178 
 H                     0.5203    7.2587   -5.436 
 H                     1.0369    7.3417   -2.9873 
 H                     1.164     6.1465   -0.8082 
 H                    -0.0475    2.5848   -2.5262 
 C                     0.0016   -0.5962   -5.2184 
 C                    -0.0644   -1.2392   -6.4587 
 C                     0.1498   -2.6031   -6.5344 
 C                     0.4347   -3.3381   -5.396 
 C                     0.4978   -2.711    -4.149 
 C                     0.2684   -1.3385   -4.0698 
 H                    -0.2732   -0.6672   -7.3497 
 H                     0.1053   -3.0977   -7.4928 
 H                     0.6414   -4.3925   -5.4879 
 H                     0.2703   -0.8359   -3.1159 
 C                     0.8175   -3.4696   -2.936 
 C                     0.4254   -4.8012   -2.7646 
 C                     0.7113   -5.4509   -1.5813 
 N                     1.343    -4.8428   -0.5732 
 C                     1.7603   -3.5799   -0.7272 
 C                     1.5293   -2.8737   -1.8859 
 H                    -0.1212   -5.3178   -3.5366 
 H                     0.426    -6.4859   -1.4169 
 H                     2.2916   -3.1487    0.1202 
 H                     1.9081   -1.8702   -1.9917 
 
 ITRead=  0  0  0  0  0  0  0  0  0  0  0  0  0  0  0  0  0  0  0  0
 ITRead=  0  0  0  0  0  0  0  0  0  0  0  0  0  0  0  0  0  0  0  0
 ITRead=  0  0  0  0  0  0  0  0  0  0  0  0  0  0  0  0  0  0  0  0
 ITRead=  0  0  0  0  0  0  0  0  0  0  0  0  0  0  0  0  0  0  0  0
 ITRead=  0  0  0  0  0  0  0  0  0  0  0  0  0  0  0  0  0  0  0  0
 ITRead=  0  0  0  0  0  0  0  0  0  0  0  0  0  0  0  0  0  0  0  0
 ITRead=  0  0  0  0  0  0  0  0  0  0  0  0  0  0  0  0  0  0  0  0
 ITRead=  0  0  0  0  0  0  0  0  0  0  0  0  0  0
 MicOpt= -1 -1 -1 -1 -1 -1 -1 -1 -1 -1 -1 -1 -1 -1 -1 -1 -1 -1 -1 -1
 MicOpt= -1 -1 -1 -1 -1 -1 -1 -1 -1 -1 -1 -1 -1 -1 -1 -1 -1 -1 -1 -1
 MicOpt= -1 -1 -1 -1 -1 -1 -1 -1 -1 -1 -1 -1 -1 -1 -1 -1 -1 -1 -1 -1
 MicOpt= -1 -1 -1 -1 -1 -1 -1 -1 -1 -1 -1 -1 -1 -1 -1 -1 -1 -1 -1 -1
 MicOpt= -1 -1 -1 -1 -1 -1 -1 -1 -1 -1 -1 -1 -1 -1 -1 -1 -1 -1 -1 -1
 MicOpt= -1 -1 -1 -1 -1 -1 -1 -1 -1 -1 -1 -1 -1 -1 -1 -1 -1 -1 -1 -1
 MicOpt= -1 -1 -1 -1 -1 -1 -1 -1 -1 -1 -1 -1 -1 -1 -1 -1 -1 -1 -1 -1
 MicOpt= -1 -1 -1 -1 -1 -1 -1 -1 -1 -1 -1 -1 -1 -1
 NAtoms=    154 NQM=      154 NQMF=       0 NMMI=      0 NMMIF=      0
                NMic=       0 NMicF=      0.
                    Isotopes and Nuclear Properties:
 (Nuclear quadrupole moments (NQMom) in fm**2, nuclear magnetic moments (NMagM)
  in nuclear magnetons)

  Atom         1           2           3           4           5           6           7           8           9          10
 IAtWgt=         106         106          12          12          12          12          12          12          12          12
 AtmWgt= 105.9032000 105.9032000  12.0000000  12.0000000  12.0000000  12.0000000  12.0000000  12.0000000  12.0000000  12.0000000
 NucSpn=           0           0           0           0           0           0           0           0           0           0
 AtZEff=  -0.0000000  -0.0000000  -0.0000000  -0.0000000  -0.0000000  -0.0000000  -0.0000000  -0.0000000  -0.0000000  -0.0000000
 NQMom=    0.0000000   0.0000000   0.0000000   0.0000000   0.0000000   0.0000000   0.0000000   0.0000000   0.0000000   0.0000000
 NMagM=    0.0000000   0.0000000   0.0000000   0.0000000   0.0000000   0.0000000   0.0000000   0.0000000   0.0000000   0.0000000
 AtZNuc=  46.0000000  46.0000000   6.0000000   6.0000000   6.0000000   6.0000000   6.0000000   6.0000000   6.0000000   6.0000000

  Atom        11          12          13          14          15          16          17          18          19          20
 IAtWgt=          12          14          12          12           1           1           1           1           1           1
 AtmWgt=  12.0000000  14.0030740  12.0000000  12.0000000   1.0078250   1.0078250   1.0078250   1.0078250   1.0078250   1.0078250
 NucSpn=           0           2           0           0           1           1           1           1           1           1
 AtZEff=  -0.0000000  -0.0000000  -0.0000000  -0.0000000  -0.0000000  -0.0000000  -0.0000000  -0.0000000  -0.0000000  -0.0000000
 NQMom=    0.0000000   2.0440000   0.0000000   0.0000000   0.0000000   0.0000000   0.0000000   0.0000000   0.0000000   0.0000000
 NMagM=    0.0000000   0.4037610   0.0000000   0.0000000   2.7928460   2.7928460   2.7928460   2.7928460   2.7928460   2.7928460
 AtZNuc=   6.0000000   7.0000000   6.0000000   6.0000000   1.0000000   1.0000000   1.0000000   1.0000000   1.0000000   1.0000000

  Atom        21          22          23          24          25          26          27          28          29          30
 IAtWgt=          12          12          12          12          12          12           1           1           1           1
 AtmWgt=  12.0000000  12.0000000  12.0000000  12.0000000  12.0000000  12.0000000   1.0078250   1.0078250   1.0078250   1.0078250
 NucSpn=           0           0           0           0           0           0           1           1           1           1
 AtZEff=  -0.0000000  -0.0000000  -0.0000000  -0.0000000  -0.0000000  -0.0000000  -0.0000000  -0.0000000  -0.0000000  -0.0000000
 NQMom=    0.0000000   0.0000000   0.0000000   0.0000000   0.0000000   0.0000000   0.0000000   0.0000000   0.0000000   0.0000000
 NMagM=    0.0000000   0.0000000   0.0000000   0.0000000   0.0000000   0.0000000   2.7928460   2.7928460   2.7928460   2.7928460
 AtZNuc=   6.0000000   6.0000000   6.0000000   6.0000000   6.0000000   6.0000000   1.0000000   1.0000000   1.0000000   1.0000000

  Atom        31          32          33          34          35          36          37          38          39          40
 IAtWgt=          12          12          12          14          12          12           1           1           1           1
 AtmWgt=  12.0000000  12.0000000  12.0000000  14.0030740  12.0000000  12.0000000   1.0078250   1.0078250   1.0078250   1.0078250
 NucSpn=           0           0           0           2           0           0           1           1           1           1
 AtZEff=  -0.0000000  -0.0000000  -0.0000000  -0.0000000  -0.0000000  -0.0000000  -0.0000000  -0.0000000  -0.0000000  -0.0000000
 NQMom=    0.0000000   0.0000000   0.0000000   2.0440000   0.0000000   0.0000000   0.0000000   0.0000000   0.0000000   0.0000000
 NMagM=    0.0000000   0.0000000   0.0000000   0.4037610   0.0000000   0.0000000   2.7928460   2.7928460   2.7928460   2.7928460
 AtZNuc=   6.0000000   6.0000000   6.0000000   7.0000000   6.0000000   6.0000000   1.0000000   1.0000000   1.0000000   1.0000000

  Atom        41          42          43          44          45          46          47          48          49          50
 IAtWgt=          12          12          12          12          12          12          12          12          12          14
 AtmWgt=  12.0000000  12.0000000  12.0000000  12.0000000  12.0000000  12.0000000  12.0000000  12.0000000  12.0000000  14.0030740
 NucSpn=           0           0           0           0           0           0           0           0           0           2
 AtZEff=  -0.0000000  -0.0000000  -0.0000000  -0.0000000  -0.0000000  -0.0000000  -0.0000000  -0.0000000  -0.0000000  -0.0000000
 NQMom=    0.0000000   0.0000000   0.0000000   0.0000000   0.0000000   0.0000000   0.0000000   0.0000000   0.0000000   2.0440000
 NMagM=    0.0000000   0.0000000   0.0000000   0.0000000   0.0000000   0.0000000   0.0000000   0.0000000   0.0000000   0.4037610
 AtZNuc=   6.0000000   6.0000000   6.0000000   6.0000000   6.0000000   6.0000000   6.0000000   6.0000000   6.0000000   7.0000000

  Atom        51          52          53          54          55          56          57          58          59          60
 IAtWgt=          12          12           1           1           1           1           1           1          12          12
 AtmWgt=  12.0000000  12.0000000   1.0078250   1.0078250   1.0078250   1.0078250   1.0078250   1.0078250  12.0000000  12.0000000
 NucSpn=           0           0           1           1           1           1           1           1           0           0
 AtZEff=  -0.0000000  -0.0000000  -0.0000000  -0.0000000  -0.0000000  -0.0000000  -0.0000000  -0.0000000  -0.0000000  -0.0000000
 NQMom=    0.0000000   0.0000000   0.0000000   0.0000000   0.0000000   0.0000000   0.0000000   0.0000000   0.0000000   0.0000000
 NMagM=    0.0000000   0.0000000   2.7928460   2.7928460   2.7928460   2.7928460   2.7928460   2.7928460   0.0000000   0.0000000
 AtZNuc=   6.0000000   6.0000000   1.0000000   1.0000000   1.0000000   1.0000000   1.0000000   1.0000000   6.0000000   6.0000000

  Atom        61          62          63          64          65          66          67          68          69          70
 IAtWgt=          12          12          12          12           1           1           1           1          12          12
 AtmWgt=  12.0000000  12.0000000  12.0000000  12.0000000   1.0078250   1.0078250   1.0078250   1.0078250  12.0000000  12.0000000
 NucSpn=           0           0           0           0           1           1           1           1           0           0
 AtZEff=  -0.0000000  -0.0000000  -0.0000000  -0.0000000  -0.0000000  -0.0000000  -0.0000000  -0.0000000  -0.0000000  -0.0000000
 NQMom=    0.0000000   0.0000000   0.0000000   0.0000000   0.0000000   0.0000000   0.0000000   0.0000000   0.0000000   0.0000000
 NMagM=    0.0000000   0.0000000   0.0000000   0.0000000   2.7928460   2.7928460   2.7928460   2.7928460   0.0000000   0.0000000
 AtZNuc=   6.0000000   6.0000000   6.0000000   6.0000000   1.0000000   1.0000000   1.0000000   1.0000000   6.0000000   6.0000000

  Atom        71          72          73          74          75          76          77          78          79          80
 IAtWgt=          12          14          12          12           1           1           1           1          12          12
 AtmWgt=  12.0000000  14.0030740  12.0000000  12.0000000   1.0078250   1.0078250   1.0078250   1.0078250  12.0000000  12.0000000
 NucSpn=           0           2           0           0           1           1           1           1           0           0
 AtZEff=  -0.0000000  -0.0000000  -0.0000000  -0.0000000  -0.0000000  -0.0000000  -0.0000000  -0.0000000  -0.0000000  -0.0000000
 NQMom=    0.0000000   2.0440000   0.0000000   0.0000000   0.0000000   0.0000000   0.0000000   0.0000000   0.0000000   0.0000000
 NMagM=    0.0000000   0.4037610   0.0000000   0.0000000   2.7928460   2.7928460   2.7928460   2.7928460   0.0000000   0.0000000
 AtZNuc=   6.0000000   7.0000000   6.0000000   6.0000000   1.0000000   1.0000000   1.0000000   1.0000000   6.0000000   6.0000000

  Atom        81          82          83          84          85          86          87          88          89          90
 IAtWgt=          12          12          12          12          12          12          12          14          12          12
 AtmWgt=  12.0000000  12.0000000  12.0000000  12.0000000  12.0000000  12.0000000  12.0000000  14.0030740  12.0000000  12.0000000
 NucSpn=           0           0           0           0           0           0           0           2           0           0
 AtZEff=  -0.0000000  -0.0000000  -0.0000000  -0.0000000  -0.0000000  -0.0000000  -0.0000000  -0.0000000  -0.0000000  -0.0000000
 NQMom=    0.0000000   0.0000000   0.0000000   0.0000000   0.0000000   0.0000000   0.0000000   2.0440000   0.0000000   0.0000000
 NMagM=    0.0000000   0.0000000   0.0000000   0.0000000   0.0000000   0.0000000   0.0000000   0.4037610   0.0000000   0.0000000
 AtZNuc=   6.0000000   6.0000000   6.0000000   6.0000000   6.0000000   6.0000000   6.0000000   7.0000000   6.0000000   6.0000000

  Atom        91          92          93          94          95          96          97          98          99         100
 IAtWgt=           1           1           1           1           1           1          12          12          12          12
 AtmWgt=   1.0078250   1.0078250   1.0078250   1.0078250   1.0078250   1.0078250  12.0000000  12.0000000  12.0000000  12.0000000
 NucSpn=           1           1           1           1           1           1           0           0           0           0
 AtZEff=  -0.0000000  -0.0000000  -0.0000000  -0.0000000  -0.0000000  -0.0000000  -0.0000000  -0.0000000  -0.0000000  -0.0000000
 NQMom=    0.0000000   0.0000000   0.0000000   0.0000000   0.0000000   0.0000000   0.0000000   0.0000000   0.0000000   0.0000000
 NMagM=    2.7928460   2.7928460   2.7928460   2.7928460   2.7928460   2.7928460   0.0000000   0.0000000   0.0000000   0.0000000
 AtZNuc=   1.0000000   1.0000000   1.0000000   1.0000000   1.0000000   1.0000000   6.0000000   6.0000000   6.0000000   6.0000000

  Atom       101         102         103         104         105         106         107         108         109         110
 IAtWgt=          12          12           1           1           1           1          12          12          12          14
 AtmWgt=  12.0000000  12.0000000   1.0078250   1.0078250   1.0078250   1.0078250  12.0000000  12.0000000  12.0000000  14.0030740
 NucSpn=           0           0           1           1           1           1           0           0           0           2
 AtZEff=  -0.0000000  -0.0000000  -0.0000000  -0.0000000  -0.0000000  -0.0000000  -0.0000000  -0.0000000  -0.0000000  -0.0000000
 NQMom=    0.0000000   0.0000000   0.0000000   0.0000000   0.0000000   0.0000000   0.0000000   0.0000000   0.0000000   2.0440000
 NMagM=    0.0000000   0.0000000   2.7928460   2.7928460   2.7928460   2.7928460   0.0000000   0.0000000   0.0000000   0.4037610
 AtZNuc=   6.0000000   6.0000000   1.0000000   1.0000000   1.0000000   1.0000000   6.0000000   6.0000000   6.0000000   7.0000000

  Atom       111         112         113         114         115         116         117         118         119         120
 IAtWgt=          12          12           1           1           1           1          12          12          12          12
 AtmWgt=  12.0000000  12.0000000   1.0078250   1.0078250   1.0078250   1.0078250  12.0000000  12.0000000  12.0000000  12.0000000
 NucSpn=           0           0           1           1           1           1           0           0           0           0
 AtZEff=  -0.0000000  -0.0000000  -0.0000000  -0.0000000  -0.0000000  -0.0000000  -0.0000000  -0.0000000  -0.0000000  -0.0000000
 NQMom=    0.0000000   0.0000000   0.0000000   0.0000000   0.0000000   0.0000000   0.0000000   0.0000000   0.0000000   0.0000000
 NMagM=    0.0000000   0.0000000   2.7928460   2.7928460   2.7928460   2.7928460   0.0000000   0.0000000   0.0000000   0.0000000
 AtZNuc=   6.0000000   6.0000000   1.0000000   1.0000000   1.0000000   1.0000000   6.0000000   6.0000000   6.0000000   6.0000000

  Atom       121         122         123         124         125         126         127         128         129         130
 IAtWgt=          12          12          12          12          12          14          12          12           1           1
 AtmWgt=  12.0000000  12.0000000  12.0000000  12.0000000  12.0000000  14.0030740  12.0000000  12.0000000   1.0078250   1.0078250
 NucSpn=           0           0           0           0           0           2           0           0           1           1
 AtZEff=  -0.0000000  -0.0000000  -0.0000000  -0.0000000  -0.0000000  -0.0000000  -0.0000000  -0.0000000  -0.0000000  -0.0000000
 NQMom=    0.0000000   0.0000000   0.0000000   0.0000000   0.0000000   2.0440000   0.0000000   0.0000000   0.0000000   0.0000000
 NMagM=    0.0000000   0.0000000   0.0000000   0.0000000   0.0000000   0.4037610   0.0000000   0.0000000   2.7928460   2.7928460
 AtZNuc=   6.0000000   6.0000000   6.0000000   6.0000000   6.0000000   7.0000000   6.0000000   6.0000000   1.0000000   1.0000000

  Atom       131         132         133         134         135         136         137         138         139         140
 IAtWgt=           1           1           1           1          12          12          12          12          12          12
 AtmWgt=   1.0078250   1.0078250   1.0078250   1.0078250  12.0000000  12.0000000  12.0000000  12.0000000  12.0000000  12.0000000
 NucSpn=           1           1           1           1           0           0           0           0           0           0
 AtZEff=  -0.0000000  -0.0000000  -0.0000000  -0.0000000  -0.0000000  -0.0000000  -0.0000000  -0.0000000  -0.0000000  -0.0000000
 NQMom=    0.0000000   0.0000000   0.0000000   0.0000000   0.0000000   0.0000000   0.0000000   0.0000000   0.0000000   0.0000000
 NMagM=    2.7928460   2.7928460   2.7928460   2.7928460   0.0000000   0.0000000   0.0000000   0.0000000   0.0000000   0.0000000
 AtZNuc=   1.0000000   1.0000000   1.0000000   1.0000000   6.0000000   6.0000000   6.0000000   6.0000000   6.0000000   6.0000000

  Atom       141         142         143         144         145         146         147         148         149         150
 IAtWgt=           1           1           1           1          12          12          12          14          12          12
 AtmWgt=   1.0078250   1.0078250   1.0078250   1.0078250  12.0000000  12.0000000  12.0000000  14.0030740  12.0000000  12.0000000
 NucSpn=           1           1           1           1           0           0           0           2           0           0
 AtZEff=  -0.0000000  -0.0000000  -0.0000000  -0.0000000  -0.0000000  -0.0000000  -0.0000000  -0.0000000  -0.0000000  -0.0000000
 NQMom=    0.0000000   0.0000000   0.0000000   0.0000000   0.0000000   0.0000000   0.0000000   2.0440000   0.0000000   0.0000000
 NMagM=    2.7928460   2.7928460   2.7928460   2.7928460   0.0000000   0.0000000   0.0000000   0.4037610   0.0000000   0.0000000
 AtZNuc=   1.0000000   1.0000000   1.0000000   1.0000000   6.0000000   6.0000000   6.0000000   7.0000000   6.0000000   6.0000000

  Atom       151         152         153         154
 IAtWgt=           1           1           1           1
 AtmWgt=   1.0078250   1.0078250   1.0078250   1.0078250
 NucSpn=           1           1           1           1
 AtZEff=  -0.0000000  -0.0000000  -0.0000000  -0.0000000
 NQMom=    0.0000000   0.0000000   0.0000000   0.0000000
 NMagM=    2.7928460   2.7928460   2.7928460   2.7928460
 AtZNuc=   1.0000000   1.0000000   1.0000000   1.0000000
 Leave Link  101 at Fri Feb 26 11:24:32 2021, MaxMem=  7864320000 cpu:               8.2 elap:               0.3
 (Enter /apps/gaussian/g16-c01-avx/g16/l202.exe)
 Stoichiometry    C88H56N8Pd2(4+)
 Framework group  C1[X(C88H56N8Pd2)]
 Deg. of freedom   456
 Full point group                 C1      NOp   1
 Largest Abelian subgroup         C1      NOp   1
 Largest concise Abelian subgroup C1      NOp   1
                         Standard orientation:                         
 ---------------------------------------------------------------------
 Center     Atomic      Atomic             Coordinates (Angstroms)
 Number     Number       Type             X           Y           Z
 ---------------------------------------------------------------------
      1         46           0        4.278502    0.015306   -1.834167
      2         46           0       -4.276192   -0.021064    1.837825
      3          6           0       -4.031406    3.701175   -3.006561
      4          6           0       -5.047756    3.620180   -2.355243
      5          6           0       -6.228277    3.684567   -1.590189
      6          6           0       -7.249373    4.529111   -1.987657
      7          6           0       -8.385888    4.712097   -1.192960
      8          6           0       -8.505973    4.084303    0.021770
      9          6           0       -7.497920    3.207151    0.461602
     10          6           0       -7.545797    2.552351    1.713025
     11          6           0       -6.549444    1.690430    2.067041
     12          7           0       -5.522252    1.397863    1.231907
     13          6           0       -5.423407    2.015393    0.070872
     14          6           0       -6.361475    2.964805   -0.364094
     15          1           0       -7.159423    5.067302   -2.918802
     16          1           0       -9.163808    5.376696   -1.536781
     17          1           0       -9.366361    4.256166    0.649303
     18          1           0       -8.371193    2.745416    2.379398
     19          1           0       -6.536180    1.198264    3.037336
     20          1           0       -4.581259    1.752848   -0.564826
     21          6           0       -2.815349    3.865962   -3.703998
     22          6           0       -2.745847    4.743869   -4.790615
     23          6           0       -1.532956    4.961101   -5.418091
     24          6           0       -0.385455    4.322822   -4.978667
     25          6           0       -0.440028    3.438753   -3.898151
     26          6           0       -1.664526    3.209009   -3.273235
     27          1           0       -3.635850    5.252538   -5.127809
     28          1           0       -1.478778    5.643819   -6.252499
     29          1           0        0.555762    4.542419   -5.457348
     30          1           0       -1.743032    2.502300   -2.462846
     31          6           0        0.766744    2.766660   -3.407363
     32          6           0        1.806945    2.385096   -4.260948
     33          6           0        2.893735    1.704086   -3.751804
     34          7           0        2.983760    1.377220   -2.459384
     35          6           0        2.019644    1.766827   -1.615972
     36          6           0        0.915190    2.466578   -2.046381
     37          1           0        1.756188    2.592758   -5.317330
     38          1           0        3.720654    1.396850   -4.385391
     39          1           0        2.164673    1.495192   -0.571367
     40          1           0        0.173401    2.796187   -1.337064
     41          6           0       -4.051311   -3.645469   -3.059330
     42          6           0       -5.071678   -3.571869   -2.413508
     43          6           0       -6.255380   -3.642532   -1.654069
     44          6           0       -7.281954   -4.471198   -2.070262
     45          6           0       -8.421655   -4.661020   -1.281492
     46          6           0       -8.539641   -4.056451   -0.054857
     47          6           0       -7.525845   -3.196037    0.404612
     48          6           0       -7.570980   -2.565808    1.668615
     49          6           0       -6.568133   -1.719285    2.041742
     50          7           0       -5.537061   -1.418672    1.214607
     51          6           0       -5.441483   -2.013358    0.041356
     52          6           0       -6.386092   -2.946258   -0.414145
     53          1           0       -7.194075   -4.991766   -3.011527
     54          1           0       -9.203838   -5.312605   -1.639973
     55          1           0       -9.402707   -4.234197    0.567376
     56          1           0       -8.399234   -2.765139    2.329517
     57          1           0       -6.552477   -1.247046    3.021620
     58          1           0       -4.596408   -1.744241   -0.588259
     59          6           0       -2.831262   -3.805586   -3.751024
     60          6           0       -2.754212   -4.683362   -4.837202
     61          6           0       -1.537608   -4.898151   -5.458214
     62          6           0       -0.393791   -4.257783   -5.012333
     63          6           0       -0.455909   -3.373154   -3.932583
     64          6           0       -1.684361   -3.145553   -3.314590
     65          1           0       -3.641317   -5.194122   -5.178922
     66          1           0       -1.477452   -5.580784   -6.292173
     67          1           0        0.550429   -4.476221   -5.485560
     68          1           0       -1.768989   -2.437479   -2.505947
     69          6           0        0.748030   -2.700849   -3.435038
     70          6           0        1.795086   -2.324128   -4.282432
     71          6           0        2.882376   -1.648868   -3.766750
     72          7           0        2.966550   -1.322774   -2.473785
     73          6           0        1.994042   -1.704787   -1.636440
     74          6           0        0.888432   -2.398373   -2.073711
     75          1           0        1.750102   -2.531806   -5.338985
     76          1           0        3.714752   -1.346202   -4.395359
     77          1           0        2.133428   -1.432166   -0.591265
     78          1           0        0.139852   -2.721642   -1.368742
     79          6           0        4.034214   -3.702871    3.013228
     80          6           0        5.048226   -3.626523    2.357823
     81          6           0        6.225783   -3.696844    1.588649
     82          6           0        7.243883   -4.546637    1.982887
     83          6           0        8.376803   -4.735763    1.184386
     84          6           0        8.496067   -4.108640   -0.030712
     85          6           0        7.491255   -3.226233   -0.467296
     86          6           0        7.538486   -2.571591   -1.718813
     87          6           0        6.545386   -1.704565   -2.069748
     88          7           0        5.522219   -1.406945   -1.231420
     89          6           0        5.423990   -2.023876   -0.069969
     90          6           0        6.358700   -2.977959    0.362118
     91          1           0        7.154109   -5.084315    2.914307
     92          1           0        9.152273   -5.404364    1.525643
     93          1           0        9.353461   -4.284955   -0.661111
     94          1           0        8.360857   -2.768666   -2.387729
     95          1           0        6.531707   -1.212401   -3.039954
     96          1           0        4.585178   -1.756885    0.568386
     97          6           0        2.820228   -3.862200    3.715446
     98          6           0        2.753538   -4.731622    4.808938
     99          6           0        1.542349   -4.943889    5.441369
    100          6           0        0.393647   -4.308846    5.000062
    101          6           0        0.445370   -3.433337    3.912615
    102          6           0        1.668289   -3.208484    3.282748
    103          1           0        3.644328   -5.237855    5.147738
    104          1           0        1.490265   -5.620126    6.281143
    105          1           0       -0.546244   -4.524729    5.482927
    106          1           0        1.744526   -2.508213    2.466516
    107          6           0       -0.762394   -2.764549    3.419904
    108          6           0       -1.800072   -2.376076    4.273416
    109          6           0       -2.887762   -1.698100    3.762109
    110          7           0       -2.980982   -1.380323    2.467571
    111          6           0       -2.019409   -1.777103    1.624593
    112          6           0       -0.914360   -2.474539    2.057065
    113          1           0       -1.746736   -2.576046    5.331135
    114          1           0       -3.712827   -1.385591    4.395720
    115          1           0       -2.167043   -1.513103    0.578413
    116          1           0       -0.175011   -2.810119    1.348127
    117          6           0        4.047323    3.661055    3.049468
    118          6           0        5.068813    3.583691    2.405770
    119          6           0        6.253988    3.650161    1.648269
    120          6           0        7.279778    4.481090    2.061975
    121          6           0        8.421112    4.666484    1.274645
    122          6           0        8.541575    4.055138    0.051654
    123          6           0        7.528638    3.192327   -0.405199
    124          6           0        7.576136    2.555523   -1.665750
    125          6           0        6.573826    1.707429   -2.036615
    126          7           0        5.540905    1.411283   -1.210125
    127          6           0        5.443122    2.011995   -0.040056
    128          6           0        6.387106    2.947064    0.412451
    129          1           0        7.189941    5.006852    3.000291
    130          1           0        9.202605    5.320008    1.631182
    131          1           0        9.405925    4.229339   -0.569730
    132          1           0        8.405859    2.751156   -2.326072
    133          1           0        6.560121    1.230320   -3.014141
    134          1           0        4.596810    1.746590    0.589168
    135          6           0        2.825903    3.824728    3.737874
    136          6           0        2.745342    4.712073    4.815963
    137          6           0        1.527443    4.929486    5.433450
    138          6           0        0.385641    4.282375    4.991993
    139          6           0        0.451353    3.388317    3.920272
    140          6           0        1.681127    3.158034    3.306040
    141          1           0        3.630815    5.228070    5.154117
    142          1           0        1.464642    5.619463    6.261174
    143          1           0       -0.559628    4.502745    5.461921
    144          1           0        1.768581    2.442846    2.503922
    145          6           0       -0.750462    2.709250    3.426754
    146          6           0       -1.798118    2.337408    4.275535
    147          6           0       -2.883571    1.656427    3.763574
    148          7           0       -2.965328    1.320166    2.473093
    149          6           0       -1.992078    1.696799    1.634222
    150          6           0       -0.888122    2.395397    2.067705
    151          1           0       -1.755006    2.553612    5.330536
    152          1           0       -3.716415    1.357209    4.393248
    153          1           0       -2.129121    1.415397    0.590991
    154          1           0       -0.138673    2.713875    1.361594
 ---------------------------------------------------------------------
 Rotational constants (GHZ):           0.0204039           0.0112029           0.0107461
 Leave Link  202 at Fri Feb 26 11:24:32 2021, MaxMem=  7864320000 cpu:               1.0 elap:               0.0
 (Enter /apps/gaussian/g16-c01-avx/g16/l301.exe)
 Standard basis: def2SVP (5D, 7F)
 Ernie: Thresh=  0.10000D-02 Tol=  0.10000D-05 Strict=F.
 There are  1792 symmetry adapted cartesian basis functions of A   symmetry.
 There are  1686 symmetry adapted basis functions of A   symmetry.
  1686 basis functions,  2922 primitive gaussians,  1792 cartesian basis functions
   336 alpha electrons      336 beta electrons
       nuclear repulsion energy     18046.2771287677 Hartrees.
 IExCor= 1009 DFT=T Ex+Corr=PBE1PBE ExCW=0 ScaHFX=  0.250000
 ScaDFX=  0.750000  0.750000  1.000000  1.000000 ScalE2=  1.000000  1.000000
 IRadAn=      7 IRanWt=     -1 IRanGd=            0 ICorTp=0 IEmpDi=141
 NAtoms=  154 NActive=  154 NUniq=  154 SFac= 1.00D+00 NAtFMM=   60 NAOKFM=T Big=T
 Integral buffers will be    131072 words long.
 Raffenetti 2 integral format.
 Two-electron integral symmetry is turned on.
 R6Disp:  Grimme-D3(BJ) Dispersion energy=       -0.2522907203 Hartrees.
 Nuclear repulsion after empirical dispersion term =    18046.0248380474 Hartrees.
 ------------------------------------------------------------------------------
 Polarizable Continuum Model (PCM)
 =================================
 Model                : PCM.
 Atomic radii         : UFF (Universal Force Field).
 Polarization charges : Total charges.
 Charge compensation  : None.
 Solution method      : On-the-fly selection.
 Cavity type          : Scaled VdW (van der Waals Surface) (Alpha=1.100).
 Cavity algorithm     : GePol (No added spheres)
                        Default sphere list used, NSphG=  154.
                        Lebedev-Laikov grids with approx.  5.0 points / Ang**2.
                        Smoothing algorithm: York/Karplus (Gamma=1.0000).
                        Polarization charges: spherical gaussians, with
                                              point-specific exponents (IZeta= 3).
                        Self-potential: point-specific (ISelfS= 7).
                        Self-field    : sphere-specific E.n sum rule (ISelfD= 2).
 Solvent              : DiMethylSulfoxide, Eps=  46.826000 Eps(inf)=   2.007889
 ------------------------------------------------------------------------------
 GePol: Number of generator spheres                  =     154
 GePol: Total number of spheres                      =     154
 GePol: Number of exposed spheres                    =     154 (100.00%)
 GePol: Number of points                             =   10857
 GePol: Average weight of points                     =       0.13
 GePol: Minimum weight of points                     =   0.16D-11
 GePol: Maximum weight of points                     =    0.20577
 GePol: Number of points with low weight             =     854
 GePol: Fraction of low-weight points (<1% of avg)   =       7.87%
 GePol: Cavity surface area                          =   1374.674 Ang**2
 GePol: Cavity volume                                =   1669.011 Ang**3
 Leave Link  301 at Fri Feb 26 11:24:33 2021, MaxMem=  7864320000 cpu:               4.0 elap:               0.1
 (Enter /apps/gaussian/g16-c01-avx/g16/l302.exe)
 NPDir=0 NMtPBC=     1 NCelOv=     1 NCel=       1 NClECP=     1 NCelD=      1
         NCelK=      1 NCelE2=     1 NClLst=     1 CellRange=     0.0.
 One-electron integrals computed using PRISM.
 One-electron integral symmetry used in STVInt
   1 Symmetry operations used in ECPInt.
 ECPInt:  NShTT=  293761 NPrTT= 1082631 LenC2=  175691 LenP2D=  370445.
 LDataN:  DoStor=T MaxTD1= 7 Len=  274
 NBasis=  1686 RedAO= T EigKep=  2.48D-04  NBF=  1686
 NBsUse=  1686 1.00D-06 EigRej= -1.00D+00 NBFU=  1686
 Precomputing XC quadrature grid using
 IXCGrd= 4 IRadAn=           7 IRanWt=          -1 IRanGd=           0 AccXCQ= 0.00D+00.
 Generated NRdTot=       0 NPtTot=           0 NUsed=           0 NTot=          32
 NSgBfM=  1522  1492  1502  1515  1522 MxSgAt=   154 MxSgA2=   154.
 Leave Link  302 at Fri Feb 26 11:24:47 2021, MaxMem=  7864320000 cpu:             428.0 elap:              13.5
 (Enter /apps/gaussian/g16-c01-avx/g16/l303.exe)
 DipDrv:  MaxL=1.
 Leave Link  303 at Fri Feb 26 11:24:48 2021, MaxMem=  7864320000 cpu:              19.3 elap:               0.7
 (Enter /apps/gaussian/g16-c01-avx/g16/l401.exe)
 ExpMin= 3.70D-02 ExpMax= 1.71D+03 ExpMxC= 2.58D+02 IAcc=3 IRadAn=         7 AccDes= 0.00D+00
 Harris functional with IExCor= 1009 and IRadAn=       7 diagonalized for initial guess.
 HarFok:  IExCor= 1009 AccDes= 0.00D+00 IRadAn=         7 IDoV= 1 UseB2=F ITyADJ=14
 ICtDFT=  3500011 ScaDFX=  1.000000  1.000000  1.000000  1.000000
 FoFCou: FMM=F IPFlag=           0 FMFlag=      100000 FMFlg1=        2001
         NFxFlg=           0 DoJE=T BraDBF=F KetDBF=T FulRan=T
         wScrn=  0.000000 ICntrl=       500 IOpCl=  0 I1Cent=   200000004 NGrid=           0
         NMat0=    1 NMatS0=      1 NMatT0=    0 NMatD0=    1 NMtDS0=    0 NMtDT0=    0
 Petite list used in FoFCou.
 Harris En= -4075.17573685964    
 JPrj=0 DoOrth=F DoCkMO=F.
 Leave Link  401 at Fri Feb 26 11:25:22 2021, MaxMem=  7864320000 cpu:            1068.8 elap:              33.7
 (Enter /apps/gaussian/g16-c01-avx/g16/l508.exe)
 Integral symmetry usage will be decided dynamically.
 Tight linear equation convergence will be used.
 RPBE1PBE wavefunction.
 Linear searches until partial convergence.
 Full line searches.
 Fock matrices will be formed incrementally for  20 cycles.
 Inv3:  Mode=1 IEnd=   353623347.
 Iteration    1 A*A^-1 deviation from unit magnitude is 1.07D-14 for  10855.
 Iteration    1 A*A^-1 deviation from orthogonality  is 3.71D-15 for  10849  10764.
 Iteration    1 A^-1*A deviation from unit magnitude is 1.07D-14 for  10855.
 Iteration    1 A^-1*A deviation from orthogonality  is 5.62D-14 for   8433   8398.
 FoFJK:  IHMeth= 1 ICntrl=       0 DoSepK=F KAlg= 0 I1Cent=           0 FoldK=F
 IRaf= 600000000 NMat=       1 IRICut=       1 DoRegI=T DoRafI=F ISym2E= 1 IDoP0=0 IntGTp=1.
 Iteration   1 EE= -4045.71835034906                                    Grad=5.519D+00 Max rot=   37.4260 deg.
 Gradient too large for Newton-Raphson -- use scaled steepest descent instead.
 Alpha Gap=    -0.220 HL deriv= 5.03D-04 Rot set to   7.33D+00
     ILin= 1 X=0.000D+00 Y=-4.045718350349D+03 DE= 0.00D+00 F= -8.85D+01
 RMSU=  1.06D-03    CP:  9.85D-01
     ILin= 2 X=1.000D-01 Y=-4.053766630504D+03 DE=-8.05D+00 F= -6.55D+01 OKLS=F
 RMSU=  8.94D-04    CP:  9.68D-01  1.58D+00
     ILin= 3 X=2.000D-01 Y=-4.058300590673D+03 DE=-1.26D+01 F= -2.66D+01
     Note:  rotation exceeds Pi/2.
 RMSU=  6.85D-05    CP:  9.66D-01  1.60D+00  1.17D+00
     ILin= 4 X=2.144D-01 Y=-4.058650160467D+03 DE=-1.29D+01 F= -2.22D+01
     Note:  rotation exceeds Pi/2.
 RMSU=  6.73D-04    CP:  9.55D-01  1.67D+00  1.85D+00  3.00D+00
     ILin= 5 X=3.032D-01 Y=-4.059745721911D+03 DE=-1.40D+01 F= -5.37D+00
     Note:  rotation exceeds Pi/2.
 RMSU=  7.97D-04    CP:  9.40D-01  2.13D+00  1.80D+00  3.00D+00  2.65D+00
     ILin= 6 X=4.287D-01 Y=-4.059887866386D+03 DE=-1.42D+01 F=  2.55D+00
     Accept linear search using points  5 and  6.
     An  expanding polynomial of degree  6 produced  0.3580
 RMSU=  2.62D-05    CP:  9.49D-01  1.80D+00  1.89D+00  3.00D+00  1.90D+00
                    CP:  2.54D-01
 Iteration   2 EE= -4059.92115120510     Delta-E=      -14.202800856037 Grad=3.444D+00 Max rot=   29.2663 deg.
 Gradient too large for Newton-Raphson -- use scaled steepest descent instead.
 Alpha Gap=    -0.034 HL deriv= 3.08D-01
     ILin= 1 X=0.000D+00 Y=-4.059921151205D+03 DE= 0.00D+00 F= -4.50D+01
 RMSU=  1.83D-03    CP:  9.34D-01  1.74D+00  1.73D+00  3.00D+00  1.40D+00
                    CP:  4.48D-01 -3.00D+00
     ILin= 2 X=3.000D-01 Y=-4.065550435207D+03 DE=-5.63D+00 F=  4.07D+00 OKLS=F
 RMSU=  1.26D-03    CP:  9.26D-01  1.68D+00  1.69D+00  3.00D+00  1.28D+00
                    CP:  8.00D-01 -3.00D+00  1.23D+00
     ILin= 3 X=5.000D-01 Y=-4.063815537192D+03 DE=-3.89D+00 F=  8.48D+00
     An  expanding polynomial of degree  3 produced  0.3210
     Minimum is close to point  2 DX=  2.10D-02 DF= -2.41D-02 DXR=  6.53D-02 DFR=  4.28D-03 which will be used.
 Iteration   3 EE= -4065.55043520749     Delta-E=       -5.629284002393 Grad=1.971D+00 Max rot=   18.1250 deg.
 Gradient too large for Newton-Raphson -- use scaled steepest descent instead.
 Alpha Gap=     0.043 HL deriv= 3.02D-01
     ILin= 1 X=0.000D+00 Y=-4.065550435207D+03 DE= 0.00D+00 F= -2.46D+01
 RMSU=  1.44D-03    CP:  9.26D-01  1.66D+00  1.59D+00  3.00D+00  1.27D+00
                    CP:  3.44D-01 -3.00D+00  8.84D-01  2.60D-01
     ILin= 2 X=3.000D-01 Y=-4.068300202189D+03 DE=-2.75D+00 F=  2.29D+00 OKLS=F
 RMSU=  8.43D-04    CP:  9.20D-01  1.53D+00  1.48D+00  3.00D+00  1.15D+00
                    CP:  3.76D-01 -3.00D+00  7.80D-01  6.07D-01  1.25D+00
     ILin= 3 X=5.000D-01 Y=-4.067430627631D+03 DE=-1.88D+00 F=  5.58D+00
     An  expanding polynomial of degree  3 produced  0.3196
     Minimum is close to point  2 DX=  1.96D-02 DF= -1.03D-02 DXR=  6.12D-02 DFR=  3.76D-03 which will be used.
 Iteration   4 EE= -4068.30020218914     Delta-E=       -2.749766981648 Grad=1.226D+00 Max rot=    6.0674 deg.
 Gradient too large for Newton-Raphson -- use scaled steepest descent instead.
 Alpha Gap=     0.053 HL deriv= 3.76D-01
     ILin= 1 X=0.000D+00 Y=-4.068300202189D+03 DE= 0.00D+00 F= -5.15D+00
 RMSU=  6.12D-04    CP:  9.23D-01  1.43D+00  1.32D+00  3.00D+00  9.79D-01
                    CP:  1.50D-01 -3.00D+00  8.30D-01  1.74D-01  8.65D-01
                    CP: -3.51D-02
     ILin= 2 X=3.000D-01 Y=-4.069616540997D+03 DE=-1.32D+00 F= -3.50D+00 OKLS=F
 RMSU=  1.02D-04    CP:  9.21D-01  1.26D+00  1.14D+00  3.00D+00  7.86D-01
                    CP:  6.19D-02 -3.00D+00  7.82D-01  1.33D-01  7.58D-01
                    CP:  1.10D-02  1.59D+00
     ILin= 3 X=5.000D-01 Y=-4.070171223106D+03 DE=-1.87D+00 F= -2.00D+00
 RMSU=  8.87D-06    CP:  9.20D-01  1.18D+00  1.05D+00  3.00D+00  6.93D-01
                    CP:  3.06D-02 -3.00D+00  7.55D-01  1.18D-01  7.03D-01
                    CP:  5.34D-02  1.86D+00  1.78D+00
     ILin= 4 X=6.000D-01 Y=-4.070328431774D+03 DE=-2.03D+00 F= -1.14D+00
 RMSU=  2.17D-04    CP:  9.17D-01  9.45D-01  7.99D-01  3.00D+00  4.31D-01
                    CP: -1.35D-02 -3.00D+00  6.62D-01  9.68D-02  5.46D-01
                    CP:  2.44D-01  2.48D+00  3.00D+00  3.00D+00
     ILin= 5 X=9.000D-01 Y=-4.070249496098D+03 DE=-1.95D+00 F=  1.71D+00
     An  expanding polynomial of degree  5 produced  0.7241
 RMSU=  6.34D-06    CP:  9.19D-01  1.08D+00  9.40D-01  3.00D+00  5.81D-01
                    CP:  3.35D-03 -3.00D+00  7.18D-01  1.05D-01  6.36D-01
                    CP:  1.22D-01  2.15D+00  2.97D+00  3.00D+00  1.06D-02
 Iteration   5 EE= -4070.39953957263     Delta-E=       -2.099337383494 Grad=9.112D-01 Max rot=   11.8437 deg.
 Gradient too large for Newton-Raphson -- use scaled steepest descent instead.
 Alpha Gap=     0.149 HL deriv= 2.63D-03
     ILin= 1 X=0.000D+00 Y=-4.070399539573D+03 DE= 0.00D+00 F= -3.92D+00
 RMSU=  7.83D-04    CP:  9.12D-01  1.06D+00  8.89D-01  3.00D+00  5.53D-01
                    CP:  5.31D-03 -3.00D+00  6.71D-01  1.68D-01  8.08D-01
                    CP:  2.01D-01  2.05D+00  3.00D+00  3.00D+00  2.76D-01
                    CP:  3.00D+00
     ILin= 2 X=5.000D-01 Y=-4.070921881745D+03 DE=-5.22D-01 F=  1.25D+00 OKLS=T
     Accept linear search using points  1 and  2.
     An  expanding polynomial of degree  2 produced  0.2626
 RMSU=  6.88D-05    CP:  9.15D-01  1.07D+00  9.12D-01  3.00D+00  5.68D-01
                    CP:  1.56D-03 -3.00D+00  6.99D-01  1.32D-01  7.35D-01
                    CP:  1.43D-01  2.14D+00  3.00D+00  3.00D+00  8.99D-02
                    CP:  3.00D+00  5.28D-01
 Iteration   6 EE= -4071.00380666875     Delta-E=       -0.604267096118 Grad=5.975D-01 Max rot=    6.4462 deg.
 Gradient too large for Newton-Raphson -- use scaled steepest descent instead.
 Alpha Gap=     0.116 HL deriv= 2.98D-02
     ILin= 1 X=0.000D+00 Y=-4.071003806669D+03 DE= 0.00D+00 F= -2.23D+00
 RMSU=  8.73D-04    CP:  9.10D-01  8.47D-01  7.09D-01  3.00D+00  3.31D-01
                    CP: -5.35D-02 -3.00D+00  5.20D-01  8.91D-02  6.10D-01
                    CP:  1.79D-01  2.14D+00  3.00D+00  3.00D+00  9.27D-01
                    CP:  3.00D+00  9.11D-01 -1.52D+00
     ILin= 2 X=7.000D-01 Y=-4.072126923801D+03 DE=-1.12D+00 F= -5.88D-01 OKLS=T
     Reject lnstep IMin12=  1  2 Big=T Turn=F Min= 1.616D+00 FVal=-4.072726427052D+03 Lims=  0.00D+00  7.00D-01
 RMSU=  3.56D-04    CP:  9.09D-01  7.70D-01  6.38D-01  3.00D+00  2.50D-01
                    CP: -6.99D-02 -3.00D+00  4.50D-01  6.52D-02  5.51D-01
                    CP:  1.85D-01  2.02D+00  3.00D+00  3.00D+00  1.30D+00
                    CP:  3.00D+00  9.82D-01 -3.00D+00  1.20D+00
     ILin= 3 X=1.000D+00 Y=-4.072092106589D+03 DE=-1.09D+00 F=  9.00D-01
     An  expanding polynomial of degree  3 produced  0.8163
 Restarting incremental Fock formation.
 Iteration   7 EE= -4072.16591514520     Delta-E=       -1.162108476456 Grad=3.781D-01 Max rot=    2.3868 deg.
 Gradient too large for Newton-Raphson -- use scaled steepest descent instead.
 Alpha Gap=     0.131 HL deriv= 7.51D-02
     ILin= 1 X=0.000D+00 Y=-4.072165915145D+03 DE= 0.00D+00 F= -6.70D-01
 RMSU=  3.37D-04    CP:  9.98D-01
     ILin= 2 X=5.000D-01 Y=-4.072404503980D+03 DE=-2.39D-01 F= -2.83D-01 OKLS=F
 RMSU=  3.10D-05    CP:  9.97D-01  1.39D+00
     ILin= 3 X=7.000D-01 Y=-4.072445499701D+03 DE=-2.80D-01 F= -1.28D-01
 RMSU=  2.98D-06    CP:  9.96D-01  1.76D+00  2.55D+00
     ILin= 4 X=9.000D-01 Y=-4.072455662384D+03 DE=-2.90D-01 F=  2.54D-02
     Accept linear search using points  3 and  4.
     An  expanding polynomial of degree  4 produced  0.7838
 RMSU=  1.27D-08    CP:  9.97D-01  1.55D+00  1.58D+00  2.60D-01
 Iteration   8 EE= -4072.45348128917     Delta-E=       -0.287566143965 Grad=3.209D-01 Max rot=    1.6553 deg.
 Gradient too large for Newton-Raphson -- use scaled steepest descent instead.
 Alpha Gap=     0.116 HL deriv= 3.90D-02
     ILin= 1 X=0.000D+00 Y=-4.072453481289D+03 DE= 0.00D+00 F= -3.85D-01
 RMSU=  3.86D-04    CP:  9.94D-01  1.65D+00  3.00D+00 -3.00D+00  3.00D+00
     ILin= 2 X=8.000D-01 Y=-4.072520951392D+03 DE=-6.75D-02 F=  2.13D-01 OKLS=T
     Accept linear search using points  1 and  2.
     An  expanding polynomial of degree  2 produced  0.4797
 RMSU=  1.13D-05    CP:  9.95D-01  1.62D+00  2.28D+00 -3.00D+00  3.00D+00
                    CP:  6.01D-01
 Iteration   9 EE= -4072.55144277335     Delta-E=       -0.097961484178 Grad=2.059D-01 Max rot=    1.9032 deg.
 Gradient too large for Newton-Raphson -- use scaled steepest descent instead.
 Alpha Gap=     0.137 HL deriv= 5.47D-02
     ILin= 1 X=0.000D+00 Y=-4.072551442773D+03 DE= 0.00D+00 F= -2.00D-01
 RMSU=  2.07D-04    CP:  9.94D-01  1.94D+00  3.00D+00 -2.63D+00  3.00D+00
                    CP:  6.56D-01 -1.91D+00
     ILin= 2 X=6.000D-01 Y=-4.072625349722D+03 DE=-7.39D-02 F= -4.32D-02 OKLS=F
 RMSU=  3.52D-05    CP:  9.93D-01  2.07D+00  3.00D+00  1.10D+00 -3.00D+00
                    CP:  6.76D-01 -3.00D+00  1.50D+00
     ILin= 3 X=9.000D-01 Y=-4.072625824674D+03 DE=-7.44D-02 F=  4.02D-02
     Accept linear search using points  2 and  3.
     An  expanding polynomial of degree  3 produced  0.7499
 RMSU=  4.89D-06    CP:  9.94D-01  2.01D+00  3.00D+00 -8.42D-01  3.00D+00
                    CP:  6.67D-01 -3.00D+00  1.25D+00  3.41D-01
 Iteration  10 EE= -4072.62871734166     Delta-E=       -0.077274568317 Grad=2.876D-01 Max rot=    2.0019 deg.
 Gradient too large for Newton-Raphson -- use scaled steepest descent instead.
 Alpha Gap=     0.119 HL deriv= 4.92D-02
     ILin= 1 X=0.000D+00 Y=-4.072628717342D+03 DE= 0.00D+00 F= -3.61D-01
 RMSU=  2.20D-04    CP:  9.91D-01  1.99D+00  3.00D+00 -2.69D+00 -3.00D+00
                    CP:  1.23D+00 -3.00D+00  1.29D+00  2.93D+00 -3.00D+00
     ILin= 2 X=6.000D-01 Y=-4.072737330579D+03 DE=-1.09D-01 F=  3.38D-03 OKLS=T
     Accept linear search using points  1 and  2.
     An  expanding polynomial of degree  2 produced  0.5570
     Minimum is close to point  2 DX= -4.30D-02 DF= -1.31D-04 DXR=  7.73D-02 DFR=  1.21D-03 which will be used.
 Iteration  11 EE= -4072.73733057857     Delta-E=       -0.108613236909 Grad=2.939D-01 Max rot=    2.6005 deg.
 Gradient too large for Newton-Raphson -- use scaled steepest descent instead.
 Alpha Gap=     0.151 HL deriv= 6.02D-02
     ILin= 1 X=0.000D+00 Y=-4.072737330579D+03 DE= 0.00D+00 F= -4.43D-01
 RMSU=  3.01D-04    CP:  9.89D-01  2.10D+00  3.00D+00  3.00D+00 -3.00D+00
                    CP:  9.96D-01 -3.00D+00  2.29D+00  3.00D+00 -3.00D+00
                    CP:  1.18D+00
     ILin= 2 X=6.000D-01 Y=-4.072854041754D+03 DE=-1.17D-01 F=  5.93D-02 OKLS=T
     Accept linear search using points  1 and  2.
     An  expanding polynomial of degree  2 produced  0.4256
 RMSU=  1.56D-05    CP:  9.90D-01  2.08D+00  3.00D+00  3.00D+00 -3.00D+00
                    CP:  1.08D+00 -3.00D+00  2.06D+00  3.00D+00 -3.00D+00
                    CP:  1.17D+00  6.82D-01
 Iteration  12 EE= -4072.85153243384     Delta-E=       -0.114201855264 Grad=2.005D-01 Max rot=    2.0192 deg.
 Gradient too large for Newton-Raphson -- use scaled steepest descent instead.
 Alpha Gap=     0.135 HL deriv= 1.75D-02
     ILin= 1 X=0.000D+00 Y=-4.072851532434D+03 DE= 0.00D+00 F= -2.14D-01
 RMSU=  8.45D-05    CP:  9.88D-01  2.03D+00  3.00D+00  3.00D+00 -3.00D+00
                    CP:  1.22D+00 -3.00D+00  1.84D+00  3.00D+00 -3.00D+00
                    CP:  1.61D+00  1.14D+00 -1.85D+00
     ILin= 2 X=5.000D-01 Y=-4.072930387623D+03 DE=-7.89D-02 F= -9.69D-02 OKLS=F
 RMSU=  1.07D-05    CP:  9.88D-01  2.00D+00  3.00D+00  3.00D+00 -3.00D+00
                    CP:  1.26D+00 -3.00D+00  1.70D+00  3.00D+00 -3.00D+00
                    CP:  1.73D+00  1.31D+00 -3.00D+00  1.45D+00
     ILin= 3 X=7.000D-01 Y=-4.072944460663D+03 DE=-9.29D-02 F= -4.33D-02
 RMSU=  2.97D-05    CP:  9.87D-01  1.96D+00  3.00D+00  3.00D+00 -3.00D+00
                    CP:  1.31D+00 -3.00D+00  1.45D+00  3.00D+00 -3.00D+00
                    CP:  1.84D+00  1.56D+00 -3.00D+00  2.15D+00  3.00D+00
     ILin= 4 X=1.000D+00 Y=-4.072944665779D+03 DE=-9.31D-02 F=  4.29D-02
     Accept linear search using points  3 and  4.
     An  expanding polynomial of degree  4 produced  0.8507
 RMSU=  7.56D-06    CP:  9.87D-01  1.98D+00  3.00D+00  3.00D+00 -3.00D+00
                    CP:  1.29D+00 -3.00D+00  1.58D+00  3.00D+00 -3.00D+00
                    CP:  1.80D+00  1.44D+00 -3.00D+00  1.80D+00  2.85D+00
                    CP:  2.51D-01
 Iteration  13 EE= -4072.94779534744     Delta-E=       -0.096262913601 Grad=2.292D-01 Max rot=    1.8085 deg.
 Gradient too large for Newton-Raphson -- use scaled steepest descent instead.
 Alpha Gap=     0.160 HL deriv= 4.00D-02
     ILin= 1 X=0.000D+00 Y=-4.072947795347D+03 DE= 0.00D+00 F= -2.30D-01
 RMSU=  1.83D-04    CP:  9.87D-01  2.03D+00  3.00D+00  3.00D+00 -3.00D+00
                    CP:  1.05D+00 -3.00D+00  2.00D+00  3.00D+00 -3.00D+00
                    CP:  1.32D+00  1.79D+00 -3.00D+00  1.97D+00  3.00D+00
                    CP:  1.74D+00  3.00D+00
     ILin= 2 X=6.000D-01 Y=-4.072990339382D+03 DE=-4.25D-02 F=  8.38D-02 OKLS=T
     Accept linear search using points  1 and  2.
     An  expanding polynomial of degree  2 produced  0.3572
 RMSU=  1.12D-05    CP:  9.87D-01  2.02D+00  3.00D+00  3.00D+00 -3.00D+00
                    CP:  1.15D+00 -3.00D+00  1.84D+00  3.00D+00 -3.00D+00
                    CP:  1.52D+00  1.65D+00 -3.00D+00  1.93D+00  3.00D+00
                    CP:  1.02D+00  2.35D+00  5.97D-01
 Iteration  14 EE= -4072.99580031872     Delta-E=       -0.048004971279 Grad=1.007D-01 Max rot=    1.5317 deg.
 Gradient too large for Newton-Raphson -- use scaled steepest descent instead.
 Alpha Gap=     0.151 HL deriv= 1.40D-02
     ILin= 1 X=0.000D+00 Y=-4.072995800319D+03 DE= 0.00D+00 F= -7.38D-02
 RMSU=  9.04D-05    CP:  9.86D-01  2.00D+00  3.00D+00 -4.21D-01 -3.00D+00
                    CP:  1.20D+00 -3.00D+00  1.68D+00  3.00D+00 -3.00D+00
                    CP:  1.54D+00  1.72D+00 -3.00D+00  2.47D+00  3.00D+00
                    CP:  2.64D+00  2.20D+00  1.28D+00 -3.38D-02
     ILin= 2 X=6.000D-01 Y=-4.073039767438D+03 DE=-4.40D-02 F= -7.16D-02 OKLS=F
 Restarting incremental Fock formation.
     ILin= 3 X=8.000D-01 Y=-4.073053852777D+03 DE=-5.81D-02 F= -6.91D-02
 RMSU=  8.73D-05    CP:  1.00D+00
     ILin= 4 X=1.100D+00 Y=-4.073073789738D+03 DE=-7.80D-02 F= -6.34D-02
 RMSU=  3.09D-05    CP:  9.99D-01  2.62D+00
     ILin= 5 X=1.600D+00 Y=-4.073101959435D+03 DE=-1.06D-01 F= -4.80D-02
 RMSU=  1.21D-04    CP:  9.98D-01  3.00D+00  3.00D+00
     ILin= 6 X=2.200D+00 Y=-4.073122680877D+03 DE=-1.27D-01 F= -1.92D-02
 RMSU=  1.68D-04    CP:  9.96D-01  3.00D+00  3.00D+00  2.62D+00
     ILin= 7 X=3.100D+00 Y=-4.073112926609D+03 DE=-1.17D-01 F=  4.47D-02
     An  expanding polynomial of degree  7 produced  2.5070
 RMSU=  3.58D-06    CP:  9.98D-01  3.00D+00  3.00D+00  1.62D+00  2.79D-01
 Iteration  15 EE= -4073.12569580163     Delta-E=       -0.129895482911 Grad=3.236D-01 Max rot=    1.5526 deg.
 Gradient too large for Newton-Raphson -- use scaled steepest descent instead.
 Alpha Gap=     0.227 HL deriv= 4.65D-03
     ILin= 1 X=0.000D+00 Y=-4.073125695802D+03 DE= 0.00D+00 F= -4.04D-01
 RMSU=  4.40D-04    CP:  9.97D-01  3.00D+00  3.00D+00  1.07D+00  1.05D+00
                    CP:  3.00D+00
     ILin= 2 X=9.000D-01 Y=-4.073163124908D+03 DE=-3.74D-02 F=  3.04D-01 OKLS=T
     Accept linear search using points  1 and  2.
     An  expanding polynomial of degree  2 produced  0.4897
 RMSU=  2.02D-05    CP:  9.97D-01  3.00D+00  3.00D+00  1.45D+00  6.32D-01
                    CP:  3.00D+00  5.53D-01
 Iteration  16 EE= -4073.22521432889     Delta-E=       -0.099518527266 Grad=1.925D-01 Max rot=    1.6232 deg.
 Gradient too large for Newton-Raphson -- use scaled steepest descent instead.
 Alpha Gap=     0.207 HL deriv= 2.73D-02
     ILin= 1 X=0.000D+00 Y=-4.073225214329D+03 DE= 0.00D+00 F= -1.84D-01
 RMSU=  3.22D-04    CP:  9.95D-01  3.00D+00  3.00D+00  1.87D+00  1.90D+00
                    CP:  3.00D+00  5.02D-01 -5.67D-01
     ILin= 2 X=1.100D+00 Y=-4.073272627557D+03 DE=-4.74D-02 F=  1.06D-01 OKLS=T
     Accept linear search using points  1 and  2.
     An  expanding polynomial of degree  2 produced  0.7409
 RMSU=  1.54D-05    CP:  9.96D-01  3.00D+00  3.00D+00  1.87D+00  1.47D+00
                    CP:  3.00D+00  5.42D-01  5.55D-01  6.85D-01
 Iteration  17 EE= -4073.29272092809     Delta-E=       -0.067506599193 Grad=2.091D-01 Max rot=    1.0370 deg.
 Gradient too large for Newton-Raphson -- use scaled steepest descent instead.
 Alpha Gap=     0.247 HL deriv= 4.07D-03
     ILin= 1 X=0.000D+00 Y=-4.073292720928D+03 DE= 0.00D+00 F= -1.53D-01
 RMSU=  6.47D-05    CP:  9.95D-01  3.00D+00  3.00D+00  1.34D+00  1.76D+00
                    CP:  3.00D+00  8.58D-01 -1.33D+00  6.15D-01 -3.80D-02
     ILin= 2 X=6.000D-01 Y=-4.073321086542D+03 DE=-2.84D-02 F=  5.73D-02 OKLS=T
     Accept linear search using points  1 and  2.
     An  expanding polynomial of degree  2 produced  0.3581
 RMSU=  1.18D-06    CP:  9.95D-01  3.00D+00  3.00D+00  1.57D+00  1.65D+00
                    CP:  3.00D+00  7.34D-01 -4.58D-01  6.46D-01  4.16D-01
                    CP:  6.02D-01
 Iteration  18 EE= -4073.32479580138     Delta-E=       -0.032074873292 Grad=7.017D-02 Max rot=    0.9162 deg.
 Gradient too large for Newton-Raphson -- use scaled steepest descent instead.
 Alpha Gap=     0.238 HL deriv= 9.52D-03
     ILin= 1 X=0.000D+00 Y=-4.073324795801D+03 DE= 0.00D+00 F= -3.22D-02
 RMSU=  1.65D-05    CP:  9.95D-01  3.00D+00  3.00D+00  1.44D+00  1.88D+00
                    CP:  3.00D+00  7.62D-01 -1.58D+00  7.83D-01 -3.08D-01
                    CP:  8.17D-01  2.79D+00
     ILin= 2 X=5.000D-01 Y=-4.073338249795D+03 DE=-1.35D-02 F= -2.15D-02 OKLS=F
 RMSU=  1.35D-06    CP:  9.95D-01  3.00D+00  3.00D+00  1.33D+00  2.02D+00
                    CP:  3.00D+00  7.73D-01 -2.37D+00  8.60D-01 -8.94D-01
                    CP:  9.39D-01  3.00D+00  1.60D+00
     ILin= 3 X=8.000D-01 Y=-4.073343694062D+03 DE=-1.89D-02 F= -1.47D-02
 RMSU=  2.45D-05    CP:  9.95D-01  3.00D+00  3.00D+00  1.08D+00  2.26D+00
                    CP:  3.00D+00  7.79D-01 -3.00D+00  9.99D-01 -2.38D+00
                    CP:  1.16D+00  2.86D+00  2.77D+00  3.00D+00
     ILin= 4 X=1.400D+00 Y=-4.073348337100D+03 DE=-2.35D-02 F= -6.12D-04
     Reject lnstep IMin12=  3  4 Big=T Turn=F Min= 1.726D+00 FVal=-4.073348596539D+03 Lims=  8.00D-01  1.40D+00
 RMSU=  4.56D-05    CP:  9.94D-01  2.91D+00  3.00D+00  6.72D-01  2.54D+00
                    CP:  3.00D+00  7.53D-01 -3.00D+00  1.16D+00 -3.00D+00
                    CP:  1.41D+00 -1.52D+00  3.00D+00  3.00D+00  3.00D+00
     ILin= 5 X=2.300D+00 Y=-4.073339000406D+03 DE=-1.42D-02 F=  2.14D-02
     An  expanding polynomial of degree  5 produced  1.4254
     Minimum is close to point  4 DX=  2.54D-02 DF= -7.80D-06 DXR=  1.78D-02 DFR=  3.31D-04 which will be used.
 Iteration  19 EE= -4073.34833710048     Delta-E=       -0.023541299106 Grad=7.288D-02 Max rot=    0.2367 deg.
 Gradient too large for Newton-Raphson -- use scaled steepest descent instead.
 Alpha Gap=     0.246 HL deriv= 2.34D-04
     ILin= 1 X=0.000D+00 Y=-4.073348337100D+03 DE= 0.00D+00 F= -1.62D-02
 RMSU=  2.41D-05    CP:  9.94D-01  3.00D+00  3.00D+00  9.43D-01  2.27D+00
                    CP:  3.00D+00  8.43D-01 -3.00D+00  9.33D-01 -2.67D+00
                    CP:  1.70D+00 -1.88D+00  1.67D+00  3.00D+00  1.38D+00
                    CP: -1.20D-02
     ILin= 2 X=7.000D-01 Y=-4.073348120717D+03 DE= 2.16D-04 F=  1.68D-02 OKLS=T
     Reject lnstep IMin12=  1  2 Big=F Turn=F Min= 3.463D-01 FVal=-4.073352351016D+03 Lims=  0.00D+00  7.00D-01
 RMSU=  1.62D-07    CP:  9.95D-01  3.00D+00  3.00D+00  1.02D+00  2.26D+00
                    CP:  3.00D+00  8.07D-01 -3.00D+00  9.71D-01 -2.50D+00
                    CP:  1.39D+00  9.37D-01  2.30D+00  3.00D+00  1.16D+00
                    CP: -4.82D-03  4.28D-01
     ILin= 3 X=3.000D-01 Y=-4.073351071106D+03 DE=-2.73D-03 F= -2.04D-03
     A contracting polynomial of degree  3 produced  0.3434
 RMSU=  1.44D-10    CP:  9.95D-01  3.00D+00  3.00D+00  1.01D+00  2.26D+00
                    CP:  3.00D+00  8.11D-01 -3.00D+00  9.67D-01 -2.52D+00
                    CP:  1.42D+00  6.46D-01  2.23D+00  3.00D+00  1.18D+00
                    CP: -5.56D-03  4.91D-01  1.02D+00
 Iteration  20 EE= -4073.35111528361     Delta-E=       -0.002778183130 Grad=1.451D-02 Max rot=    0.1191 deg.
 Gradient too large for Newton-Raphson -- use scaled steepest descent instead.
 Alpha Gap=     0.244 HL deriv= 8.81D-04
     ILin= 1 X=0.000D+00 Y=-4.073351115284D+03 DE= 0.00D+00 F= -1.01D-03
 RMSU=  6.70D-06    CP:  9.94D-01  3.00D+00  3.00D+00  9.80D-01  2.28D+00
                    CP:  3.00D+00  8.02D-01 -3.00D+00  9.87D-01 -2.74D+00
                    CP:  1.51D+00  6.33D-01  2.69D+00  3.00D+00  1.40D+00
                    CP: -1.15D-02  7.28D-01 -2.76D+00  3.00D+00
     ILin= 2 X=7.000D-01 Y=-4.073351599030D+03 DE=-4.84D-04 F= -3.77D-04 OKLS=F
 Restarting incremental Fock formation.
     ILin= 3 X=1.400D+00 Y=-4.073351644241D+03 DE=-5.29D-04 F=  2.48D-04
     Accept linear search using points  2 and  3.
     An  expanding polynomial of degree  3 produced  1.0902
 RMSU=  7.48D-06    CP:  1.00D+00
 Iteration  21 EE= -4073.35167822382     Delta-E=       -0.000562940204 Grad=1.607D-02 Max rot=    0.0498 deg.
 Gradient too large for Newton-Raphson -- use scaled steepest descent instead.
 Alpha Gap=     0.245 HL deriv= 2.92D-04
     ILin= 1 X=0.000D+00 Y=-4.073351678224D+03 DE= 0.00D+00 F= -8.42D-04
 RMSU=  1.20D-05    CP:  1.00D+00  8.52D-01
     ILin= 2 X=6.000D-01 Y=-4.073351773051D+03 DE=-9.48D-05 F=  5.26D-04 OKLS=T
     Accept linear search using points  1 and  2.
     An  expanding polynomial of degree  2 produced  0.3283
 RMSU=  1.08D-08    CP:  1.00D+00  9.19D-01  5.47D-01
 Iteration  22 EE= -4073.35183180396     Delta-E=       -0.000153580138 Grad=4.275D-03 Max rot=    0.0305 deg.
 SCF Done:  E(RPBE1PBE) =  -4073.35183180     a.u. after   22 cycles
            Convg  =    0.4275D-02                    64 Fock formations.
              S**2 =  0.0000                  -V/T =  2.0509
 Leave Link  508 at Fri Feb 26 13:07:10 2021, MaxMem=  7864320000 cpu:          192391.6 elap:            6107.7
 (Enter /apps/gaussian/g16-c01-avx/g16/l502.exe)
 Integral symmetry usage will be decided dynamically.
 Closed shell SCF:
 Using DIIS extrapolation, IDIIS=  1040.
 NGot=  7864320000 LenX=  7857818442 LenY=  7854605386
 Requested convergence on RMS density matrix=1.00D-08 within 128 cycles.
 Requested convergence on MAX density matrix=1.00D-06.
 Requested convergence on             energy=1.00D-06.
 No special actions if energy rises.
 Fock matrices will be formed incrementally for  20 cycles.

 Cycle   1  Pass 1  IDiag  1:
 FoFJK:  IHMeth= 1 ICntrl=       0 DoSepK=F KAlg= 0 I1Cent=           0 FoldK=F
 IRaf= 600000000 NMat=       1 IRICut=       1 DoRegI=T DoRafI=F ISym2E= 0 IDoP0=0 IntGTp=1.
 FoFCou: FMM=T IPFlag=           0 FMFlag=      100000 FMFlg1=        2001
         NFxFlg=           0 DoJE=F BraDBF=F KetDBF=F FulRan=T
         wScrn=  0.000000 ICntrl=         0 IOpCl=  0 I1Cent=           0 NGrid=           0
         NMat0=    1 NMatS0=      1 NMatT0=    0 NMatD0=    1 NMtDS0=    0 NMtDT0=    0
 Symmetry not used in FoFCou.
 FMM levels:  10  Number of levels for PrismC:   9
 E= -4073.35183180395    
 DIIS: error= 2.95D-04 at cycle   1 NSaved=   1.
 NSaved= 1 IEnMin= 1 EnMin= -4073.35183180395     IErMin= 1 ErrMin= 2.95D-04
 ErrMax= 2.95D-04  0.00D+00 EMaxC= 1.00D-01 BMatC= 9.14D-06 BMatP= 9.14D-06
 IDIUse=3 WtCom= 9.97D-01 WtEn= 2.95D-03
 Coeff-Com:  0.100D+01
 Coeff-En:   0.100D+01
 Coeff:      0.100D+01
 Gap=     0.245 Goal=   None    Shift=    0.000
 RMSDP=1.15D-05 MaxDP=1.77D-03              OVMax= 1.35D-02

 Cycle   2  Pass 1  IDiag  1:
 RMSU=  1.15D-05    CP:  1.00D+00
 E= -4073.35191584101     Delta-E=       -0.000084037059 Rises=F Damp=F
 DIIS: error= 3.37D-05 at cycle   2 NSaved=   2.
 NSaved= 2 IEnMin= 2 EnMin= -4073.35191584101     IErMin= 2 ErrMin= 3.37D-05
 ErrMax= 3.37D-05  0.00D+00 EMaxC= 1.00D-01 BMatC= 4.11D-06 BMatP= 9.14D-06
 IDIUse=1 WtCom= 1.00D+00 WtEn= 0.00D+00
 Coeff-Com:  0.315D+00 0.685D+00
 Coeff:      0.315D+00 0.685D+00
 Gap=     0.145 Goal=   None    Shift=    0.000
 RMSDP=2.65D-06 MaxDP=3.93D-04 DE=-8.40D-05 OVMax= 8.84D-04

 Cycle   3  Pass 1  IDiag  1:
 RMSU=  2.54D-06    CP:  1.00D+00  1.07D+00
 E= -4073.35191901341     Delta-E=       -0.000003172398 Rises=F Damp=F
 DIIS: error= 4.37D-05 at cycle   3 NSaved=   3.
 NSaved= 3 IEnMin= 3 EnMin= -4073.35191901341     IErMin= 2 ErrMin= 3.37D-05
 ErrMax= 4.37D-05  0.00D+00 EMaxC= 1.00D-01 BMatC= 2.81D-06 BMatP= 4.11D-06
 IDIUse=1 WtCom= 1.00D+00 WtEn= 0.00D+00
 Coeff-Com: -0.563D-01 0.463D+00 0.594D+00
 Coeff:     -0.563D-01 0.463D+00 0.594D+00
 Gap=     0.145 Goal=   None    Shift=    0.000
 RMSDP=1.63D-06 MaxDP=3.03D-04 DE=-3.17D-06 OVMax= 8.72D-04

 Cycle   4  Pass 1  IDiag  1:
 RMSU=  1.19D-06    CP:  1.00D+00  1.15D+00  7.65D-01
 E= -4073.35192216558     Delta-E=       -0.000003152174 Rises=F Damp=F
 DIIS: error= 1.81D-05 at cycle   4 NSaved=   4.
 NSaved= 4 IEnMin= 4 EnMin= -4073.35192216558     IErMin= 4 ErrMin= 1.81D-05
 ErrMax= 1.81D-05  0.00D+00 EMaxC= 1.00D-01 BMatC= 4.91D-07 BMatP= 2.81D-06
 IDIUse=1 WtCom= 1.00D+00 WtEn= 0.00D+00
 Coeff-Com: -0.587D-01 0.178D+00 0.362D+00 0.519D+00
 Coeff:     -0.587D-01 0.178D+00 0.362D+00 0.519D+00
 Gap=     0.145 Goal=   None    Shift=    0.000
 RMSDP=5.94D-07 MaxDP=1.02D-04 DE=-3.15D-06 OVMax= 1.97D-04

 Cycle   5  Pass 1  IDiag  1:
 RMSU=  5.02D-07    CP:  1.00D+00  1.16D+00  8.13D-01  8.21D-01
 E= -4073.35192271863     Delta-E=       -0.000000553049 Rises=F Damp=F
 DIIS: error= 2.82D-06 at cycle   5 NSaved=   5.
 NSaved= 5 IEnMin= 5 EnMin= -4073.35192271863     IErMin= 5 ErrMin= 2.82D-06
 ErrMax= 2.82D-06  0.00D+00 EMaxC= 1.00D-01 BMatC= 3.68D-08 BMatP= 4.91D-07
 IDIUse=1 WtCom= 1.00D+00 WtEn= 0.00D+00
 Coeff-Com: -0.164D-01-0.146D-01 0.542D-01 0.229D+00 0.747D+00
 Coeff:     -0.164D-01-0.146D-01 0.542D-01 0.229D+00 0.747D+00
 Gap=     0.145 Goal=   None    Shift=    0.000
 RMSDP=2.42D-07 MaxDP=7.46D-05 DE=-5.53D-07 OVMax= 8.45D-05

 Cycle   6  Pass 1  IDiag  1:
 RMSU=  1.62D-07    CP:  1.00D+00  1.17D+00  8.47D-01  9.39D-01  9.90D-01
 E= -4073.35192276100     Delta-E=       -0.000000042375 Rises=F Damp=F
 DIIS: error= 1.38D-06 at cycle   6 NSaved=   6.
 NSaved= 6 IEnMin= 6 EnMin= -4073.35192276100     IErMin= 6 ErrMin= 1.38D-06
 ErrMax= 1.38D-06  0.00D+00 EMaxC= 1.00D-01 BMatC= 1.16D-08 BMatP= 3.68D-08
 IDIUse=1 WtCom= 1.00D+00 WtEn= 0.00D+00
 Coeff-Com:  0.324D-02-0.399D-01-0.277D-01 0.561D-01 0.458D+00 0.550D+00
 Coeff:      0.324D-02-0.399D-01-0.277D-01 0.561D-01 0.458D+00 0.550D+00
 Gap=     0.145 Goal=   None    Shift=    0.000
 RMSDP=9.53D-08 MaxDP=2.23D-05 DE=-4.24D-08 OVMax= 2.74D-05

 Cycle   7  Pass 1  IDiag  1:
 RMSU=  5.87D-08    CP:  1.00D+00  1.17D+00  8.55D-01  9.65D-01  1.06D+00
                    CP:  6.63D-01
 E= -4073.35192277353     Delta-E=       -0.000000012526 Rises=F Damp=F
 DIIS: error= 4.80D-07 at cycle   7 NSaved=   7.
 NSaved= 7 IEnMin= 7 EnMin= -4073.35192277353     IErMin= 7 ErrMin= 4.80D-07
 ErrMax= 4.80D-07  0.00D+00 EMaxC= 1.00D-01 BMatC= 9.14D-10 BMatP= 1.16D-08
 IDIUse=1 WtCom= 1.00D+00 WtEn= 0.00D+00
 Coeff-Com:  0.342D-02-0.226D-01-0.216D-01 0.119D-01 0.193D+00 0.305D+00
 Coeff-Com:  0.531D+00
 Coeff:      0.342D-02-0.226D-01-0.216D-01 0.119D-01 0.193D+00 0.305D+00
 Coeff:      0.531D+00
 Gap=     0.145 Goal=   None    Shift=    0.000
 RMSDP=2.75D-08 MaxDP=6.70D-06 DE=-1.25D-08 OVMax= 6.99D-06

 Cycle   8  Pass 1  IDiag  1:
 RMSU=  2.20D-08    CP:  1.00D+00  1.17D+00  8.57D-01  9.73D-01  1.07D+00
                    CP:  7.12D-01  8.77D-01
 E= -4073.35192277438     Delta-E=       -0.000000000851 Rises=F Damp=F
 DIIS: error= 2.16D-07 at cycle   8 NSaved=   8.
 NSaved= 8 IEnMin= 8 EnMin= -4073.35192277438     IErMin= 8 ErrMin= 2.16D-07
 ErrMax= 2.16D-07  0.00D+00 EMaxC= 1.00D-01 BMatC= 1.45D-10 BMatP= 9.14D-10
 IDIUse=1 WtCom= 1.00D+00 WtEn= 0.00D+00
 Coeff-Com:  0.150D-02-0.786D-02-0.977D-02-0.379D-02 0.381D-01 0.884D-01
 Coeff-Com:  0.313D+00 0.580D+00
 Coeff:      0.150D-02-0.786D-02-0.977D-02-0.379D-02 0.381D-01 0.884D-01
 Coeff:      0.313D+00 0.580D+00
 Gap=     0.145 Goal=   None    Shift=    0.000
 RMSDP=1.25D-08 MaxDP=4.14D-06 DE=-8.51D-10 OVMax= 4.26D-06

 Cycle   9  Pass 1  IDiag  1:
 RMSU=  8.55D-09    CP:  1.00D+00  1.17D+00  8.58D-01  9.76D-01  1.08D+00
                    CP:  7.30D-01  9.47D-01  8.51D-01
 E= -4073.35192277478     Delta-E=       -0.000000000397 Rises=F Damp=F
 DIIS: error= 6.33D-08 at cycle   9 NSaved=   9.
 NSaved= 9 IEnMin= 9 EnMin= -4073.35192277478     IErMin= 9 ErrMin= 6.33D-08
 ErrMax= 6.33D-08  0.00D+00 EMaxC= 1.00D-01 BMatC= 1.52D-11 BMatP= 1.45D-10
 IDIUse=1 WtCom= 1.00D+00 WtEn= 0.00D+00
 Coeff-Com:  0.298D-03-0.555D-03-0.194D-02-0.395D-02-0.852D-02-0.463D-02
 Coeff-Com:  0.667D-01 0.285D+00 0.667D+00
 Coeff:      0.298D-03-0.555D-03-0.194D-02-0.395D-02-0.852D-02-0.463D-02
 Coeff:      0.667D-01 0.285D+00 0.667D+00
 Gap=     0.145 Goal=   None    Shift=    0.000
 RMSDP=4.56D-09 MaxDP=1.53D-06 DE=-3.97D-10 OVMax= 1.58D-06

 Cycle  10  Pass 1  IDiag  1:
 RMSU=  3.16D-09    CP:  1.00D+00  1.17D+00  8.58D-01  9.77D-01  1.08D+00
                    CP:  7.35D-01  9.80D-01  9.32D-01  9.32D-01
 E= -4073.35192277485     Delta-E=       -0.000000000073 Rises=F Damp=F
 DIIS: error= 2.19D-08 at cycle  10 NSaved=  10.
 NSaved=10 IEnMin=10 EnMin= -4073.35192277485     IErMin=10 ErrMin= 2.19D-08
 ErrMax= 2.19D-08  0.00D+00 EMaxC= 1.00D-01 BMatC= 2.73D-12 BMatP= 1.52D-11
 IDIUse=1 WtCom= 1.00D+00 WtEn= 0.00D+00
 Coeff-Com: -0.968D-04 0.104D-02 0.596D-03-0.119D-02-0.847D-02-0.172D-01
 Coeff-Com: -0.196D-01 0.506D-01 0.334D+00 0.661D+00
 Coeff:     -0.968D-04 0.104D-02 0.596D-03-0.119D-02-0.847D-02-0.172D-01
 Coeff:     -0.196D-01 0.506D-01 0.334D+00 0.661D+00
 Gap=     0.145 Goal=   None    Shift=    0.000
 RMSDP=1.73D-09 MaxDP=3.82D-07 DE=-7.28D-11 OVMax= 4.74D-07

 Error on total polarization charges =  0.02628
 SCF Done:  E(RPBE1PBE) =  -4073.35192277     A.U. after   10 cycles
            NFock= 10  Conv=0.17D-08     -V/T= 2.0509
 KE= 3.876156451437D+03 PE=-4.527207349367D+04 EE= 1.927654028141D+04
 Leave Link  502 at Fri Feb 26 13:21:59 2021, MaxMem=  7864320000 cpu:           28066.5 elap:             888.1
 (Enter /apps/gaussian/g16-c01-avx/g16/l508.exe)
 QCSCF skips out because SCF is already converged.
 Leave Link  508 at Fri Feb 26 13:21:59 2021, MaxMem=  7864320000 cpu:               0.4 elap:               0.5
 (Enter /apps/gaussian/g16-c01-avx/g16/l601.exe)
 Copying SCF densities to generalized density rwf, IOpCl= 0 IROHF=0.
 Hyperfine terms turned off by default for NAtoms > 100.

 **********************************************************************

            Population analysis using the SCF Density.

 **********************************************************************

 Orbital symmetries:
       Occupied  (A) (A) (A) (A) (A) (A) (A) (A) (A) (A) (A) (A)
                 (A) (A) (A) (A) (A) (A) (A) (A) (A) (A) (A) (A)
                 (A) (A) (A) (A) (A) (A) (A) (A) (A) (A) (A) (A)
                 (A) (A) (A) (A) (A) (A) (A) (A) (A) (A) (A) (A)
                 (A) (A) (A) (A) (A) (A) (A) (A) (A) (A) (A) (A)
                 (A) (A) (A) (A) (A) (A) (A) (A) (A) (A) (A) (A)
                 (A) (A) (A) (A) (A) (A) (A) (A) (A) (A) (A) (A)
                 (A) (A) (A) (A) (A) (A) (A) (A) (A) (A) (A) (A)
                 (A) (A) (A) (A) (A) (A) (A) (A) (A) (A) (A) (A)
                 (A) (A) (A) (A) (A) (A) (A) (A) (A) (A) (A) (A)
                 (A) (A) (A) (A) (A) (A) (A) (A) (A) (A) (A) (A)
                 (A) (A) (A) (A) (A) (A) (A) (A) (A) (A) (A) (A)
                 (A) (A) (A) (A) (A) (A) (A) (A) (A) (A) (A) (A)
                 (A) (A) (A) (A) (A) (A) (A) (A) (A) (A) (A) (A)
                 (A) (A) (A) (A) (A) (A) (A) (A) (A) (A) (A) (A)
                 (A) (A) (A) (A) (A) (A) (A) (A) (A) (A) (A) (A)
                 (A) (A) (A) (A) (A) (A) (A) (A) (A) (A) (A) (A)
                 (A) (A) (A) (A) (A) (A) (A) (A) (A) (A) (A) (A)
[...]
 Alpha virt. eigenvalues --    1.81178   1.81430   1.81595   1.81888   1.81892
 Alpha virt. eigenvalues --    1.82394   1.82738   1.82765   1.83438   1.83569
 Alpha virt. eigenvalues --    1.84240   1.84535   1.84885   1.84979   1.85133
 Alpha virt. eigenvalues --    1.85563   1.85758   1.86183   1.86268   1.86389
 Alpha virt. eigenvalues --    1.86502   1.86923   1.87400   1.87507   1.87765
 Alpha virt. eigenvalues --    1.87920   1.88180   1.88273   1.88439   1.88769
 Alpha virt. eigenvalues --    1.88962   1.89376   1.89817   1.90035   1.90145
 Alpha virt. eigenvalues --    1.90351   1.90418   1.90452   1.90653   1.91633
 Alpha virt. eigenvalues --    1.91680   1.91860   1.92113   1.92527   1.92706
 Alpha virt. eigenvalues --    1.93146   1.93167   1.93341   1.93365   1.93388
 Alpha virt. eigenvalues --    1.93463   1.93840   1.94023   1.94205   1.94349
 Alpha virt. eigenvalues --    1.94721   1.94752   1.95099   1.95185   1.95397
 Alpha virt. eigenvalues --    1.95472   1.95780   1.95810   1.95921   1.96160
 Alpha virt. eigenvalues --    1.96213   1.96313   1.96548   1.96561   1.96698
 Alpha virt. eigenvalues --    1.96801   1.96876   1.96918   1.97424   1.97441
 Alpha virt. eigenvalues --    1.97584   1.98029   1.98167   1.98269   1.98958
 Alpha virt. eigenvalues --    1.98962   1.99125   1.99180   1.99473   2.00382
 Alpha virt. eigenvalues --    2.00555   2.00854   2.01229   2.01263   2.01429
 Alpha virt. eigenvalues --    2.01482   2.01777   2.02014   2.02051   2.02076
 Alpha virt. eigenvalues --    2.02977   2.03044   2.03390   2.03582   2.03846
 Alpha virt. eigenvalues --    2.03861   2.04040   2.04106   2.04663   2.04841
 Alpha virt. eigenvalues --    2.04966   2.05500   2.05523   2.05937   2.06622
 Alpha virt. eigenvalues --    2.06966   2.07818   2.07915   2.08717   2.09030
 Alpha virt. eigenvalues --    2.09253   2.09434   2.09548   2.09609   2.09690
 Alpha virt. eigenvalues --    2.09779   2.10204   2.10474   2.10659   2.10862
 Alpha virt. eigenvalues --    2.11174   2.11368   2.11444   2.11828   2.11884
 Alpha virt. eigenvalues --    2.11992   2.12067   2.12132   2.12229   2.12361
 Alpha virt. eigenvalues --    2.12497   2.12588   2.13154   2.13161   2.13505
 Alpha virt. eigenvalues --    2.13655   2.13775   2.13896   2.14621   2.15340
 Alpha virt. eigenvalues --    2.16230   2.16470   2.16921   2.17258   2.17504
 Alpha virt. eigenvalues --    2.17673   2.18444   2.19431   2.19660   2.20028
 Alpha virt. eigenvalues --    2.20203   2.20284   2.20490   2.21020   2.21189
 Alpha virt. eigenvalues --    2.21348   2.21922   2.21945   2.21955   2.21984
 Alpha virt. eigenvalues --    2.22066   2.22363   2.22793   2.22886   2.23014
 Alpha virt. eigenvalues --    2.23086   2.23637   2.23659   2.23669   2.23935
 Alpha virt. eigenvalues --    2.24388   2.24595   2.24930   2.24935   2.25001
 Alpha virt. eigenvalues --    2.25431   2.25736   2.25786   2.26721   2.27211
 Alpha virt. eigenvalues --    2.27255   2.27342   2.28163   2.28175   2.28554
 Alpha virt. eigenvalues --    2.28989   2.29083   2.29166   2.29307   2.29761
 Alpha virt. eigenvalues --    2.29837   2.29971   2.30049   2.30527   2.30704
 Alpha virt. eigenvalues --    2.30736   2.30751   2.30929   2.30948   2.31098
 Alpha virt. eigenvalues --    2.31172   2.31377   2.31488   2.31865   2.31990
 Alpha virt. eigenvalues --    2.32080   2.32765   2.32766   2.33008   2.33203
 Alpha virt. eigenvalues --    2.33417   2.33424   2.33689   2.33690   2.33710
 Alpha virt. eigenvalues --    2.34004   2.34533   2.35141   2.35482   2.35537
 Alpha virt. eigenvalues --    2.36111   2.36321   2.36469   2.36493   2.36565
 Alpha virt. eigenvalues --    2.36891   2.36904   2.37101   2.37440   2.37657
 Alpha virt. eigenvalues --    2.37711   2.38112   2.38117   2.38346   2.38357
 Alpha virt. eigenvalues --    2.38722   2.39093   2.39243   2.39331   2.39504
 Alpha virt. eigenvalues --    2.39514   2.39766   2.41012   2.41620   2.42065
 Alpha virt. eigenvalues --    2.42724   2.43407   2.43446   2.43684   2.44338
 Alpha virt. eigenvalues --    2.44665   2.44669   2.44776   2.44987   2.45493
 Alpha virt. eigenvalues --    2.46022   2.47399   2.47704   2.47906   2.47920
 Alpha virt. eigenvalues --    2.48966   2.49143   2.50007   2.50192   2.51290
 Alpha virt. eigenvalues --    2.51624   2.53141   2.53167   2.53185   2.53280
 Alpha virt. eigenvalues --    2.53295   2.53376   2.54423   2.55155   2.55236
 Alpha virt. eigenvalues --    2.56294   2.56529   2.57398   2.57601   2.57830
 Alpha virt. eigenvalues --    2.57853   2.58207   2.58543   2.58607   2.58615
 Alpha virt. eigenvalues --    2.59018   2.59032   2.59189   2.60663   2.61027
 Alpha virt. eigenvalues --    2.61251   2.61302   2.61443   2.61753   2.62561
 Alpha virt. eigenvalues --    2.62568   2.62696   2.63048   2.63165   2.63690
 Alpha virt. eigenvalues --    2.63762   2.64211   2.64773   2.64801   2.65629
 Alpha virt. eigenvalues --    2.65638   2.65710   2.65867   2.66034   2.66377
 Alpha virt. eigenvalues --    2.66515   2.66666   2.66883   2.67031   2.67624
 Alpha virt. eigenvalues --    2.67741   2.68097   2.68377   2.68919   2.69142
 Alpha virt. eigenvalues --    2.70813   2.71407   2.71476   2.71509   2.72032
 Alpha virt. eigenvalues --    2.72623   2.72911   2.73224   2.73448   2.73464
 Alpha virt. eigenvalues --    2.73483   2.74235   2.75049   2.75356   2.75526
 Alpha virt. eigenvalues --    2.75963   2.76038   2.76072   2.76087   2.76352
 Alpha virt. eigenvalues --    2.76476   2.76525   2.76635   2.76709   2.76722
 Alpha virt. eigenvalues --    2.76989   2.77101   2.77105   2.77193   2.77230
 Alpha virt. eigenvalues --    2.77401   2.78099   2.78388   2.78576   2.78856
 Alpha virt. eigenvalues --    2.79344   2.79678   2.80385   2.80517   2.81007
 Alpha virt. eigenvalues --    2.81035   2.82080   2.82438   2.82453   2.82747
 Alpha virt. eigenvalues --    2.83081   2.86161   2.86923   2.87855   2.88080
 Alpha virt. eigenvalues --    2.88347   2.88789   2.89499   2.89627   2.89739
 Alpha virt. eigenvalues --    2.89827   2.90616   2.90650   2.90752   2.91050
 Alpha virt. eigenvalues --    2.92486   2.92527   2.93345   2.94330   2.94787
 Alpha virt. eigenvalues --    2.94819   2.94821   2.94845   2.95925   2.96566
 Alpha virt. eigenvalues --    2.97299   2.97423   2.98424   2.98489   2.98898
 Alpha virt. eigenvalues --    2.98960   2.99635   2.99688   2.99962   3.00179
 Alpha virt. eigenvalues --    3.01507   3.02205   3.02674   3.02745   3.04627
 Alpha virt. eigenvalues --    3.04926   3.05039   3.05087   3.05580   3.06028
 Alpha virt. eigenvalues --    3.06182   3.06395   3.07627   3.08628   3.09723
 Alpha virt. eigenvalues --    3.10084   3.11126   3.11164   3.11281   3.11601
 Alpha virt. eigenvalues --    3.12182   3.13088   3.13354   3.13595   3.14161
 Alpha virt. eigenvalues --    3.14317   3.14395   3.14598   3.15538   3.15612
 Alpha virt. eigenvalues --    3.16289   3.17085   3.19678   3.20362   3.20432
 Alpha virt. eigenvalues --    3.22638   3.25358   3.26007   3.26320   3.29680
 Alpha virt. eigenvalues --    3.31938   3.32208   3.32378   3.34222   3.39730
 Alpha virt. eigenvalues --    3.39770   3.39805   3.40022   3.48529   3.48563
 Alpha virt. eigenvalues --    3.48650   3.48699   3.56481   3.56527   3.56734
 Alpha virt. eigenvalues --    3.56806   3.61723   3.61830   3.62155   3.62386
 Alpha virt. eigenvalues --    3.67486   3.67507   3.67734   3.67934   3.79726
 Alpha virt. eigenvalues --    3.79842   3.79844   3.79871  51.72718  51.72993
          Condensed to atoms (all electrons):
 Mulliken charges:
               1
     1  Pd   0.485735
     2  Pd   0.485592
     3  C    0.020581
     4  C   -0.072780
     5  C   -0.011017
     6  C    0.004158
     7  C    0.014571
     8  C    0.007500
     9  C    0.028980
    10  C   -0.015389
    11  C    0.145631
    12  N   -0.316359
    13  C    0.181622
    14  C   -0.012127
    15  H    0.042706
    16  H    0.056186
    17  H    0.041861
    18  H    0.053901
    19  H    0.094626
    20  H    0.078885
    21  C   -0.071952
    22  C    0.025623
    23  C   -0.010633
    24  C   -0.014257
    25  C    0.031296
    26  C   -0.011569
    27  H    0.039496
    28  H    0.047231
    29  H    0.041870
    30  H    0.033643
    31  C    0.069480
    32  C   -0.035573
    33  C    0.160435
    34  N   -0.325126
    35  C    0.156844
    36  C   -0.046395
    37  H    0.060562
    38  H    0.100556
    39  H    0.099168
    40  H    0.062722
    41  C    0.020034
    42  C   -0.072212
    43  C   -0.010851
    44  C    0.004149
    45  C    0.014590
    46  C    0.007544
    47  C    0.029232
    48  C   -0.015673
    49  C    0.145892
    50  N   -0.316245
    51  C    0.180604
    52  C   -0.011762
    53  H    0.042703
    54  H    0.056155
    55  H    0.041856
    56  H    0.053883
    57  H    0.094399
    58  H    0.079463
    59  C   -0.071727
    60  C    0.025535
    61  C   -0.010498
    62  C   -0.014600
    63  C    0.031709
    64  C   -0.011867
    65  H    0.039544
    66  H    0.047188
    67  H    0.041908
    68  H    0.033791
    69  C    0.070113
    70  C   -0.036237
    71  C    0.160509
    72  N   -0.325628
    73  C    0.157442
    74  C   -0.046411
    75  H    0.060548
    76  H    0.100453
    77  H    0.099698
    78  H    0.062222
    79  C    0.020602
    80  C   -0.072803
    81  C   -0.011096
    82  C    0.004184
    83  C    0.014637
    84  C    0.007510
    85  C    0.029031
    86  C   -0.015431
    87  C    0.145439
    88  N   -0.316309
    89  C    0.181447
    90  C   -0.012011
    91  H    0.042691
    92  H    0.056135
    93  H    0.041856
    94  H    0.053894
    95  H    0.094667
    96  H    0.079135
    97  C   -0.071843
    98  C    0.025593
    99  C   -0.010636
   100  C   -0.014345
   101  C    0.031436
   102  C   -0.011624
   103  H    0.039489
   104  H    0.047221
   105  H    0.041856
   106  H    0.033648
   107  C    0.069290
   108  C   -0.035544
   109  C    0.160475
   110  N   -0.325017
   111  C    0.156823
   112  C   -0.046177
   113  H    0.060573
   114  H    0.100556
   115  H    0.098831
   116  H    0.062734
   117  C    0.020112
   118  C   -0.072301
   119  C   -0.010854
   120  C    0.004084
   121  C    0.014580
   122  C    0.007563
   123  C    0.029265
   124  C   -0.015761
   125  C    0.146128
   126  N   -0.316290
   127  C    0.181061
   128  C   -0.012020
   129  H    0.042756
   130  H    0.056158
   131  H    0.041823
   132  H    0.053921
   133  H    0.094242
   134  H    0.079175
   135  C   -0.071820
   136  C    0.025527
   137  C   -0.010540
   138  C   -0.014436
   139  C    0.031579
   140  C   -0.011895
   141  H    0.039545
   142  H    0.047189
   143  H    0.041804
   144  H    0.033909
   145  C    0.070219
   146  C   -0.036292
   147  C    0.160429
   148  N   -0.325609
   149  C    0.157439
   150  C   -0.046468
   151  H    0.060593
   152  H    0.100456
   153  H    0.099945
   154  H    0.062127
 Sum of Mulliken charges =   4.00000
 Mulliken charges with hydrogens summed into heavy atoms:
               1
     1  Pd   0.485735
     2  Pd   0.485592
     3  C    0.020581
     4  C   -0.072780
     5  C   -0.011017
     6  C    0.046864
     7  C    0.070757
     8  C    0.049361
     9  C    0.028980
    10  C    0.038512
    11  C    0.240257
    12  N   -0.316359
    13  C    0.260507
    14  C   -0.012127
    21  C   -0.071952
    22  C    0.065119
    23  C    0.036598
    24  C    0.027613
    25  C    0.031296
    26  C    0.022074
    31  C    0.069480
    32  C    0.024988
    33  C    0.260991
    34  N   -0.325126
    35  C    0.256012
    36  C    0.016327
    41  C    0.020034
    42  C   -0.072212
    43  C   -0.010851
    44  C    0.046852
    45  C    0.070745
    46  C    0.049400
    47  C    0.029232
    48  C    0.038210
    49  C    0.240291
    50  N   -0.316245
    51  C    0.260068
    52  C   -0.011762
    59  C   -0.071727
    60  C    0.065079
    61  C    0.036690
    62  C    0.027308
    63  C    0.031709
    64  C    0.021924
    69  C    0.070113
    70  C    0.024311
    71  C    0.260961
    72  N   -0.325628
    73  C    0.257140
    74  C    0.015811
    79  C    0.020602
    80  C   -0.072803
    81  C   -0.011096
    82  C    0.046876
    83  C    0.070771
    84  C    0.049366
    85  C    0.029031
    86  C    0.038463
    87  C    0.240106
    88  N   -0.316309
    89  C    0.260583
    90  C   -0.012011
    97  C   -0.071843
    98  C    0.065083
    99  C    0.036585
   100  C    0.027511
   101  C    0.031436
   102  C    0.022024
   107  C    0.069290
   108  C    0.025029
   109  C    0.261031
   110  N   -0.325017
   111  C    0.255654
   112  C    0.016557
   117  C    0.020112
   118  C   -0.072301
   119  C   -0.010854
   120  C    0.046840
   121  C    0.070738
   122  C    0.049386
   123  C    0.029265
   124  C    0.038160
   125  C    0.240370
   126  N   -0.316290
   127  C    0.260236
   128  C   -0.012020
   135  C   -0.071820
   136  C    0.065072
   137  C    0.036650
   138  C    0.027369
   139  C    0.031579
   140  C    0.022014
   145  C    0.070219
   146  C    0.024301
   147  C    0.260885
   148  N   -0.325609
   149  C    0.257384
   150  C    0.015659
 Electronic spatial extent (au):  <R**2>=         104923.6081
 Charge=              4.0000 electrons
 Dipole moment (field-independent basis, Debye):
    X=             -0.0047    Y=             -0.0219    Z=              0.0008  Tot=              0.0224
 Quadrupole moment (field-independent basis, Debye-Ang):
   XX=              2.1674   YY=           -384.9469   ZZ=           -346.0396
   XY=              0.2015   XZ=            -97.2787   YZ=              0.1478
 Traceless Quadrupole moment (field-independent basis, Debye-Ang):
   XX=            245.1071   YY=           -142.0072   ZZ=           -103.0999
   XY=              0.2015   XZ=            -97.2787   YZ=              0.1478
 Octapole moment (field-independent basis, Debye-Ang**2):
  XXX=             -2.7538  YYY=              1.8037  ZZZ=              0.3712  XYY=              2.8326
  XXY=             -2.4417  XXZ=             -1.6518  XZZ=             -0.7267  YZZ=             -1.5410
  YYZ=              0.8166  XYZ=             -0.0595
 Hexadecapole moment (field-independent basis, Debye-Ang**3):
 XXXX=         -46877.9259 YYYY=         -32574.0300 ZZZZ=         -24026.4579 XXXY=             68.6341
 XXXZ=          -4353.0627 YYYX=            -75.1795 YYYZ=            -27.6639 ZZZX=          -2469.7432
 ZZZY=             -0.9394 XXYY=         -11130.6144 XXZZ=         -15231.7108 YYZZ=          -6969.0843
 XXYZ=             65.5619 YYXZ=           1232.9791 ZZXY=             24.9056
 N-N= 1.804602483805D+04 E-N=-4.527207350325D+04  KE= 3.876156451437D+03
 Leave Link  601 at Fri Feb 26 13:22:01 2021, MaxMem=  7864320000 cpu:              53.1 elap:               1.9
 (Enter /apps/gaussian/g16-c01-avx/g16/l9999.exe)
 Unable to Open any file for archive entry.
 1\1\GINC-CX3-2-16\SP\RPBE1PBE\def2SVP\C88H56N8Pd2(4+)\ATARZIA\26-Feb-2
 021\0\\#P PBE1PBE/Def2SVP SP SCF=(YQC,MaxCycle=900) int=(Grid=Superfin
 egrid) EmpiricalDispersion=GD3BJ SCRF=(PCM,Solvent=DiMethylSulfoxide)\
 \_s_4d2_c\\4,1\Pd,0,0.4669,3.6007,0.2441\Pd,0,1.3526,-5.6117,1.2515\C,
 0,6.8431,-2.9242,1.1298\C,0,6.7596,-4.1299,1.1851\C,0,6.763,-5.5369,1.
 1266\C,0,7.9701,-6.2116,1.0871\C,0,8.017,-7.5981,0.9079\C,0,6.8667,-8.
 3261,0.732\C,0,5.6157,-7.6842,0.7765\C,0,4.3964,-8.3694,0.5742\C,0,3.2
 149,-7.6929,0.66\N,0,3.1623,-6.3771,0.9826\C,0,4.2795,-5.6951,1.1434\C
 ,0,5.549,-6.2808,1.0174\H,0,8.8907,-5.6561,1.1803\H,0,8.977,-8.091,0.8
 852\H,0,6.9079,-9.3897,0.5569\H,0,4.4136,-9.4237,0.3489\H,0,2.2607,-8.
 1814,0.4736\H,0,4.1899,-4.6416,1.3971\C,0,6.936,-1.5252,0.9669\C,0,8.1
 907,-0.9105,0.9024\C,0,8.2751,0.4486,0.6621\C,0,7.1308,1.2065,0.4793\C
 ,0,5.8702,0.6078,0.5465\C,0,5.7835,-0.7597,0.8017\H,0,9.085,-1.5004,1.
 032\H,0,9.244,0.9212,0.6059\H,0,7.2251,2.2562,0.2502\H,0,4.8232,-1.240
 2,0.898\C,0,4.6479,1.3899,0.3387\C,0,4.5427,2.7276,0.7333\C,0,3.3484,3
 .3979,0.5646\N,0,2.2694,2.8046,0.0459\C,0,2.3575,1.537,-0.3761\C,0,3.5
 207,0.8103,-0.2595\H,0,5.3762,3.2328,1.1934\H,0,3.2334,4.4379,0.8558\H
 ,0,1.4529,1.1192,-0.8156\H,0,3.5698,-0.1969,-0.6405\C,0,1.9775,-2.8166
 ,6.6335\C,0,2.0023,-4.0249,6.5783\C,0,1.9203,-5.4299,6.6246\C,0,2.0239
 ,-6.0774,7.8427\C,0,1.8268,-7.4586,7.9454\C,0,1.4912,-8.2073,6.845\C,0
 ,1.386,-7.5937,5.5834\C,0,1.0159,-8.3001,4.4168\C,0,0.9608,-7.6506,3.2
 182\N,0,1.2978,-6.3435,3.0935\C,0,1.6144,-5.6419,4.1644\C,0,1.6423,-6.
 1976,5.453\H,0,2.2446,-5.5044,8.7302\H,0,1.9187,-7.9301,8.9119\H,0,1.3
 033,-9.2658,6.934\H,0,0.7756,-9.3488,4.4876\H,0,0.6437,-8.1548,2.3079\
 H,0,1.8749,-4.5961,4.018\C,0,1.8482,-1.4129,6.7077\C,0,1.9271,-0.7688,
 7.9467\C,0,1.7174,0.5958,8.0229\C,0,1.4244,1.3303,6.8863\C,0,1.3485,0.
 7022,5.6405\C,0,1.5732,-0.6711,5.5607\H,0,2.1423,-1.3404,8.8364\H,0,1.
 7718,1.0913,8.9803\H,0,1.2215,2.3855,6.979\H,0,1.5613,-1.1746,4.6074\C
 ,0,1.0209,1.4606,4.4295\C,0,1.4156,2.7909,4.2539\C,0,1.1228,3.4403,3.0
 721\N,0,0.4818,2.8331,2.0693\C,0,0.0616,1.5717,2.2279\C,0,0.299,0.866,
 3.3856\H,0,1.9696,3.3066,5.0211\H,0,1.4099,4.4743,2.9047\H,0,-0.4777,1
 .1416,1.3851\H,0,-0.0826,-0.1361,3.4953\C,0,-5.023,0.912,0.3609\C,0,-4
 .9391,2.1179,0.3122\C,0,-4.9427,3.5246,0.3785\C,0,-6.1501,4.1985,0.424
 8\C,0,-6.1973,5.584,0.612\C,0,-5.0469,6.3115,0.7889\C,0,-3.7957,5.6706
 ,0.7375\C,0,-2.5762,6.3553,0.9402\C,0,-1.3945,5.6799,0.8477\N,0,-1.342
 1,4.3658,0.5181\C,0,-2.4594,3.6841,0.3564\C,0,-3.7289,4.2685,0.4887\H,
 0,-7.0706,3.643,0.331\H,0,-7.1574,6.0762,0.64\H,0,-5.0881,7.3741,0.97\
 H,0,-2.5933,7.4084,1.171\H,0,-0.4402,6.168,1.0342\H,0,-2.3698,2.632,0.
 0967\C,0,-5.1161,-0.4878,0.5163\C,0,-6.3706,-1.1038,0.5696\C,0,-6.4555
 ,-2.4641,0.8028\C,0,-5.3117,-3.222,0.9895\C,0,-4.0513,-2.622,0.9336\C,
 0,-3.9641,-1.2532,0.6854\H,0,-7.2646,-0.5141,0.437\H,0,-7.4243,-2.9378
 ,0.8504\H,0,-5.4067,-4.2728,1.213\H,0,-3.0035,-0.7715,0.598\C,0,-2.829
 6,-3.4039,1.1453\C,0,-2.7207,-4.7395,0.7447\C,0,-1.5267,-5.4094,0.9172
 \N,0,-0.4512,-4.8176,1.445\C,0,-0.5434,-3.5523,1.873\C,0,-1.7066,-2.82
 62,1.7533\H,0,-3.5509,-5.2433,0.2772\H,0,-1.4089,-6.4479,0.6214\H,0,0.
 3581,-3.1358,2.32\H,0,-1.759,-1.8212,2.1394\C,0,-0.1327,0.807,-5.1439\
 C,0,-0.1618,2.0152,-5.0875\C,0,-0.0844,3.4205,-5.1323\C,0,-0.1846,4.06
 86,-6.3504\C,0,0.008,5.4505,-6.4512\C,0,0.3358,6.1995,-5.3487\C,0,0.43
 74,5.5853,-4.0871\C,0,0.8,6.292,-2.9184\C,0,0.8524,5.6418,-1.7201\N,0,
 0.5195,4.3334,-1.5977\C,0,0.2098,3.6315,-2.6705\C,0,0.1855,4.1882,-3.9
 588\H,0,-0.3992,3.4954,-7.2394\H,0,-0.0811,5.9224,-7.4178\H,0,0.5203,7
 .2587,-5.436\H,0,1.0369,7.3417,-2.9873\H,0,1.164,6.1465,-0.8082\H,0,-0
 .0475,2.5848,-2.5262\C,0,0.0016,-0.5962,-5.2184\C,0,-0.0644,-1.2392,-6
 .4587\C,0,0.1498,-2.6031,-6.5344\C,0,0.4347,-3.3381,-5.396\C,0,0.4978,
 -2.711,-4.149\C,0,0.2684,-1.3385,-4.0698\H,0,-0.2732,-0.6672,-7.3497\H
 ,0,0.1053,-3.0977,-7.4928\H,0,0.6414,-4.3925,-5.4879\H,0,0.2703,-0.835
 9,-3.1159\C,0,0.8175,-3.4696,-2.936\C,0,0.4254,-4.8012,-2.7646\C,0,0.7
 113,-5.4509,-1.5813\N,0,1.343,-4.8428,-0.5732\C,0,1.7603,-3.5799,-0.72
 72\C,0,1.5293,-2.8737,-1.8859\H,0,-0.1212,-5.3178,-3.5366\H,0,0.426,-6
 .4859,-1.4169\H,0,2.2916,-3.1487,0.1202\H,0,1.9081,-1.8702,-1.9917\\Ve
 rsion=ES64L-G16RevC.01\State=1-A\HF=-4073.3519228\RMSD=1.734e-09\Dipol
 e=-0.0052549,-0.0016181,0.0068754\Quadrupole=-87.403246,176.0683303,-8
 8.6650843,-58.7180227,17.5275949,-57.7987806\PG=C01 [X(C88H56N8Pd2)]\\
 @
 The archive entry for this job was punched.


 At the touch of love, everyone becomes a poet.
                                -- Plato
 Job cpu time:       2 days 13 hours 41 minutes  3.2 seconds.
 Elapsed time:       0 days  1 hours 57 minutes 27.6 seconds.
 File lengths (MBytes):  RWF=   3589 Int=      0 D2E=      0 Chk=    169 Scr=      2
 Normal termination of Gaussian 16 at Fri Feb 26 13:22:02 2021.
