106
	Energy:     266.8839200
C         -3.54325       -2.09482       -0.72743
C         -3.58275       -1.43483        0.59337
C         -3.07321       -3.40508       -0.89086
C         -2.97828       -3.96950       -2.17538
H         -2.75745       -3.97583       -0.02605
C         -3.36260       -3.21119       -3.29966
C         -3.83368       -1.89842       -3.14152
H         -3.26952       -3.63429       -4.29289
C         -3.92475       -1.35420       -1.85063
C         -4.17238       -1.06986       -4.32582
H         -4.26909       -0.33800       -1.71613
C         -2.41627       -5.36418       -2.34061
H         -4.10921       -1.49703       -5.32373
H         -3.93672       -0.40799        0.64188
C         -0.76699        1.87047       -0.01826
C         -0.68622        1.14795        1.27512
C         -1.96826        1.90191       -0.74480
C         -2.03255        2.51145       -2.00347
H         -2.85237        1.42337       -0.34697
C         -0.88350        3.11397       -2.53903
C          0.32585        3.09674       -1.82120
H         -0.92135        3.57204       -3.51991
C          0.37694        2.47188       -0.56045
C          1.57377        3.70335       -2.42542
H          1.31127        2.43370       -0.01476
C         -3.30127        2.43299       -2.75920
H         -4.14809        1.93719       -2.29195
C         -1.67329       -0.39499        2.85542
C         -2.97320       -1.24672        2.89324
N         -1.70021        0.47097        1.69327
N         -3.10418       -1.99422        1.65322
C         -2.57367       -6.81549       -4.13119
C         -1.15270       -6.62960       -3.72272
N         -3.34963       -6.30448       -3.00797
N         -1.16507       -5.31778       -3.11853
C         -4.64844        1.11202       -5.26066
C         -4.58522        2.57779       -4.77447
N         -4.42324        0.18533       -4.17059
N         -3.39243        2.83414       -3.98209
C          3.82517        3.35665       -2.38467
C          3.48151        4.24999       -1.24375
N          2.58749        2.65021       -2.62646
N          2.16623        4.77074       -1.58274
H          0.26130        1.09959        1.80635
H          2.55168        2.25092       -3.59356
H          1.33949        4.16280       -3.41322
H          1.62033        4.98336       -0.71484
H         -0.33213       -5.17148       -2.50137
H         -4.22124       -5.84690       -3.36473
H         -2.18573       -5.80151       -1.34099
C          4.58975        5.31450       -1.05301
C         -0.21831       -6.79317       -4.94607
C         -1.52619        0.40476        4.16355
C         -4.60692        3.52037       -6.01187
H         -0.81014       -1.09287        2.75000
C         -2.92221       -2.21072        4.08865
H         -3.86213       -0.58531        3.02636
C         -2.77182       -1.41841        5.39697
H         -2.06303       -2.90878        3.97555
H         -3.85639       -2.81200        4.12749
C         -1.50151       -0.55516        5.36350
H         -2.72281       -2.12145        6.25592
H         -3.65961       -0.76254        5.53600
H         -0.61086       -1.21729        5.28624
H         -1.41965        0.02663        6.30649
H         -2.38013        1.11018        4.26764
H         -0.58509        0.99498        4.15203
H         -0.91374       -7.39988       -2.94647
C         -0.74838       -7.89328       -5.92086
H          0.78554       -7.04818       -4.54295
H         -0.12447       -5.85602       -5.53676
C         -1.56730       -8.94946       -5.15819
H          0.10020       -8.32523       -6.49281
H         -1.44864       -7.43713       -6.65505
C         -2.82556       -8.30019       -4.49351
H         -0.89083       -9.34989       -4.37046
H         -1.87906       -9.80497       -5.79387
H         -3.06883       -8.91542       -3.60014
H         -3.70421       -8.31488       -5.17330
H         -2.74046       -6.16002       -5.02198
H          3.40160        3.60442       -0.33501
C          6.00339        4.73420       -1.38419
H          4.52152        5.65464        0.00262
H          4.44344        6.19815       -1.71128
C          6.05038        3.22216       -1.10567
H          6.78064        5.30490       -0.83329
H          6.21162        4.85045       -2.47107
C          5.03396        2.46153       -2.01603
H          5.76257        3.09896       -0.03802
H          7.06337        2.78400       -1.23039
H          4.72939        1.54651       -1.46267
H          5.49595        2.14513       -2.97599
H          4.06819        4.00457       -3.26368
H         -5.49507        2.76974       -4.15770
C         -6.01798        0.84961       -5.95259
H         -3.81466        1.01051       -5.99424
C         -6.59134        2.10453       -6.66781
H         -6.79438        0.52632       -5.22502
H         -5.85621        0.01559       -6.66929
C         -5.45103        2.96960       -7.19519
H         -7.15858        2.73393       -5.94613
H         -7.29888        1.78591       -7.46265
H         -5.80066        3.81538       -7.82491
H         -4.82641        2.30880       -7.83674
H         -3.58691        3.70115       -6.41672
H         -5.00331        4.49612       -5.65519
