138
	Energy:     232.0746236
C         -3.82788       -1.63775       -0.81813
C         -4.09247       -1.19281        0.56448
C         -3.04103       -2.76578       -1.09322
C         -2.74345       -3.11674       -2.41930
H         -2.65350       -3.36632       -0.27849
C         -3.21647       -2.31085       -3.47395
C         -4.00896       -1.18432       -3.20563
H         -2.96604       -2.55444       -4.49966
C         -4.32695       -0.86762       -1.87577
C         -4.43042       -0.29077       -4.31001
H         -4.91541        0.01470       -1.65595
C         -1.92320       -4.32035       -2.67819
H         -3.98151       -0.41942       -5.29211
H         -4.76189       -0.34788        0.71183
H         -1.60156       -4.92745       -1.83493
C         -1.19447        1.62595        0.08908
C         -1.12380        0.89088        1.37452
C         -2.43915        1.94988       -0.47264
C         -2.52142        2.51888       -1.74889
H         -3.35199        1.70754        0.05780
C         -1.34630        2.79816       -2.46046
C         -0.09219        2.52102       -1.89610
H         -1.40497        3.23378       -3.45114
C         -0.02015        1.92422       -0.62135
C          1.12646        2.84307       -2.66957
H          0.94266        1.67142       -0.19327
C         -3.85566        2.74834       -2.33502
H          1.01921        3.19803       -3.69223
H         -4.72835        2.55688       -1.71412
C         -2.25773       -0.27598        3.17103
C         -3.56838       -1.11522        2.90791
N         -2.19728        0.66398        2.05738
H         -1.37438       -0.95329        3.09730
C         -2.14293        0.46910        4.54171
N         -3.42559       -1.66853        1.56417
H         -4.42012       -0.39397        2.90385
C         -3.96802       -2.24409        3.91487
H         -3.13743        0.88461        4.80980
C         -1.17839        1.67168        4.47790
C         -1.58934       -0.46701        5.64414
H         -3.05303       -2.79507        4.21972
C         -4.90595       -3.28573        3.26545
C         -4.73651       -1.68296        5.13698
H         -2.15462       -1.39896        5.78791
H         -1.56301        0.06405        6.61967
H         -0.55302       -0.78129        5.39300
H         -1.53587        2.43114        3.75146
H         -0.15582        1.34690        4.18747
H         -1.12365        2.17515        5.46720
H         -4.20968       -0.90323        5.70351
H         -4.97338       -2.50358        5.84757
H         -5.69400       -1.22386        4.80803
H         -4.41011       -3.79640        2.41323
H         -5.83956       -2.80530        2.90005
H         -5.17415       -4.07631        3.99907
C         -0.82971       -5.85745       -4.18209
C          0.55612       -5.34475       -4.72500
N         -1.60243       -4.65913       -3.88099
H         -0.64134       -6.42164       -3.23821
C         -1.69926       -6.80647       -5.07678
N          1.15520       -4.58313       -3.61890
H          0.35997       -4.61605       -5.54473
C          1.57098       -6.40134       -5.29817
H         -1.69475       -6.42615       -6.11971
C         -3.18036       -6.81269       -4.63349
C         -1.23037       -8.28055       -4.99606
H          1.57405       -7.29155       -4.63500
C          3.02823       -5.88983       -5.31660
C          1.23994       -6.77301       -6.76494
H         -0.18653       -8.45867       -5.28510
H         -1.85827       -8.91564       -5.65724
H         -1.33237       -8.65817       -3.95563
H         -3.63532       -5.80432       -4.72807
H         -3.27756       -7.15138       -3.57921
H         -3.77641       -7.48986       -5.28278
H          0.22698       -7.16175       -6.93265
H          1.94761       -7.54717       -7.13175
H          1.33722       -5.87792       -7.41673
H          3.39690       -5.67934       -4.29148
H          3.11945       -4.96987       -5.93365
H          3.70478       -6.66652       -5.73439
C         -5.47977        1.76502       -5.04418
C         -5.32632        3.08903       -4.20189
N         -5.23322        0.69568       -4.08363
H         -4.67382        1.73029       -5.81476
C         -6.83267        1.54219       -5.79562
N         -4.00316        3.01636       -3.59034
H         -6.09272        3.04887       -3.39136
C         -5.52031        4.47227       -4.90598
H         -7.66555        1.89510       -5.15106
C         -7.10696        0.04988       -6.07574
C         -6.82977        2.24524       -7.17527
H         -5.04015        4.43734       -5.90696
C         -4.82521        5.61243       -4.12927
C         -7.01475        4.86854       -4.99749
H         -6.60740        3.32161       -7.14625
H         -7.81556        2.11831       -7.67163
H         -6.05181        1.79672       -7.83058
H         -7.18919       -0.52474       -5.12947
H         -6.29907       -0.39314       -6.69755
H         -8.07402       -0.07105       -6.60982
H         -7.66125        4.14084       -5.50652
H         -7.12018        5.83603       -5.53354
H         -7.44057        4.99057       -3.97789
H         -3.72850        5.44853       -4.07156
H         -5.22920        5.69251       -3.09661
H         -4.97627        6.58337       -4.64850
C          4.45990        1.82598       -2.69899
C          3.51742        3.08466       -2.86219
N          3.80382        0.69048       -3.36552
H          4.52000        1.57177       -1.61576
C          5.94868        1.91420       -3.18672
N          2.29670        2.76767       -2.13120
H          3.27571        3.20598       -3.94434
C          4.04244        4.48863       -2.40220
H          5.97408        2.38053       -4.19374
C          6.57702        0.51089       -3.34639
C          6.85855        2.66424       -2.18066
H          4.55332        4.38357       -1.42291
C          2.88918        5.49189       -2.17158
C          4.95274        5.14094       -3.47425
H          6.56617        3.69661       -1.95416
H          7.89776        2.71172       -2.57180
H          6.87913        2.12789       -1.20772
H          6.04005       -0.09150       -4.10817
H          6.56487       -0.04048       -2.38110
H          7.62926        0.59504       -3.69493
H          5.83066        4.54978       -3.76762
H          5.32815        6.12152       -3.11152
H          4.37755        5.31662       -4.40937
H          2.21211        5.14923       -1.36139
H          2.29449        5.63404       -3.10034
H          3.29048        6.47778       -1.85255
H         -0.17620        0.45302        1.67932
H          1.92345       -3.95637       -3.94964
H          1.49746       -5.22601       -2.86748
H          3.66237        0.89444       -4.38162
H          2.88488        0.46280       -2.92269
