 Entering Gaussian System
 *********************************************
 Gaussian 98:
 frequency output generated by the xtb code
 *********************************************
                         Standard orientation:
 --------------------------------------------------------------------
  Center     Atomic     Atomic              Coordinates (Angstroms)
  Number     Number      Type              X           Y           Z
 --------------------------------------------------------------------
    1         46             0       -0.918961    7.094906    0.569591
    2         46             0       -0.215223   -4.248899   -0.282192
    3          6             0        4.203995   -0.292724   -1.060114
    4          6             0        4.481988   -1.459326   -1.218913
    5          6             0        4.849380   -2.807028   -1.408212
    6          6             0        6.156678   -3.135635   -1.713316
    7          6             0        6.537870   -4.468538   -1.906415
    8          6             0        5.628065   -5.489733   -1.791610
    9          6             0        4.287268   -5.204425   -1.474006
   10          6             0        3.302063   -6.207620   -1.326301
   11          6             0        2.020766   -5.862712   -1.003697
   12          7             0        1.653273   -4.570310   -0.823398
   13          6             0        2.540378   -3.605315   -0.958303
   14          6             0        3.883675   -3.851023   -1.281807
   15          1             0        6.893081   -2.352339   -1.808220
   16          1             0        7.566568   -4.688043   -2.147918
   17          1             0        5.927959   -6.515334   -1.939309
   18          1             0        3.575657   -7.241321   -1.466300
   19          1             0        1.234762   -6.606508   -0.875293
   20          1             0        2.196984   -2.583713   -0.807803
   21          6             0        3.846503    1.057178   -0.854215
   22          6             0        4.636010    1.880076   -0.045619
   23          6             0        4.271817    3.193478    0.169680
   24          6             0        3.109918    3.712583   -0.405117
   25          6             0        2.330611    2.890386   -1.221313
   26          6             0        2.694303    1.579683   -1.448912
   27          1             0        5.529509    1.482272    0.410378
   28          1             0        4.879823    3.813076    0.810676
   29          1             0        1.458111    3.292489   -1.710111
   30          1             0        2.104598    0.958285   -2.103409
   31          6             0        2.719726    5.109385   -0.165718
   32          6             0        3.666332    6.139081   -0.155624
   33          6             0        3.256739    7.442983    0.062576
   34          6             0        1.911241    7.700690    0.266580
   35          7             0        1.007336    6.720295    0.262985
   36          6             0        1.387829    5.457393    0.055986
   37          1             0        4.706830    5.918475   -0.336627
   38          1             0        3.969243    8.251779    0.069272
   39          1             0        1.545147    8.708793    0.438479
   40          1             0        0.597325    4.706197    0.086790
   41          6             0       -0.215768    2.699710    5.019296
   42          6             0       -0.322161    3.876511    5.277194
   43          6             0       -0.377753    5.217412    5.706392
   44          6             0       -0.325647    5.489214    7.061792
   45          6             0       -0.312238    6.805115    7.535189
   46          6             0       -0.339136    7.865513    6.664487
   47          6             0       -0.406242    7.634811    5.278788
   48          6             0       -0.430339    8.685010    4.333686
   49          6             0       -0.523946    8.398408    3.004387
   50          7             0       -0.617354    7.123008    2.543390
   51          6             0       -0.569556    6.115609    3.391291
   52          6             0       -0.446450    6.300011    4.779891
   53          1             0       -0.281448    4.670515    7.763593
   54          1             0       -0.268333    6.979616    8.599289
   55          1             0       -0.310329    8.880514    7.028286
   56          1             0       -0.375033    9.706210    4.675384
   57          1             0       -0.528744    9.189207    2.252686
   58          1             0       -0.635063    5.115709    2.973893
   59          6             0       -0.075477    1.337909    4.678998
   60          6             0       -0.885180    0.370414    5.280002
   61          6             0       -0.752388   -0.957387    4.928004
   62          6             0        0.185807   -1.346094    3.969902
   63          6             0        1.015710   -0.379599    3.396597
   64          6             0        0.889418    0.948202    3.745395
   65          1             0       -1.621076    0.667319    6.010904
   66          1             0       -1.402090   -1.693583    5.375208
   67          1             0        1.783306   -0.674905    2.699095
   68          1             0        1.537220    1.690798    3.308292
   69          6             0        0.234098   -2.742395    3.513204
   70          6             0        0.095395   -3.836993    4.373606
   71          6             0        0.065087   -5.116894    3.846709
   72          6             0        0.125581   -5.288496    2.471409
   73          7             0        0.257684   -4.246998    1.651507
   74          6             0        0.341192   -3.011098    2.152104
   75          1             0        0.025400   -3.682291    5.439106
   76          1             0       -0.025616   -5.975392    4.492111
   77          1             0        0.069474   -6.267797    2.008911
   78          1             0        0.482393   -2.202100    1.430802
   79          6             0       -5.263479    2.972730    1.581613
   80          6             0       -5.531873    4.152032    1.597812
   81          6             0       -5.956766    5.494334    1.639011
   82          6             0       -7.284763    5.771141    1.908915
   83          6             0       -7.752656    7.088244    1.963715
   84          6             0       -6.905051    8.145339    1.747810
   85          6             0       -5.547153    7.910932    1.463606
   86          6             0       -4.628149    8.956726    1.226901
   87          6             0       -3.323551    8.665719    0.954096
   88          7             0       -2.865258    7.392017    0.895797
   89          6             0       -3.692863    6.385821    1.109802
   90          6             0       -5.053461    6.574629    1.404206
   91          1             0       -7.969567    4.955645    2.084819
   92          1             0       -8.794954    7.266150    2.179718
   93          1             0       -7.265646    9.161041    1.790809
   94          1             0       -4.967343    9.979528    1.264300
   95          1             0       -2.597248    9.451415    0.767493
   96          1             0       -3.276868    5.381619    1.046802
   97          6             0       -4.931486    1.604128    1.508214
   98          6             0       -3.706387    1.138823    1.994611
   99          6             0       -3.367195   -0.189679    1.852012
  100          6             0       -4.242501   -1.083876    1.230017
  101          6             0       -5.485901   -0.626070    0.791220
  102          6             0       -5.827793    0.703832    0.923819
  103          1             0       -3.030682    1.822520    2.482207
  104          1             0       -2.427795   -0.542883    2.249809
  105          1             0       -6.171706   -1.306467    0.310724
  106          1             0       -6.781292    1.057836    0.563822
  107          6             0       -3.834710   -2.474578    0.989918
  108          6             0       -4.695615   -3.565173    1.145023
  109          6             0       -4.233122   -4.841876    0.871323
  110          6             0       -2.926425   -5.014684    0.444419
  111          7             0       -2.106320   -3.972888    0.291414
  112          6             0       -2.540012   -2.740286    0.554514
  113          1             0       -5.706113   -3.412268    1.490726
  114          1             0       -4.878326   -5.697473    0.989227
  115          1             0       -2.513931   -5.993686    0.214919
  116          1             0       -1.830209   -1.931190    0.395710
  117          6             0       -2.062598    3.312803   -4.373299
  118          6             0       -2.042992    4.519603   -4.456301
  119          6             0       -1.993886    5.904402   -4.705303
  120          6             0       -2.203488    6.357901   -5.996303
  121          6             0       -2.119082    7.717600   -6.309306
  122          6             0       -1.804973    8.641700   -5.344309
  123          6             0       -1.582671    8.225501   -4.019609
  124          6             0       -1.234163    9.128401   -2.989912
  125          6             0       -1.036861    8.667402   -1.722612
  126          7             0       -1.186766    7.356104   -1.395709
  127          6             0       -1.498174    6.482104   -2.331406
  128          6             0       -1.694377    6.846502   -3.675606
  129          1             0       -2.433594    5.646001   -6.774201
  130          1             0       -2.293584    8.034599   -7.326006
  131          1             0       -1.722369    9.689099   -5.587911
  132          1             0       -1.123058   10.176000   -3.220014
  133          1             0       -0.744454    9.341202   -0.914714
  134          1             0       -1.606779    5.447205   -2.023904
  135          6             0       -2.020605    1.912403   -4.218596
  136          6             0       -2.309303    1.331607   -2.980194
  137          6             0       -2.188010   -0.030593   -2.814592
  138          6             0       -1.785418   -0.845197   -3.876492
  139          6             0       -1.548719   -0.269301   -5.124494
  140          6             0       -1.659913    1.096099   -5.295296
  141          1             0       -2.624897    1.956510   -2.160694
  142          1             0       -2.432809   -0.475091   -1.862291
  143          1             0       -1.242825   -0.887904   -5.953994
  144          1             0       -1.454414    1.540597   -6.256898
  145          6             0       -1.593825   -2.283898   -3.645390
  146          6             0       -2.046733   -3.274697   -4.522087
  147          6             0       -1.865739   -4.607198   -4.191385
  148          6             0       -1.257136   -4.935499   -2.988487
  149          7             0       -0.805828   -3.992300   -2.163690
  150          6             0       -0.948423   -2.703799   -2.485892
  151          1             0       -2.550735   -2.999796   -5.435686
  152          1             0       -2.209145   -5.388597   -4.849983
  153          1             0       -1.120541   -5.964699   -2.675186
  154          1             0       -0.509917   -1.976300   -1.798495
 --------------------------------------------------------------------
     1 basis functions        1 primitive gaussians
     1 alpha electrons        1 beta electrons
 
 Harmonic frequencies (cm**-1), IR intensities (KM/Mole),
 Raman scattering activities (A**4/amu), Raman depolarization ratios,
 reduced masses (AMU), force constants (mDyne/A) and normal coordinates:
                      1                      2                      3
                        a                      a                      a 
 Frequencies --     7.0811                 9.6342                13.4364
 Red. masses --    12.2024                13.5771                16.0496
 Frc consts  --     0.0000                 0.0000                 0.0000
 IR Inten    --     0.2019                 0.2743                 0.3930
 Raman Activ --     0.0000                 0.0000                 0.0000
 Depolar     --     0.0000                 0.0000                 0.0000
 Atom AN      X      Y      Z        X      Y      Z        X      Y      Z
   1  46    -0.03   0.02  -0.05    -0.06  -0.02   0.13    -0.20   0.00   0.01
   2  46    -0.02  -0.02  -0.08    -0.02   0.00   0.06    -0.10  -0.00   0.01
   3   6     0.01  -0.01   0.08    -0.01   0.01   0.00    -0.05   0.03  -0.02
   4   6     0.02  -0.01   0.11    -0.01   0.01   0.00    -0.05   0.03  -0.03
   5   6     0.03  -0.01   0.14    -0.01   0.01   0.01    -0.05   0.03  -0.03
   6   6     0.05  -0.01   0.20    -0.01   0.01   0.00    -0.05   0.04  -0.05
   7   6     0.06  -0.01   0.24    -0.01   0.01   0.00    -0.04   0.04  -0.05
   8   6     0.05  -0.01   0.21    -0.01   0.01   0.01    -0.03   0.03  -0.04
   9   6     0.04  -0.01   0.15    -0.01   0.01   0.01    -0.03   0.03  -0.02
  10   6     0.03  -0.01   0.12    -0.01   0.01   0.02    -0.02   0.02  -0.01
  11   6     0.02  -0.01   0.06    -0.00   0.01   0.02    -0.02   0.01   0.00
  12   7     0.01  -0.01   0.03    -0.01   0.01   0.02    -0.03   0.01   0.00
  13   6     0.01  -0.01   0.05    -0.01   0.01   0.02    -0.04   0.02  -0.01
  14   6     0.03  -0.01   0.11    -0.01   0.01   0.01    -0.04   0.03  -0.02
  15   1     0.01  -0.00   0.07    -0.00   0.00  -0.00    -0.02   0.01  -0.02
  16   1     0.02  -0.00   0.08    -0.00   0.00  -0.00    -0.01   0.01  -0.02
  17   1     0.02  -0.00   0.07    -0.00   0.00   0.00    -0.01   0.01  -0.01
  18   1     0.01  -0.00   0.04    -0.00   0.00   0.01    -0.01   0.01  -0.00
  19   1     0.00  -0.00   0.01    -0.00   0.00   0.01    -0.01   0.00   0.00
  20   1     0.00  -0.00   0.01    -0.00   0.00   0.00    -0.01   0.00  -0.00
  21   6     0.01  -0.00   0.05    -0.01   0.01   0.00    -0.05   0.03  -0.02
  22   6     0.01   0.03   0.02    -0.00   0.01  -0.01    -0.04   0.03  -0.03
  23   6     0.00   0.03  -0.01    -0.00   0.01  -0.00    -0.04   0.03  -0.02
  24   6    -0.01   0.00  -0.01    -0.01   0.01   0.01    -0.05   0.03  -0.01
  25   6    -0.02  -0.03   0.03    -0.02   0.01   0.02    -0.06   0.02   0.00
  26   6    -0.01  -0.03   0.06    -0.02   0.01   0.01    -0.06   0.02  -0.00
  27   1     0.01   0.01   0.00     0.00   0.00  -0.01    -0.01   0.01  -0.01
  28   1     0.00   0.02  -0.01     0.00   0.00  -0.00    -0.01   0.01  -0.01
  29   1    -0.01  -0.01   0.01    -0.01   0.00   0.01    -0.02   0.01   0.00
  30   1    -0.00  -0.01   0.02    -0.01   0.00   0.01    -0.02   0.01   0.00
  31   6    -0.01   0.01  -0.05    -0.02   0.01   0.02    -0.06   0.02   0.00
  32   6    -0.02   0.01  -0.09    -0.02   0.01   0.01    -0.06   0.03  -0.00
  33   6    -0.02   0.02  -0.13    -0.02   0.01   0.02    -0.07   0.02   0.00
  34   6    -0.02   0.02  -0.11    -0.02   0.00   0.03    -0.07   0.02   0.01
  35   7    -0.02   0.01  -0.07    -0.02  -0.00   0.04    -0.07   0.01   0.01
  36   6    -0.01   0.01  -0.03    -0.02  -0.00   0.03    -0.06   0.02   0.01
  37   1    -0.01   0.00  -0.03    -0.01   0.00   0.00    -0.02   0.01  -0.00
  38   1    -0.01   0.01  -0.05    -0.01   0.00   0.00    -0.02   0.01   0.00
  39   1    -0.01   0.01  -0.04    -0.01  -0.00   0.01    -0.02   0.00   0.00
  40   1    -0.00   0.00   0.00    -0.00  -0.00   0.01    -0.02   0.00   0.00
  41   6     0.01   0.00  -0.02     0.13  -0.00   0.04     0.06   0.02   0.00
  42   6     0.04   0.01  -0.02     0.15  -0.00   0.04     0.08   0.02   0.00
  43   6     0.08   0.01  -0.02     0.18   0.00   0.03     0.10   0.02  -0.00
  44   6     0.12   0.01  -0.03     0.26   0.01   0.03     0.17   0.02  -0.01
  45   6     0.16   0.01  -0.03     0.28   0.01   0.03     0.18   0.03  -0.01
  46   6     0.16   0.01  -0.03     0.22   0.00   0.02     0.13   0.02  -0.01
  47   6     0.12   0.01  -0.03     0.14   0.00   0.03     0.06   0.02  -0.01
  48   6     0.12   0.01  -0.03     0.09  -0.00   0.03    -0.00   0.01  -0.01
  49   6     0.08   0.00  -0.03     0.02  -0.01   0.03    -0.06   0.01  -0.00
  50   7     0.05   0.00  -0.03    -0.00  -0.01   0.04    -0.07   0.01   0.00
  51   6     0.04   0.01  -0.02     0.05  -0.01   0.04    -0.01   0.01   0.00
  52   6     0.08   0.01  -0.03     0.12  -0.00   0.03     0.05   0.02  -0.00
  53   1     0.03   0.00  -0.01     0.09   0.00   0.01     0.06   0.01  -0.00
  54   1     0.06   0.00  -0.01     0.10   0.00   0.01     0.07   0.01  -0.00
  55   1     0.06   0.00  -0.01     0.07   0.00   0.01     0.04   0.01  -0.00
  56   1     0.04   0.00  -0.01     0.03  -0.00   0.01    -0.00   0.00  -0.00
  57   1     0.02   0.00  -0.01    -0.01  -0.00   0.01    -0.03   0.00  -0.00
  58   1     0.00   0.00  -0.01     0.01  -0.00   0.01    -0.01   0.00   0.00
  59   6    -0.02  -0.00  -0.02     0.11  -0.01   0.04     0.05   0.01   0.00
  60   6    -0.06   0.02  -0.05     0.11   0.00   0.06     0.04   0.02   0.01
  61   6    -0.08   0.02  -0.04     0.08   0.00   0.05     0.03   0.02   0.01
  62   6    -0.06  -0.01  -0.02     0.06  -0.01   0.03     0.01   0.01   0.00
  63   6    -0.03  -0.03   0.00     0.06  -0.02   0.02     0.01   0.00  -0.01
  64   6    -0.00  -0.02   0.00     0.08  -0.02   0.02     0.03   0.00  -0.01
  65   1    -0.02   0.01  -0.02     0.04   0.00   0.02     0.02   0.01   0.01
  66   1    -0.03   0.01  -0.02     0.02   0.00   0.02     0.01   0.01   0.01
  67   1    -0.00  -0.01   0.01     0.01  -0.01  -0.00    -0.00  -0.00  -0.01
  68   1     0.01  -0.01   0.01     0.02  -0.01   0.00     0.01  -0.00  -0.00
  69   6    -0.08  -0.01  -0.02     0.03  -0.01   0.02    -0.01   0.01   0.00
  70   6    -0.13  -0.00  -0.02     0.04  -0.01   0.02    -0.00   0.01   0.00
  71   6    -0.14  -0.00  -0.02     0.02  -0.01   0.02    -0.01   0.01   0.01
  72   6    -0.10  -0.01  -0.02    -0.00  -0.00   0.02    -0.03   0.01   0.01
  73   7    -0.06  -0.01  -0.01    -0.01  -0.00   0.02    -0.04   0.01   0.00
  74   6    -0.05  -0.01  -0.01     0.00  -0.00   0.02    -0.03   0.01  -0.00
  75   1    -0.04  -0.00  -0.01     0.02  -0.00   0.01     0.00   0.00   0.00
  76   1    -0.05  -0.00  -0.01     0.01  -0.00   0.01    -0.00   0.00   0.00
  77   1    -0.03  -0.00  -0.00    -0.00  -0.00   0.00    -0.01   0.00   0.00
  78   1    -0.00  -0.00  -0.00    -0.00   0.00   0.01    -0.01   0.00  -0.00
  79   6     0.00  -0.00   0.02    -0.08  -0.01  -0.15    -0.03  -0.03   0.07
  80   6     0.01  -0.00   0.05    -0.07  -0.01  -0.16    -0.04  -0.03   0.07
  81   6     0.01  -0.00   0.09    -0.07  -0.01  -0.18    -0.04  -0.03   0.08
  82   6     0.02  -0.00   0.13    -0.09  -0.01  -0.27    -0.04  -0.04   0.11
  83   6     0.03  -0.00   0.17    -0.09  -0.01  -0.28    -0.05  -0.04   0.12
  84   6     0.03  -0.00   0.17    -0.07  -0.01  -0.21    -0.06  -0.04   0.09
  85   6     0.02   0.00   0.13    -0.06  -0.01  -0.13    -0.06  -0.03   0.05
  86   6     0.01   0.00   0.13    -0.04  -0.01  -0.05    -0.08  -0.02   0.02
  87   6     0.01   0.00   0.08    -0.02  -0.01   0.02    -0.08  -0.02  -0.00
  88   7    -0.00   0.00   0.04    -0.02  -0.01   0.03    -0.08  -0.02   0.00
  89   6     0.00   0.00   0.04    -0.04  -0.01  -0.03    -0.06  -0.02   0.03
  90   6     0.01   0.00   0.09    -0.06  -0.01  -0.11    -0.06  -0.03   0.05
  91   1     0.01  -0.00   0.04    -0.03  -0.00  -0.09    -0.01  -0.01   0.04
  92   1     0.01  -0.00   0.06    -0.03  -0.00  -0.10    -0.01  -0.01   0.04
  93   1     0.01  -0.00   0.06    -0.02  -0.00  -0.06    -0.02  -0.01   0.03
  94   1     0.01   0.00   0.05    -0.01  -0.00  -0.02    -0.02  -0.01   0.01
  95   1     0.00   0.00   0.02    -0.00  -0.00   0.02    -0.03  -0.00  -0.01
  96   1    -0.00   0.00   0.00    -0.01  -0.00  -0.01    -0.02  -0.00   0.01
  97   6    -0.00  -0.00  -0.01    -0.07  -0.01  -0.12    -0.03  -0.03   0.06
  98   6    -0.01  -0.02  -0.01    -0.08   0.00  -0.09    -0.01  -0.02   0.03
  99   6    -0.01  -0.02  -0.03    -0.07   0.00  -0.06    -0.01  -0.02   0.02
 100   6    -0.01  -0.00  -0.06    -0.05  -0.01  -0.08    -0.03  -0.02   0.05
 101   6    -0.01   0.01  -0.06    -0.04  -0.02  -0.12    -0.04  -0.03   0.09
 102   6    -0.00   0.01  -0.04    -0.05  -0.02  -0.14    -0.04  -0.03   0.10
 103   1    -0.00  -0.01   0.00    -0.03   0.00  -0.02    -0.00  -0.00   0.00
 104   1    -0.01  -0.01  -0.01    -0.02   0.00  -0.01     0.00  -0.00  -0.00
 105   1    -0.00   0.01  -0.02    -0.01  -0.01  -0.04    -0.02  -0.01   0.03
 106   1     0.00   0.01  -0.01    -0.01  -0.01  -0.05    -0.02  -0.01   0.04
 107   6    -0.02   0.00  -0.08    -0.04  -0.01  -0.05    -0.03  -0.02   0.04
 108   6    -0.03   0.00  -0.11    -0.04  -0.01  -0.08    -0.01  -0.03   0.07
 109   6    -0.03   0.00  -0.12    -0.03  -0.01  -0.06    -0.01  -0.03   0.06
 110   6    -0.03   0.00  -0.10    -0.01  -0.01  -0.02    -0.02  -0.02   0.03
 111   7    -0.02  -0.00  -0.08    -0.01  -0.01   0.01    -0.04  -0.01   0.00
 112   6    -0.02  -0.00  -0.06    -0.02  -0.01  -0.01    -0.04  -0.02   0.01
 113   1    -0.01   0.00  -0.03    -0.01  -0.00  -0.03    -0.00  -0.01   0.03
 114   1    -0.01   0.00  -0.04    -0.01  -0.00  -0.02    -0.00  -0.01   0.02
 115   1    -0.01   0.00  -0.03    -0.00  -0.00  -0.00    -0.01  -0.00   0.01
 116   1    -0.00  -0.00  -0.01    -0.01  -0.00   0.00    -0.01  -0.00  -0.00
 117   6    -0.01  -0.00  -0.02    -0.02   0.00   0.03     0.12  -0.01  -0.05
 118   6    -0.03  -0.00  -0.01    -0.02   0.01   0.03     0.15  -0.01  -0.05
 119   6    -0.07  -0.00  -0.00    -0.03   0.01   0.04     0.18  -0.01  -0.05
 120   6    -0.09  -0.00   0.00    -0.04   0.01   0.04     0.29  -0.02  -0.07
 121   6    -0.13   0.00   0.00    -0.04   0.01   0.05     0.32  -0.02  -0.07
 122   6    -0.14   0.01   0.00    -0.04   0.01   0.05     0.25  -0.02  -0.06
 123   6    -0.11   0.01  -0.00    -0.04   0.01   0.05     0.15  -0.01  -0.04
 124   6    -0.12   0.01  -0.00    -0.04   0.00   0.05     0.07  -0.01  -0.01
 125   6    -0.10   0.01  -0.01    -0.03  -0.00   0.05    -0.02  -0.00   0.00
 126   7    -0.07   0.01  -0.01    -0.03  -0.00   0.05    -0.04  -0.00  -0.00
 127   6    -0.05   0.00  -0.01    -0.02  -0.00   0.04     0.02  -0.01  -0.02
 128   6    -0.08   0.00  -0.00    -0.03   0.00   0.04     0.12  -0.01  -0.04
 129   1    -0.02  -0.00   0.00    -0.01   0.00   0.01     0.10  -0.01  -0.02
 130   1    -0.04   0.00   0.00    -0.01   0.00   0.01     0.12  -0.01  -0.03
 131   1    -0.05   0.00   0.00    -0.01   0.00   0.02     0.08  -0.01  -0.02
 132   1    -0.04   0.00  -0.00    -0.01   0.00   0.02     0.03  -0.00  -0.00
 133   1    -0.03   0.01  -0.00    -0.01  -0.00   0.01    -0.02   0.00   0.01
 134   1    -0.01   0.00  -0.00    -0.01  -0.00   0.01     0.00  -0.00  -0.01
 135   6     0.02  -0.00  -0.03    -0.01   0.00   0.02     0.09  -0.01  -0.06
 136   6    -0.01  -0.02  -0.04    -0.01   0.00   0.02    -0.01  -0.02  -0.08
 137   6     0.01  -0.02  -0.05    -0.01   0.00   0.02    -0.02  -0.02  -0.08
 138   6     0.05  -0.00  -0.04    -0.01   0.00   0.02     0.05  -0.02  -0.05
 139   6     0.07   0.01  -0.03    -0.01   0.01   0.02     0.14  -0.01  -0.04
 140   6     0.06   0.01  -0.02    -0.01   0.01   0.02     0.16  -0.01  -0.04
 141   1    -0.01  -0.01  -0.01    -0.00   0.00   0.01    -0.02  -0.01  -0.03
 142   1    -0.00  -0.01  -0.02    -0.00   0.00   0.01    -0.03  -0.01  -0.03
 143   1     0.03   0.01  -0.01    -0.00   0.00   0.01     0.06  -0.00  -0.00
 144   1     0.02   0.01  -0.00    -0.00   0.00   0.01     0.07  -0.00  -0.01
 145   6     0.06  -0.00  -0.05    -0.01   0.00   0.02     0.04  -0.02  -0.04
 146   6     0.10  -0.00  -0.07    -0.00   0.00   0.02     0.09  -0.02  -0.07
 147   6     0.11  -0.00  -0.08    -0.00   0.00   0.02     0.08  -0.02  -0.05
 148   6     0.08  -0.00  -0.06    -0.00   0.00   0.02     0.03  -0.01  -0.02
 149   7     0.05  -0.00  -0.05    -0.00   0.00   0.02    -0.02  -0.01  -0.00
 150   6     0.04  -0.00  -0.04    -0.00   0.00   0.02    -0.01  -0.01  -0.01
 151   1     0.04  -0.00  -0.02    -0.00   0.00   0.01     0.04  -0.01  -0.03
 152   1     0.04  -0.00  -0.03    -0.00   0.00   0.00     0.04  -0.01  -0.02
 153   1     0.02  -0.00  -0.02     0.00   0.00   0.00     0.01  -0.00  -0.00
 154   1     0.00  -0.00  -0.01    -0.00   0.00   0.01    -0.02  -0.00   0.00
                      4                      5                      6
                        a                      a                      a 
 Frequencies --    16.9953                18.7705                19.3841
 Red. masses --    15.3219                12.9591                12.9515
 Frc consts  --     0.0000                 0.0000                 0.0000
 IR Inten    --     0.2687                 0.0543                 0.1378
 Raman Activ --     0.0000                 0.0000                 0.0000
 Depolar     --     0.0000                 0.0000                 0.0000
 Atom AN      X      Y      Z        X      Y      Z        X      Y      Z
   1  46     0.03  -0.01   0.02    -0.07  -0.00  -0.03    -0.02   0.06  -0.04
   2  46     0.05  -0.02   0.20     0.11  -0.01   0.06     0.11  -0.05  -0.03
   3   6    -0.02  -0.02  -0.07     0.01   0.02   0.00     0.00   0.02   0.05
   4   6    -0.02  -0.01  -0.11     0.02   0.02  -0.00     0.01   0.02   0.01
   5   6    -0.03  -0.01  -0.16     0.02   0.02  -0.01     0.01   0.03  -0.03
   6   6    -0.06  -0.00  -0.27     0.02   0.03  -0.03     0.01   0.05  -0.07
   7   6    -0.07  -0.00  -0.32     0.02   0.03  -0.04     0.01   0.06  -0.12
   8   6    -0.06  -0.01  -0.25     0.03   0.03  -0.03     0.02   0.05  -0.12
   9   6    -0.03  -0.01  -0.13     0.03   0.02  -0.01     0.03   0.03  -0.08
  10   6    -0.02  -0.01  -0.05     0.04   0.01  -0.01     0.04   0.02  -0.09
  11   6     0.01  -0.02   0.05     0.04   0.00   0.01     0.04   0.00  -0.05
  12   7     0.02  -0.02   0.09     0.04   0.00   0.02     0.04  -0.01  -0.01
  13   6     0.01  -0.02   0.02     0.03   0.01   0.02     0.03   0.00  -0.01
  14   6    -0.02  -0.01  -0.08     0.03   0.02  -0.00     0.02   0.02  -0.04
  15   1    -0.02  -0.00  -0.10     0.00   0.01  -0.01     0.00   0.02  -0.02
  16   1    -0.03   0.00  -0.12     0.01   0.01  -0.02     0.00   0.02  -0.04
  17   1    -0.02  -0.00  -0.08     0.01   0.01  -0.01     0.01   0.02  -0.05
  18   1    -0.01  -0.00  -0.02     0.01   0.00  -0.00     0.01   0.01  -0.03
  19   1     0.01  -0.01   0.03     0.01  -0.00   0.00     0.01  -0.00  -0.01
  20   1     0.00  -0.01   0.02     0.01   0.00   0.01     0.01  -0.00   0.01
  21   6    -0.02  -0.02  -0.04     0.01   0.02   0.01    -0.00   0.01   0.07
  22   6    -0.03  -0.04  -0.01    -0.01   0.01   0.03    -0.03  -0.01   0.13
  23   6    -0.02  -0.04   0.00    -0.02   0.01   0.03    -0.03  -0.01   0.14
  24   6    -0.01  -0.03  -0.00    -0.00   0.01   0.01     0.00   0.01   0.09
  25   6    -0.01  -0.01  -0.03     0.01   0.02  -0.02     0.03   0.03   0.04
  26   6    -0.01  -0.01  -0.05     0.02   0.02  -0.02     0.03   0.03   0.03
  27   1    -0.01  -0.02  -0.00    -0.01   0.00   0.01    -0.02  -0.01   0.05
  28   1    -0.01  -0.02   0.01    -0.01   0.00   0.01    -0.02  -0.01   0.05
  29   1     0.00   0.00  -0.01     0.01   0.01  -0.01     0.02   0.01   0.00
  30   1    -0.00   0.00  -0.02     0.01   0.01  -0.01     0.02   0.02  -0.00
  31   6    -0.00  -0.03   0.01    -0.01   0.01   0.01     0.00   0.01   0.09
  32   6     0.00  -0.03   0.01    -0.02   0.01   0.03     0.01   0.00   0.15
  33   6     0.01  -0.03   0.01    -0.02   0.01   0.02     0.02   0.00   0.13
  34   6     0.01  -0.02  -0.00    -0.03   0.00   0.01     0.01   0.02   0.07
  35   7     0.01  -0.02  -0.00    -0.02   0.00  -0.01    -0.00   0.02   0.03
  36   6    -0.00  -0.02  -0.00    -0.02   0.00  -0.01    -0.00   0.02   0.03
  37   1     0.00  -0.01   0.01    -0.00   0.00   0.01     0.01  -0.00   0.06
  38   1     0.00  -0.01   0.00    -0.01   0.00   0.01     0.01  -0.00   0.05
  39   1     0.00  -0.01  -0.00    -0.01   0.00   0.00     0.00   0.01   0.02
  40   1    -0.00  -0.00  -0.00    -0.00   0.00  -0.01    -0.00   0.01  -0.00
  41   6    -0.05   0.03   0.04     0.01   0.01   0.01    -0.06   0.01  -0.05
  42   6    -0.04   0.03   0.03     0.00   0.01   0.00     0.00   0.01  -0.04
  43   6    -0.03   0.04   0.02     0.00   0.01  -0.00     0.07   0.02  -0.03
  44   6    -0.04   0.05   0.02     0.01   0.02  -0.01     0.14   0.01  -0.03
  45   6    -0.03   0.05   0.01     0.01   0.02  -0.01     0.19   0.01  -0.03
  46   6    -0.00   0.04   0.00     0.01   0.01  -0.01     0.17   0.01  -0.02
  47   6     0.01   0.03   0.00     0.00   0.01  -0.01     0.09   0.02  -0.02
  48   6     0.03   0.02  -0.01    -0.00   0.01  -0.01     0.06   0.02  -0.02
  49   6     0.04   0.01  -0.01    -0.01   0.00  -0.01    -0.01   0.03  -0.01
  50   7     0.02   0.01   0.01    -0.02   0.00  -0.01    -0.02   0.03  -0.02
  51   6    -0.00   0.02   0.01    -0.02   0.00  -0.01    -0.00   0.02  -0.02
  52   6    -0.01   0.03   0.01    -0.00   0.01  -0.01     0.05   0.02  -0.02
  53   1    -0.02   0.01   0.01     0.00   0.01  -0.00     0.05   0.00  -0.01
  54   1    -0.01   0.02   0.00     0.01   0.01  -0.00     0.07   0.00  -0.01
  55   1     0.00   0.01  -0.00     0.00   0.00  -0.00     0.06   0.00  -0.01
  56   1     0.01   0.01  -0.00     0.00   0.00  -0.01     0.02   0.01  -0.00
  57   1     0.02   0.00  -0.00    -0.00   0.00  -0.00    -0.01   0.01  -0.00
  58   1    -0.00   0.00   0.01    -0.01   0.00  -0.00    -0.01   0.01  -0.01
  59   6    -0.05   0.03   0.04     0.01   0.01   0.01    -0.10   0.01  -0.05
  60   6    -0.06   0.04   0.03     0.01   0.01   0.01    -0.23   0.04  -0.15
  61   6    -0.07   0.03   0.04     0.01   0.01   0.01    -0.25   0.04  -0.14
  62   6    -0.06   0.02   0.05     0.02   0.01   0.02    -0.15  -0.00  -0.03
  63   6    -0.05   0.02   0.06     0.02   0.01   0.02    -0.04  -0.04   0.06
  64   6    -0.05   0.02   0.05     0.02   0.01   0.02    -0.02  -0.03   0.06
  65   1    -0.02   0.01   0.01     0.00   0.00   0.00    -0.09   0.02  -0.07
  66   1    -0.02   0.01   0.01     0.00   0.00   0.00    -0.10   0.02  -0.06
  67   1    -0.01   0.00   0.02     0.01   0.00   0.01     0.01  -0.02   0.04
  68   1    -0.01   0.00   0.02     0.01   0.00   0.01     0.02  -0.02   0.04
  69   6    -0.06   0.02   0.06     0.02   0.01   0.02    -0.15  -0.01  -0.02
  70   6    -0.08   0.03   0.07     0.02   0.01   0.02    -0.27   0.01  -0.02
  71   6    -0.08   0.03   0.08     0.02   0.01   0.02    -0.25   0.00  -0.01
  72   6    -0.05   0.01   0.08     0.03   0.01   0.02    -0.11  -0.01  -0.00
  73   7    -0.03   0.01   0.08     0.03   0.01   0.02     0.00  -0.03   0.00
  74   6    -0.03   0.01   0.07     0.03   0.01   0.02    -0.01  -0.02  -0.00
  75   1    -0.03   0.01   0.02     0.00   0.00   0.01    -0.11   0.01  -0.01
  76   1    -0.03   0.01   0.02     0.00   0.00   0.01    -0.10   0.00  -0.00
  77   1    -0.01   0.00   0.03     0.01   0.00   0.01    -0.02  -0.00   0.00
  78   1    -0.00   0.00   0.02     0.01   0.00   0.01     0.03  -0.01   0.00
  79   6    -0.02   0.02  -0.04    -0.03   0.01  -0.07     0.06  -0.02   0.05
  80   6    -0.01   0.02  -0.02    -0.03   0.01  -0.01     0.04  -0.03   0.03
  81   6     0.00   0.02   0.01    -0.01   0.01   0.06     0.02  -0.03  -0.00
  82   6     0.01   0.03   0.02     0.00   0.02   0.13     0.01  -0.05  -0.01
  83   6     0.02   0.03   0.05     0.02   0.02   0.19    -0.01  -0.06  -0.05
  84   6     0.03   0.03   0.07     0.02   0.02   0.19    -0.03  -0.05  -0.07
  85   6     0.02   0.02   0.05     0.01   0.01   0.12    -0.02  -0.03  -0.06
  86   6     0.03   0.02   0.07     0.00   0.01   0.10    -0.04  -0.02  -0.08
  87   6     0.03   0.01   0.05    -0.01   0.00   0.04    -0.03  -0.00  -0.07
  88   7     0.02   0.01   0.03    -0.02   0.00   0.00    -0.01   0.00  -0.04
  89   6     0.01   0.01   0.01    -0.02   0.00   0.01     0.01  -0.01  -0.02
  90   6     0.01   0.02   0.02    -0.01   0.01   0.06     0.00  -0.02  -0.03
  91   1    -0.00   0.01   0.00     0.00   0.00   0.04     0.01  -0.02   0.00
  92   1     0.01   0.01   0.02     0.01   0.01   0.07    -0.00  -0.02  -0.02
  93   1     0.01   0.01   0.03     0.01   0.01   0.07    -0.01  -0.02  -0.03
  94   1     0.01   0.01   0.03     0.00   0.00   0.04    -0.02  -0.01  -0.03
  95   1     0.01   0.00   0.02    -0.00   0.00   0.01    -0.01   0.00  -0.02
  96   1    -0.00   0.00  -0.00    -0.01   0.00  -0.01     0.01  -0.00   0.00
  97   6    -0.02   0.02  -0.06    -0.03   0.01  -0.12     0.06  -0.02   0.06
  98   6    -0.04   0.01  -0.02    -0.07  -0.01  -0.03     0.07  -0.02   0.04
  99   6    -0.04   0.01  -0.02    -0.07  -0.01  -0.06     0.07  -0.02   0.04
 100   6    -0.02   0.02  -0.07    -0.02   0.02  -0.16     0.06  -0.02   0.05
 101   6     0.00   0.03  -0.11     0.02   0.04  -0.26     0.05  -0.03   0.07
 102   6     0.00   0.03  -0.11     0.02   0.04  -0.24     0.05  -0.03   0.07
 103   1    -0.02  -0.00   0.01    -0.03  -0.01   0.02     0.02  -0.01   0.01
 104   1    -0.02   0.00   0.00    -0.03  -0.01   0.00     0.02  -0.01   0.01
 105   1     0.00   0.01  -0.04     0.02   0.02  -0.10     0.01  -0.01   0.02
 106   1     0.00   0.01  -0.04     0.02   0.02  -0.09     0.01  -0.01   0.03
 107   6    -0.02   0.02  -0.06    -0.02   0.02  -0.15     0.06  -0.02   0.04
 108   6    -0.04   0.03  -0.11    -0.05   0.03  -0.25     0.06  -0.02   0.06
 109   6    -0.03   0.02  -0.09    -0.04   0.02  -0.22     0.05  -0.02   0.04
 110   6    -0.01   0.02  -0.03     0.00   0.01  -0.10     0.04  -0.02   0.01
 111   7     0.00   0.01   0.02     0.03   0.00  -0.01     0.04  -0.02  -0.01
 112   6    -0.00   0.01   0.00     0.02   0.00  -0.03     0.05  -0.02   0.01
 113   1    -0.01   0.01  -0.04    -0.02   0.01  -0.10     0.02  -0.01   0.02
 114   1    -0.01   0.01  -0.04    -0.02   0.01  -0.08     0.02  -0.01   0.01
 115   1    -0.00   0.00  -0.00     0.00   0.00  -0.02     0.01  -0.00  -0.00
 116   1     0.00   0.00   0.01     0.01  -0.00   0.01     0.01  -0.01  -0.00
 117   6     0.05  -0.03   0.00    -0.03  -0.03   0.02    -0.03  -0.00   0.03
 118   6     0.01  -0.03   0.01     0.01  -0.03   0.00    -0.03  -0.00   0.01
 119   6    -0.03  -0.03   0.02     0.06  -0.04  -0.02    -0.02  -0.01  -0.00
 120   6    -0.06  -0.03   0.02     0.12  -0.05  -0.03    -0.03  -0.01  -0.00
 121   6    -0.11  -0.03   0.03     0.17  -0.06  -0.05    -0.02  -0.02  -0.01
 122   6    -0.11  -0.02   0.02     0.15  -0.05  -0.05     0.00  -0.01  -0.02
 123   6    -0.07  -0.02   0.02     0.09  -0.04  -0.03     0.01  -0.00  -0.02
 124   6    -0.07  -0.01   0.01     0.06  -0.03  -0.03     0.02  -0.00  -0.03
 125   6    -0.04  -0.01   0.01     0.00  -0.01  -0.02     0.03   0.01  -0.03
 126   7    -0.01  -0.02   0.01    -0.02  -0.01  -0.01     0.02   0.01  -0.02
 127   6    -0.01  -0.02   0.01    -0.00  -0.02  -0.01    -0.00   0.01  -0.01
 128   6    -0.04  -0.02   0.02     0.05  -0.03  -0.02    -0.00  -0.00  -0.01
 129   1    -0.02  -0.01   0.01     0.04  -0.02  -0.01    -0.01  -0.00   0.00
 130   1    -0.04  -0.01   0.01     0.06  -0.02  -0.02    -0.01  -0.01  -0.00
 131   1    -0.04  -0.01   0.01     0.05  -0.02  -0.02     0.00  -0.00  -0.01
 132   1    -0.03  -0.00   0.00     0.02  -0.01  -0.01     0.01  -0.00  -0.01
 133   1    -0.01  -0.00   0.00    -0.01  -0.00  -0.00     0.01   0.00  -0.01
 134   1     0.01  -0.01   0.00    -0.01  -0.00   0.00    -0.00   0.00  -0.00
 135   6     0.08  -0.03  -0.00    -0.06  -0.03   0.04    -0.03  -0.00   0.03
 136   6     0.02  -0.05  -0.02     0.05  -0.00   0.08     0.04   0.01   0.06
 137   6     0.04  -0.04  -0.02     0.03  -0.00   0.09     0.04   0.01   0.06
 138   6     0.12  -0.03  -0.00    -0.09  -0.03   0.07    -0.03  -0.00   0.04
 139   6     0.19  -0.01   0.02    -0.21  -0.06   0.03    -0.10  -0.01   0.02
 140   6     0.17  -0.02   0.02    -0.19  -0.06   0.02    -0.10  -0.01   0.02
 141   1    -0.01  -0.02  -0.01     0.04   0.01   0.03     0.03   0.00   0.02
 142   1    -0.00  -0.02  -0.01     0.03   0.01   0.04     0.03   0.01   0.02
 143   1     0.08  -0.00   0.01    -0.09  -0.02   0.00    -0.04  -0.00   0.00
 144   1     0.06  -0.00   0.01    -0.08  -0.02  -0.00    -0.04  -0.01   0.00
 145   6     0.14  -0.03   0.00    -0.10  -0.03   0.07    -0.02  -0.00   0.03
 146   6     0.21  -0.03  -0.03    -0.19  -0.03   0.13    -0.08   0.00   0.06
 147   6     0.21  -0.03  -0.02    -0.17  -0.03   0.13    -0.07   0.00   0.05
 148   6     0.14  -0.02   0.02    -0.07  -0.03   0.08    -0.02  -0.00   0.02
 149   7     0.08  -0.02   0.05     0.01  -0.02   0.03     0.03  -0.01  -0.00
 150   6     0.07  -0.02   0.04     0.00  -0.02   0.02     0.03  -0.01   0.00
 151   1     0.08  -0.01  -0.02    -0.08  -0.01   0.05    -0.03   0.00   0.02
 152   1     0.08  -0.01  -0.01    -0.07  -0.01   0.05    -0.03   0.00   0.02
 153   1     0.04  -0.01   0.01    -0.02  -0.01   0.02    -0.00  -0.00   0.00
 154   1     0.01  -0.00   0.02     0.02  -0.01  -0.01     0.02  -0.00  -0.00
                      7                      8                      9
                        a                      a                      a 
 Frequencies --    23.2215                24.8453                27.5679
 Red. masses --    17.2924                19.9186                16.4558
 Frc consts  --     0.0000                 0.0000                 0.0000
 IR Inten    --     0.2397                 0.0970                 0.0380
 Raman Activ --     0.0000                 0.0000                 0.0000
 Depolar     --     0.0000                 0.0000                 0.0000
 Atom AN      X      Y      Z        X      Y      Z        X      Y      Z
   1  46    -0.11  -0.13  -0.16     0.02   0.12  -0.16     0.15   0.07   0.02
   2  46     0.01   0.10   0.02    -0.07  -0.11   0.18    -0.14  -0.08  -0.02
   3   6     0.03  -0.05   0.01    -0.04   0.05   0.01    -0.04   0.07  -0.07
   4   6     0.04  -0.04   0.00    -0.06   0.04   0.02    -0.07   0.06  -0.05
   5   6     0.02  -0.05   0.01    -0.05   0.04   0.01    -0.06   0.06  -0.02
   6   6     0.02  -0.07   0.01    -0.05   0.06  -0.01    -0.05   0.07  -0.01
   7   6     0.00  -0.07   0.01    -0.04   0.07  -0.02    -0.03   0.07   0.03
   8   6    -0.01  -0.06   0.02    -0.02   0.06  -0.02    -0.01   0.06   0.07
   9   6    -0.01  -0.04   0.02    -0.02   0.04   0.00    -0.01   0.05   0.06
  10   6    -0.02  -0.03   0.02    -0.01   0.02   0.00     0.01   0.03   0.09
  11   6    -0.02  -0.01   0.02    -0.01   0.00   0.02     0.00   0.02   0.08
  12   7     0.00   0.00   0.01    -0.02  -0.00   0.04    -0.03   0.02   0.04
  13   6     0.01  -0.01   0.01    -0.03   0.01   0.04    -0.04   0.03   0.01
  14   6     0.01  -0.03   0.01    -0.04   0.03   0.02    -0.04   0.05   0.02
  15   1     0.01  -0.02   0.00    -0.02   0.02  -0.00    -0.02   0.02  -0.01
  16   1    -0.00  -0.03   0.00    -0.01   0.02  -0.01    -0.01   0.02   0.01
  17   1    -0.01  -0.02   0.01    -0.00   0.02  -0.01     0.00   0.02   0.03
  18   1    -0.01  -0.01   0.01     0.00   0.01  -0.00     0.01   0.01   0.04
  19   1    -0.01   0.00   0.01     0.00  -0.00   0.01     0.00   0.00   0.03
  20   1     0.01  -0.00   0.00    -0.01   0.00   0.02    -0.02   0.01  -0.01
  21   6     0.02  -0.05   0.02    -0.02   0.05  -0.01    -0.01   0.08  -0.07
  22   6    -0.04  -0.09   0.12    -0.03   0.04   0.02     0.02   0.05  -0.06
  23   6    -0.05  -0.09   0.15    -0.02   0.05  -0.00     0.05   0.05  -0.04
  24   6    -0.00  -0.07   0.07     0.01   0.07  -0.04     0.06   0.09  -0.03
  25   6     0.06  -0.03  -0.03     0.03   0.08  -0.07     0.04   0.12  -0.05
  26   6     0.07  -0.02  -0.05     0.01   0.07  -0.05     0.01   0.12  -0.07
  27   1    -0.02  -0.03   0.05    -0.02   0.01   0.02     0.00   0.01  -0.02
  28   1    -0.03  -0.04   0.06    -0.01   0.01   0.01     0.02   0.01  -0.01
  29   1     0.03  -0.00  -0.02     0.02   0.03  -0.03     0.02   0.04  -0.01
  30   1     0.04   0.00  -0.04     0.01   0.02  -0.02    -0.00   0.04  -0.02
  31   6    -0.01  -0.07   0.10     0.02   0.07  -0.06     0.07   0.08   0.02
  32   6    -0.00  -0.08   0.22     0.02   0.07  -0.04     0.07   0.08   0.09
  33   6    -0.00  -0.09   0.24     0.01   0.07  -0.06     0.07   0.07   0.15
  34   6    -0.02  -0.08   0.14     0.01   0.07  -0.07     0.07   0.07   0.14
  35   7    -0.03  -0.08   0.03     0.01   0.08  -0.08     0.07   0.08   0.07
  36   6    -0.03  -0.07   0.01     0.01   0.07  -0.07     0.07   0.08   0.02
  37   1     0.00  -0.03   0.09     0.01   0.02  -0.01     0.02   0.03   0.03
  38   1     0.00  -0.03   0.10     0.00   0.02  -0.01     0.02   0.02   0.06
  39   1    -0.01  -0.02   0.04     0.00   0.02  -0.02     0.02   0.02   0.05
  40   1    -0.01  -0.02  -0.03     0.00   0.02  -0.02     0.02   0.02  -0.01
  41   6     0.11  -0.02   0.02     0.01  -0.09  -0.06     0.09   0.05  -0.02
  42   6     0.10  -0.02  -0.01     0.00  -0.09  -0.09     0.08   0.04  -0.00
  43   6     0.07  -0.01  -0.03    -0.01  -0.09  -0.09     0.04   0.04   0.00
  44   6     0.11   0.00  -0.03    -0.02  -0.11  -0.08     0.03   0.03   0.01
  45   6     0.07   0.00  -0.04    -0.03  -0.12  -0.06    -0.03   0.03   0.01
  46   6    -0.01  -0.00  -0.05    -0.02  -0.11  -0.04    -0.08   0.04   0.02
  47   6    -0.05  -0.02  -0.05    -0.00  -0.08  -0.04    -0.07   0.04   0.02
  48   6    -0.12  -0.03  -0.05     0.01  -0.06  -0.02    -0.11   0.05   0.03
  49   6    -0.14  -0.04  -0.05     0.02  -0.04  -0.03    -0.08   0.05   0.02
  50   7    -0.10  -0.05  -0.04     0.03  -0.03  -0.06    -0.02   0.05   0.02
  51   6    -0.03  -0.04  -0.03     0.02  -0.04  -0.07     0.02   0.05   0.01
  52   6    -0.00  -0.02  -0.04     0.00  -0.07  -0.07    -0.00   0.04   0.01
  53   1     0.05   0.00  -0.01    -0.01  -0.04  -0.03     0.02   0.01   0.00
  54   1     0.03   0.00  -0.01    -0.01  -0.04  -0.01    -0.01   0.01   0.00
  55   1    -0.01   0.00  -0.02    -0.01  -0.03  -0.01    -0.04   0.01   0.01
  56   1    -0.05  -0.01  -0.02     0.00  -0.02   0.00    -0.05   0.01   0.01
  57   1    -0.06  -0.01  -0.01     0.01  -0.01  -0.00    -0.03   0.02   0.01
  58   1     0.00  -0.01  -0.01     0.01  -0.01  -0.03     0.02   0.01   0.00
  59   6     0.11  -0.03   0.04     0.02  -0.10  -0.02     0.08   0.05  -0.03
  60   6     0.11  -0.02   0.05     0.02  -0.09   0.00     0.09   0.06   0.01
  61   6     0.10  -0.02   0.05     0.03  -0.10   0.04     0.06   0.06   0.01
  62   6     0.09  -0.03   0.04     0.03  -0.12   0.06     0.01   0.04  -0.03
  63   6     0.10  -0.04   0.05     0.04  -0.14   0.04     0.00   0.03  -0.07
  64   6     0.11  -0.04   0.04     0.04  -0.13   0.01     0.03   0.03  -0.07
  65   1     0.03  -0.00   0.01     0.00  -0.02  -0.00     0.04   0.02   0.01
  66   1     0.03  -0.00   0.02     0.01  -0.02   0.02     0.02   0.02   0.01
  67   1     0.03  -0.01   0.01     0.01  -0.04   0.02    -0.01   0.01  -0.03
  68   1     0.03  -0.01   0.01     0.01  -0.04  -0.00     0.01   0.01  -0.03
  69   6     0.06  -0.03   0.03     0.02  -0.12   0.07    -0.02   0.04  -0.02
  70   6     0.05  -0.04   0.02    -0.00  -0.13   0.06    -0.02   0.05  -0.00
  71   6     0.02  -0.03  -0.00    -0.03  -0.12   0.06    -0.05   0.04   0.02
  72   6    -0.01  -0.01  -0.01    -0.03  -0.12   0.06    -0.08   0.02   0.02
  73   7    -0.00   0.00   0.01    -0.02  -0.13   0.07    -0.09   0.01   0.00
  74   6     0.03  -0.01   0.02     0.01  -0.12   0.07    -0.06   0.02  -0.02
  75   1     0.02  -0.01   0.01     0.00  -0.04   0.02     0.00   0.02  -0.00
  76   1     0.00  -0.01  -0.00    -0.01  -0.04   0.02    -0.01   0.02   0.01
  77   1    -0.01  -0.00  -0.01    -0.02  -0.03   0.02    -0.03   0.01   0.01
  78   1     0.01  -0.00   0.01     0.01  -0.03   0.02    -0.02   0.00  -0.01
  79   6    -0.03   0.04   0.08     0.02  -0.03  -0.03     0.05  -0.06   0.07
  80   6    -0.04   0.03   0.09     0.04  -0.03  -0.03     0.08  -0.06   0.06
  81   6    -0.03   0.04   0.08     0.03  -0.03  -0.02     0.07  -0.06   0.05
  82   6    -0.01   0.05   0.14     0.03  -0.05  -0.01     0.07  -0.07   0.06
  83   6    -0.00   0.06   0.12     0.02  -0.05   0.01     0.05  -0.08   0.03
  84   6    -0.01   0.05   0.03     0.01  -0.04   0.02     0.03  -0.07  -0.04
  85   6    -0.02   0.03  -0.03     0.01  -0.03   0.01     0.03  -0.06  -0.05
  86   6    -0.03   0.01  -0.12    -0.00  -0.02   0.02     0.00  -0.05  -0.12
  87   6    -0.04  -0.01  -0.15    -0.00  -0.00   0.00     0.01  -0.04  -0.11
  88   7    -0.05  -0.01  -0.12     0.01   0.00  -0.03     0.04  -0.03  -0.06
  89   6    -0.04   0.00  -0.04     0.02  -0.01  -0.03     0.05  -0.04  -0.01
  90   6    -0.03   0.02   0.00     0.02  -0.02  -0.02     0.05  -0.05  -0.01
  91   1    -0.00   0.02   0.06     0.01  -0.02  -0.00     0.03  -0.02   0.03
  92   1     0.00   0.02   0.05     0.00  -0.02   0.00     0.02  -0.02   0.01
  93   1     0.00   0.01   0.00     0.00  -0.01   0.01     0.00  -0.02  -0.02
  94   1    -0.01   0.00  -0.04    -0.00  -0.01   0.01    -0.00  -0.02  -0.05
  95   1    -0.01  -0.01  -0.07    -0.00   0.00   0.00    -0.00  -0.01  -0.05
  96   1    -0.01  -0.00  -0.00     0.01  -0.00  -0.02     0.02  -0.01   0.01
  97   6    -0.02   0.04   0.05     0.01  -0.04  -0.01     0.01  -0.07   0.06
  98   6    -0.03   0.03   0.06    -0.02  -0.06   0.03    -0.02  -0.12   0.07
  99   6    -0.02   0.04   0.03    -0.03  -0.06   0.05    -0.05  -0.13   0.04
 100   6    -0.01   0.05   0.00    -0.02  -0.05   0.02    -0.06  -0.08  -0.01
 101   6    -0.00   0.05  -0.00     0.00  -0.03  -0.03    -0.04  -0.04  -0.02
 102   6    -0.01   0.05   0.02     0.02  -0.03  -0.05    -0.00  -0.03   0.01
 103   1    -0.01   0.01   0.02    -0.01  -0.02   0.02    -0.00  -0.04   0.03
 104   1    -0.01   0.01   0.01    -0.02  -0.02   0.02    -0.02  -0.05   0.02
 105   1     0.00   0.02  -0.01     0.00  -0.01  -0.02    -0.01  -0.00  -0.02
 106   1    -0.00   0.01   0.01     0.01  -0.00  -0.02     0.00   0.00   0.00
 107   6    -0.00   0.05  -0.01    -0.03  -0.05   0.03    -0.08  -0.08  -0.05
 108   6    -0.01   0.05  -0.05    -0.05  -0.05  -0.01    -0.09  -0.08  -0.12
 109   6    -0.01   0.06  -0.07    -0.05  -0.05  -0.01    -0.09  -0.07  -0.15
 110   6    -0.00   0.06  -0.04    -0.04  -0.06   0.03    -0.08  -0.07  -0.11
 111   7     0.01   0.06  -0.01    -0.03  -0.07   0.07    -0.07  -0.08  -0.06
 112   6     0.01   0.05   0.01    -0.02  -0.06   0.07    -0.07  -0.08  -0.03
 113   1    -0.00   0.02  -0.02    -0.02  -0.01  -0.01    -0.03  -0.02  -0.04
 114   1    -0.01   0.02  -0.03    -0.02  -0.01  -0.01    -0.03  -0.02  -0.06
 115   1    -0.00   0.02  -0.02    -0.01  -0.02   0.01    -0.02  -0.02  -0.04
 116   1     0.00   0.02   0.01    -0.00  -0.02   0.03    -0.02  -0.02   0.00
 117   6    -0.04   0.04  -0.06     0.06   0.08   0.02    -0.04  -0.04   0.05
 118   6    -0.07   0.04  -0.07     0.04   0.08  -0.03    -0.04  -0.04   0.05
 119   6    -0.08   0.05  -0.06     0.02   0.08  -0.04    -0.04  -0.04   0.04
 120   6    -0.12   0.07  -0.05     0.02   0.07  -0.04    -0.09  -0.05   0.05
 121   6    -0.11   0.07  -0.02    -0.00   0.08  -0.04    -0.09  -0.05   0.03
 122   6    -0.06   0.05  -0.02    -0.03   0.08  -0.04    -0.02  -0.05   0.01
 123   6    -0.02   0.03  -0.03    -0.03   0.09  -0.04     0.03  -0.04   0.00
 124   6     0.04   0.00  -0.03    -0.05   0.09  -0.03     0.09  -0.03  -0.02
 125   6     0.06  -0.02  -0.04    -0.04   0.09  -0.03     0.12  -0.02  -0.02
 126   7     0.03  -0.03  -0.06    -0.01   0.10  -0.04     0.10  -0.01  -0.00
 127   6    -0.02  -0.00  -0.06     0.01   0.09  -0.04     0.05  -0.02   0.02
 128   6    -0.04   0.02  -0.05     0.00   0.09  -0.04     0.01  -0.03   0.02
 129   1    -0.04   0.03  -0.01     0.01   0.02  -0.01    -0.04  -0.01   0.02
 130   1    -0.04   0.03  -0.00    -0.00   0.02  -0.01    -0.04  -0.02   0.01
 131   1    -0.01   0.02  -0.00    -0.01   0.02  -0.01    -0.00  -0.01  -0.00
 132   1     0.02   0.00  -0.01    -0.02   0.03  -0.01     0.03  -0.01  -0.01
 133   1     0.03  -0.01  -0.01    -0.02   0.03  -0.01     0.05  -0.01  -0.01
 134   1    -0.01  -0.00  -0.02     0.01   0.02  -0.01     0.01  -0.00   0.01
 135   6    -0.01   0.05  -0.05     0.07   0.09   0.05    -0.03  -0.04   0.03
 136   6     0.01   0.06  -0.03     0.08   0.11   0.06    -0.03  -0.06   0.02
 137   6     0.04   0.06  -0.02     0.08   0.11   0.08    -0.02  -0.06   0.00
 138   6     0.04   0.05  -0.02     0.06   0.09   0.09    -0.01  -0.04  -0.01
 139   6     0.02   0.04  -0.02     0.06   0.07   0.08    -0.01  -0.02   0.00
 140   6    -0.01   0.04  -0.04     0.07   0.07   0.06    -0.02  -0.02   0.02
 141   1     0.00   0.02  -0.01     0.03   0.04   0.01    -0.01  -0.02   0.01
 142   1     0.01   0.02  -0.00     0.02   0.04   0.03    -0.01  -0.02  -0.00
 143   1     0.01   0.01  -0.01     0.02   0.02   0.03    -0.00  -0.00  -0.00
 144   1    -0.01   0.01  -0.01     0.02   0.01   0.01    -0.01  -0.00   0.01
 145   6     0.05   0.06  -0.01     0.03   0.09   0.09     0.00  -0.04  -0.02
 146   6     0.06   0.06  -0.02     0.02   0.11   0.07     0.03  -0.04  -0.04
 147   6     0.06   0.06  -0.02    -0.01   0.10   0.06     0.05  -0.04  -0.06
 148   6     0.04   0.06  -0.01    -0.03   0.07   0.06     0.03  -0.05  -0.05
 149   7     0.03   0.06   0.00    -0.02   0.05   0.08    -0.00  -0.05  -0.03
 150   6     0.03   0.06   0.00     0.01   0.06   0.09    -0.02  -0.05  -0.01
 151   1     0.02   0.02  -0.01     0.01   0.04   0.02     0.01  -0.01  -0.01
 152   1     0.02   0.02  -0.01    -0.01   0.03   0.01     0.02  -0.01  -0.02
 153   1     0.01   0.02  -0.00    -0.01   0.02   0.01     0.01  -0.01  -0.02
 154   1     0.00   0.02   0.00     0.00   0.01   0.03    -0.01  -0.01   0.00
                     10                     11                     12
                        a                      a                      a 
 Frequencies --    28.6691                30.3526                32.0762
 Red. masses --    13.3868                18.2015                12.0220
 Frc consts  --     0.0000                 0.0000                 0.0000
 IR Inten    --     0.1647                 0.0695                 0.1140
 Raman Activ --     0.0000                 0.0000                 0.0000
 Depolar     --     0.0000                 0.0000                 0.0000
 Atom AN      X      Y      Z        X      Y      Z        X      Y      Z
   1  46     0.04  -0.01  -0.09     0.03  -0.21  -0.01    -0.03   0.05   0.04
   2  46    -0.12  -0.02  -0.03     0.05   0.16   0.03    -0.00  -0.09  -0.03
   3   6     0.05   0.01   0.15     0.06  -0.02  -0.11    -0.08   0.02  -0.19
   4   6     0.01   0.01   0.11     0.07  -0.02  -0.08    -0.07   0.01  -0.14
   5   6    -0.01   0.01   0.05     0.06  -0.03  -0.04    -0.03   0.01  -0.05
   6   6    -0.02   0.00   0.04     0.05  -0.07  -0.04    -0.02   0.02   0.00
   7   6    -0.04   0.01  -0.04     0.02  -0.08   0.01     0.02   0.02   0.12
   8   6    -0.06   0.02  -0.10     0.00  -0.06   0.05     0.05  -0.00   0.18
   9   6    -0.05   0.02  -0.08     0.01  -0.02   0.05     0.04  -0.01   0.12
  10   6    -0.07   0.03  -0.13    -0.01   0.00   0.08     0.06  -0.03   0.17
  11   6    -0.06   0.03  -0.11    -0.00   0.04   0.07     0.04  -0.04   0.11
  12   7    -0.04   0.03  -0.04     0.02   0.06   0.03     0.00  -0.04   0.01
  13   6    -0.02   0.02   0.02     0.04   0.03  -0.01    -0.02  -0.02  -0.04
  14   6    -0.03   0.02  -0.00     0.04  -0.01  -0.00    -0.01  -0.01   0.01
  15   1    -0.00  -0.00   0.02     0.02  -0.02  -0.02    -0.01   0.01  -0.01
  16   1    -0.01   0.00  -0.02     0.01  -0.03   0.01     0.01   0.01   0.05
  17   1    -0.02   0.01  -0.05    -0.00  -0.02   0.03     0.02  -0.00   0.08
  18   1    -0.02   0.01  -0.06    -0.01  -0.00   0.03     0.03  -0.01   0.07
  19   1    -0.02   0.01  -0.04    -0.01   0.02   0.03     0.02  -0.01   0.04
  20   1    -0.00   0.01   0.02     0.02   0.01  -0.01    -0.01  -0.01  -0.04
  21   6     0.06   0.01   0.15     0.06  -0.02  -0.11    -0.06   0.02  -0.19
  22   6     0.03   0.00   0.19     0.02  -0.03  -0.07    -0.14  -0.07  -0.02
  23   6     0.03   0.00   0.18     0.01  -0.04  -0.06    -0.12  -0.07   0.03
  24   6     0.06   0.01   0.13     0.03  -0.03  -0.10    -0.03   0.01  -0.09
  25   6     0.08   0.02   0.10     0.07  -0.02  -0.15     0.06   0.11  -0.27
  26   6     0.08   0.02   0.11     0.08  -0.01  -0.16     0.04   0.11  -0.32
  27   1     0.00  -0.00   0.07     0.00  -0.01  -0.01    -0.06  -0.04   0.02
  28   1     0.00  -0.00   0.06    -0.00  -0.01  -0.01    -0.05  -0.04   0.04
  29   1     0.03   0.01   0.02     0.02  -0.00  -0.05     0.04   0.05  -0.10
  30   1     0.03   0.01   0.02     0.03  -0.00  -0.06     0.03   0.05  -0.13
  31   6     0.05   0.02   0.11     0.02  -0.04  -0.08    -0.02   0.00  -0.01
  32   6     0.05   0.02   0.15     0.01  -0.04  -0.06     0.00  -0.02   0.15
  33   6     0.03   0.02   0.10     0.01  -0.04  -0.04     0.01  -0.03   0.22
  34   6     0.02   0.02   0.02     0.01  -0.05  -0.02     0.00  -0.02   0.15
  35   7     0.03   0.02  -0.01     0.01  -0.06  -0.04    -0.02  -0.00   0.01
  36   6     0.04   0.02   0.04     0.02  -0.05  -0.06    -0.03   0.01  -0.07
  37   1     0.02   0.00   0.06     0.00  -0.01  -0.02     0.00  -0.01   0.06
  38   1     0.01   0.01   0.04     0.00  -0.01  -0.01     0.01  -0.01   0.10
  39   1     0.00   0.01  -0.01     0.00  -0.02  -0.00     0.00  -0.01   0.06
  40   1     0.01   0.01   0.00     0.01  -0.02  -0.02    -0.01   0.01  -0.05
  41   6    -0.06   0.04   0.02    -0.09   0.04   0.08    -0.06  -0.01  -0.02
  42   6    -0.04   0.04   0.01    -0.06   0.04   0.09    -0.04  -0.01  -0.01
  43   6    -0.01   0.05  -0.01    -0.03   0.05   0.06    -0.01  -0.01  -0.00
  44   6     0.00   0.06  -0.01    -0.02   0.09   0.05     0.01  -0.02  -0.00
  45   6     0.04   0.07  -0.03     0.02   0.11   0.01     0.05  -0.02   0.01
  46   6     0.07   0.06  -0.04     0.06   0.08  -0.03     0.06  -0.02   0.01
  47   6     0.05   0.04  -0.04     0.05   0.04  -0.02     0.04  -0.01   0.01
  48   6     0.08   0.03  -0.05     0.08   0.00  -0.06     0.04  -0.00   0.02
  49   6     0.06   0.01  -0.05     0.07  -0.04  -0.05     0.02   0.01   0.02
  50   7     0.02   0.01  -0.03     0.03  -0.06  -0.01    -0.00   0.02   0.01
  51   6    -0.00   0.02  -0.02    -0.00  -0.03   0.03    -0.01   0.01   0.01
  52   6     0.01   0.04  -0.02     0.01   0.02   0.02     0.00  -0.00   0.01
  53   1    -0.01   0.02   0.00    -0.01   0.03   0.02     0.00  -0.01  -0.00
  54   1     0.02   0.02  -0.01     0.01   0.04  -0.00     0.02  -0.01   0.00
  55   1     0.03   0.02  -0.02     0.03   0.03  -0.02     0.02  -0.01   0.01
  56   1     0.03   0.01  -0.02     0.03   0.00  -0.03     0.02  -0.00   0.01
  57   1     0.02   0.00  -0.02     0.03  -0.02  -0.02     0.00   0.00   0.01
  58   1    -0.01   0.01  -0.00    -0.01  -0.01   0.02    -0.01   0.00  -0.00
  59   6    -0.05   0.04   0.01    -0.09   0.05   0.06    -0.06  -0.00  -0.03
  60   6     0.04   0.01   0.07    -0.07   0.03   0.06    -0.03  -0.02  -0.01
  61   6     0.06   0.01   0.05    -0.06   0.04   0.04    -0.01  -0.02  -0.01
  62   6    -0.00   0.05  -0.02    -0.08   0.06   0.01    -0.03  -0.00  -0.03
  63   6    -0.08   0.08  -0.08    -0.10   0.08   0.01    -0.07   0.01  -0.07
  64   6    -0.11   0.08  -0.07    -0.11   0.07   0.03    -0.09   0.01  -0.06
  65   1     0.02  -0.01   0.04    -0.02   0.00   0.02    -0.00  -0.01   0.01
  66   1     0.04  -0.00   0.03    -0.01   0.01   0.01     0.00  -0.01   0.00
  67   1    -0.04   0.03  -0.04    -0.03   0.03  -0.00    -0.03   0.01  -0.03
  68   1    -0.05   0.03  -0.03    -0.04   0.02   0.01    -0.03   0.01  -0.03
  69   6     0.03   0.05  -0.02    -0.06   0.06   0.01    -0.01  -0.00  -0.02
  70   6     0.15   0.05  -0.01    -0.05   0.06   0.01     0.02   0.00  -0.01
  71   6     0.19   0.04  -0.00    -0.02   0.06   0.02     0.04  -0.00  -0.00
  72   6     0.11   0.04  -0.00     0.00   0.05   0.02     0.03  -0.01  -0.00
  73   7    -0.00   0.05  -0.02    -0.01   0.06   0.02     0.00  -0.02  -0.01
  74   6    -0.04   0.05  -0.03    -0.03   0.06   0.01    -0.02  -0.01  -0.02
  75   1     0.06   0.01  -0.00    -0.02   0.02   0.00     0.01   0.00  -0.00
  76   1     0.08   0.01   0.00    -0.00   0.02   0.01     0.02  -0.00   0.00
  77   1     0.04   0.01   0.00     0.01   0.01   0.01     0.01  -0.01   0.00
  78   1    -0.04   0.02  -0.01    -0.01   0.02   0.00    -0.01  -0.01  -0.01
  79   6    -0.03  -0.05  -0.08    -0.07  -0.09   0.03     0.01   0.03  -0.09
  80   6     0.00  -0.05  -0.06    -0.03  -0.08   0.01    -0.01   0.03  -0.07
  81   6     0.02  -0.04  -0.02    -0.01  -0.08  -0.00    -0.01   0.03  -0.03
  82   6     0.02  -0.04   0.02    -0.01  -0.07  -0.01    -0.01   0.02  -0.02
  83   6     0.03  -0.04   0.09    -0.01  -0.07  -0.02    -0.00   0.02   0.03
  84   6     0.03  -0.04   0.11     0.00  -0.08  -0.01     0.00   0.03   0.07
  85   6     0.03  -0.04   0.06     0.00  -0.08   0.00     0.00   0.03   0.06
  86   6     0.03  -0.04   0.08     0.01  -0.09   0.01     0.01   0.03   0.09
  87   6     0.02  -0.03   0.04     0.01  -0.09   0.02     0.00   0.04   0.07
  88   7     0.01  -0.03  -0.02     0.01  -0.10   0.02    -0.01   0.04   0.02
  89   6     0.01  -0.04  -0.04     0.00  -0.09   0.01    -0.01   0.03  -0.01
  90   6     0.02  -0.04   0.00    -0.00  -0.09   0.01    -0.01   0.03   0.01
  91   1     0.01  -0.01   0.00    -0.00  -0.02  -0.01    -0.00   0.01  -0.01
  92   1     0.01  -0.01   0.03    -0.00  -0.02  -0.01     0.00   0.01   0.01
  93   1     0.01  -0.01   0.04     0.00  -0.02  -0.00     0.00   0.01   0.03
  94   1     0.01  -0.01   0.04     0.00  -0.02   0.00     0.00   0.01   0.04
  95   1     0.00  -0.01   0.01     0.00  -0.03   0.01     0.00   0.01   0.03
  96   1     0.00  -0.01  -0.02    -0.00  -0.03   0.00    -0.00   0.01  -0.01
  97   6    -0.04  -0.06  -0.08    -0.08  -0.10   0.04     0.02   0.04  -0.09
  98   6    -0.03  -0.05  -0.09    -0.09  -0.10   0.07     0.06   0.07  -0.14
  99   6    -0.04  -0.05  -0.06    -0.09  -0.10   0.07     0.07   0.07  -0.12
 100   6    -0.06  -0.06  -0.02    -0.07  -0.09   0.04     0.04   0.03  -0.03
 101   6    -0.07  -0.07  -0.01    -0.07  -0.09   0.03     0.02   0.01   0.01
 102   6    -0.06  -0.07  -0.03    -0.07  -0.10   0.03     0.01   0.01  -0.02
 103   1    -0.01  -0.01  -0.04    -0.03  -0.03   0.03     0.02   0.03  -0.06
 104   1    -0.01  -0.01  -0.02    -0.03  -0.03   0.03     0.03   0.03  -0.04
 105   1    -0.02  -0.02   0.01    -0.02  -0.03   0.00    -0.00  -0.01   0.02
 106   1    -0.02  -0.02  -0.01    -0.02  -0.03   0.00    -0.00  -0.01   0.01
 107   6    -0.05  -0.07   0.00    -0.04  -0.08   0.02     0.04   0.02   0.01
 108   6    -0.03  -0.08   0.07    -0.01  -0.11  -0.02     0.05   0.03   0.11
 109   6    -0.00  -0.08   0.10     0.03  -0.09  -0.04     0.04   0.02   0.16
 110   6    -0.01  -0.07   0.07     0.04  -0.04  -0.04     0.02  -0.00   0.10
 111   7    -0.04  -0.06   0.01     0.01  -0.01  -0.01     0.01  -0.01   0.00
 112   6    -0.06  -0.06  -0.03    -0.03  -0.03   0.01     0.02   0.00  -0.04
 113   1    -0.01  -0.03   0.03    -0.01  -0.04  -0.01     0.02   0.01   0.05
 114   1     0.00  -0.03   0.04     0.02  -0.03  -0.02     0.01   0.01   0.07
 115   1     0.00  -0.02   0.03     0.02  -0.01  -0.02     0.00  -0.00   0.04
 116   1    -0.03  -0.01  -0.02    -0.02  -0.00   0.01     0.00  -0.00  -0.03
 117   6     0.10  -0.01  -0.05    -0.04   0.08  -0.03     0.06  -0.02  -0.00
 118   6     0.06  -0.00  -0.04    -0.03   0.08  -0.06     0.04  -0.01   0.01
 119   6     0.01  -0.00  -0.03    -0.00   0.08  -0.04     0.01  -0.01   0.01
 120   6    -0.03   0.01  -0.02     0.02   0.12  -0.03     0.01  -0.02   0.01
 121   6    -0.10   0.01  -0.01     0.06   0.12   0.00    -0.02  -0.02   0.01
 122   6    -0.13   0.02  -0.00     0.07   0.09   0.03    -0.04  -0.01   0.01
 123   6    -0.08   0.01  -0.01     0.05   0.05   0.02    -0.03  -0.00   0.01
 124   6    -0.09   0.01  -0.01     0.05   0.02   0.05    -0.04   0.00   0.01
 125   6    -0.05   0.00  -0.02     0.03  -0.02   0.04    -0.03   0.01   0.01
 126   7     0.00  -0.01  -0.03    -0.00  -0.03   0.00    -0.02   0.01   0.01
 127   6     0.02  -0.01  -0.03    -0.01   0.01  -0.02    -0.01   0.00   0.02
 128   6    -0.01  -0.00  -0.03     0.01   0.05  -0.02    -0.01  -0.01   0.01
 129   1    -0.01   0.00  -0.01     0.00   0.04  -0.02     0.01  -0.01   0.00
 130   1    -0.04   0.01   0.00     0.02   0.04   0.00    -0.01  -0.01   0.00
 131   1    -0.05   0.01   0.00     0.03   0.03   0.02    -0.02  -0.00   0.00
 132   1    -0.04   0.00   0.00     0.02   0.01   0.02    -0.02   0.00   0.00
 133   1    -0.02   0.00  -0.00     0.01  -0.01   0.02    -0.01   0.00   0.00
 134   1     0.02  -0.00  -0.01    -0.01   0.00  -0.02     0.00   0.00   0.01
 135   6     0.10  -0.00  -0.04    -0.03   0.08  -0.01     0.07  -0.02  -0.00
 136   6     0.12   0.01  -0.03     0.02   0.10   0.02     0.09  -0.01   0.00
 137   6     0.09   0.01  -0.02     0.04   0.11   0.04     0.08  -0.01   0.00
 138   6     0.05  -0.01  -0.03    -0.01   0.09   0.03     0.05  -0.02  -0.01
 139   6     0.04  -0.02  -0.03    -0.06   0.07   0.01     0.03  -0.02  -0.01
 140   6     0.07  -0.02  -0.04    -0.08   0.07  -0.01     0.04  -0.02  -0.01
 141   1     0.04   0.01  -0.01     0.02   0.03   0.01     0.03  -0.00   0.00
 142   1     0.03   0.01  -0.01     0.02   0.04   0.02     0.03  -0.00   0.00
 143   1     0.00  -0.01  -0.01    -0.03   0.02   0.00    -0.00  -0.01  -0.00
 144   1     0.02  -0.01  -0.01    -0.03   0.01  -0.01     0.00  -0.01  -0.00
 145   6    -0.00  -0.01  -0.02    -0.00   0.09   0.04     0.02  -0.02  -0.01
 146   6    -0.06  -0.00  -0.00    -0.01   0.10   0.04    -0.03  -0.02   0.01
 147   6    -0.12  -0.01   0.01     0.00   0.09   0.02    -0.06  -0.02   0.02
 148   6    -0.12  -0.02   0.01     0.02   0.09   0.01    -0.05  -0.03   0.01
 149   7    -0.07  -0.04  -0.01     0.03   0.09   0.01    -0.00  -0.04  -0.01
 150   6    -0.01  -0.03  -0.02     0.02   0.08   0.02     0.04  -0.03  -0.02
 151   1    -0.02   0.00   0.00    -0.01   0.03   0.01    -0.01  -0.00   0.01
 152   1    -0.05   0.00   0.01    -0.00   0.03   0.00    -0.03  -0.00   0.01
 153   1    -0.05  -0.01   0.01     0.01   0.02  -0.00    -0.02  -0.01   0.00
 154   1     0.01  -0.01  -0.01     0.01   0.02   0.01     0.02  -0.01  -0.01
                     13                     14                     15
                        a                      a                      a 
 Frequencies --    37.7031                39.8544                42.5104
 Red. masses --    11.8552                15.9630                12.2230
 Frc consts  --     0.0000                 0.0000                 0.0000
 IR Inten    --     0.0284                 0.0442                 0.0743
 Raman Activ --     0.0000                 0.0000                 0.0000
 Depolar     --     0.0000                 0.0000                 0.0000
 Atom AN      X      Y      Z        X      Y      Z        X      Y      Z
   1  46    -0.01   0.09  -0.04     0.05  -0.16  -0.04     0.03   0.08  -0.04
   2  46     0.02  -0.02   0.02    -0.01   0.14   0.01     0.02  -0.04   0.04
   3   6    -0.04   0.00   0.02     0.06   0.09   0.01    -0.04  -0.03  -0.01
   4   6    -0.02   0.01   0.01     0.02   0.08   0.01    -0.01  -0.02  -0.02
   5   6    -0.01   0.01   0.01     0.01   0.08   0.00     0.00  -0.02  -0.02
   6   6    -0.01   0.03   0.01     0.00   0.08  -0.02     0.00  -0.02  -0.00
   7   6     0.00   0.03   0.00     0.00   0.08  -0.04     0.00  -0.03   0.02
   8   6     0.01   0.02   0.00     0.00   0.08  -0.03     0.01  -0.03   0.03
   9   6     0.01   0.01   0.00     0.01   0.08  -0.01     0.00  -0.02   0.01
  10   6     0.02  -0.00   0.00     0.01   0.08   0.00     0.00  -0.02   0.03
  11   6     0.02  -0.01   0.00     0.01   0.07   0.02     0.00  -0.01   0.01
  12   7     0.01  -0.02   0.00     0.02   0.08   0.04    -0.00  -0.01  -0.01
  13   6    -0.00  -0.01   0.00     0.01   0.07   0.03     0.00  -0.01  -0.02
  14   6    -0.00   0.00   0.00     0.01   0.08   0.01     0.00  -0.02  -0.01
  15   1    -0.00   0.01   0.00     0.00   0.02  -0.01     0.00  -0.01  -0.00
  16   1     0.00   0.01   0.00    -0.00   0.02  -0.02     0.00  -0.01   0.01
  17   1     0.01   0.01   0.00    -0.00   0.02  -0.01     0.00  -0.01   0.01
  18   1     0.01   0.00   0.00     0.00   0.02  -0.00     0.00  -0.01   0.01
  19   1     0.01  -0.01   0.00     0.01   0.02   0.01    -0.00  -0.00   0.01
  20   1    -0.00  -0.00   0.00     0.00   0.02   0.01    -0.00  -0.00  -0.01
  21   6    -0.05  -0.00   0.03     0.08   0.09  -0.00    -0.05  -0.04   0.01
  22   6    -0.05  -0.01   0.04     0.10   0.10  -0.03    -0.01  -0.03  -0.04
  23   6    -0.04  -0.01   0.04     0.11   0.10  -0.04    -0.01  -0.03  -0.02
  24   6    -0.03   0.00   0.03     0.10   0.10  -0.03    -0.04  -0.04   0.05
  25   6    -0.04   0.01   0.03     0.09   0.09  -0.02    -0.09  -0.05   0.10
  26   6    -0.04   0.01   0.02     0.08   0.09  -0.00    -0.09  -0.05   0.09
  27   1    -0.02  -0.01   0.01     0.03   0.03  -0.01     0.01  -0.01  -0.03
  28   1    -0.01  -0.01   0.02     0.03   0.03  -0.02     0.01  -0.01  -0.02
  29   1    -0.01   0.00   0.01     0.03   0.03  -0.00    -0.04  -0.02   0.04
  30   1    -0.01   0.00   0.01     0.02   0.02   0.00    -0.04  -0.02   0.04
  31   6    -0.02   0.00   0.03     0.08   0.09  -0.02    -0.02  -0.03   0.05
  32   6    -0.01  -0.01   0.05     0.05   0.12   0.00     0.00  -0.05   0.05
  33   6     0.01  -0.00   0.04     0.01   0.10   0.02     0.03  -0.04   0.05
  34   6     0.01   0.02   0.02     0.00   0.06   0.02     0.04  -0.01   0.04
  35   7    -0.00   0.03   0.00     0.04   0.03   0.01     0.02   0.01   0.04
  36   6    -0.02   0.02   0.01     0.07   0.05  -0.01    -0.01  -0.00   0.04
  37   1    -0.00  -0.01   0.02     0.02   0.04   0.00    -0.00  -0.02   0.01
  38   1     0.01  -0.00   0.02    -0.00   0.03   0.01     0.01  -0.02   0.02
  39   1     0.01   0.01   0.00    -0.01   0.01   0.01     0.02  -0.00   0.01
  40   1    -0.01   0.01  -0.00     0.03   0.01  -0.01    -0.01   0.00   0.01
  41   6    -0.23  -0.04  -0.02    -0.03  -0.07   0.08     0.04   0.03  -0.07
  42   6    -0.17  -0.03  -0.04    -0.02  -0.06   0.03     0.04   0.03  -0.04
  43   6    -0.06  -0.03  -0.03    -0.01  -0.06   0.01     0.02   0.02  -0.03
  44   6     0.01  -0.04  -0.03    -0.00  -0.05   0.01     0.02   0.01  -0.03
  45   6     0.15  -0.05  -0.03     0.02  -0.04  -0.00    -0.01   0.01  -0.02
  46   6     0.21  -0.04  -0.02     0.03  -0.05  -0.01    -0.04   0.01  -0.01
  47   6     0.13  -0.03  -0.02     0.02  -0.06  -0.01    -0.03   0.02  -0.01
  48   6     0.16  -0.02  -0.01     0.03  -0.06  -0.01    -0.05   0.03  -0.00
  49   6     0.08  -0.00  -0.01     0.02  -0.07  -0.01    -0.04   0.03  -0.01
  50   7    -0.01   0.01  -0.02     0.01  -0.07  -0.01    -0.02   0.04  -0.01
  51   6    -0.06  -0.00  -0.02     0.00  -0.06  -0.00    -0.01   0.03  -0.02
  52   6    -0.00  -0.02  -0.02     0.01  -0.06  -0.00    -0.01   0.03  -0.02
  53   1    -0.01  -0.01  -0.01    -0.00  -0.01   0.00     0.01   0.00  -0.01
  54   1     0.06  -0.02  -0.01     0.01  -0.01  -0.00    -0.00  -0.00  -0.00
  55   1     0.09  -0.01  -0.01     0.01  -0.01  -0.00    -0.02   0.00   0.00
  56   1     0.07  -0.01  -0.00     0.01  -0.02  -0.00    -0.02   0.01   0.00
  57   1     0.03   0.00  -0.00     0.01  -0.02  -0.00    -0.01   0.01  -0.00
  58   1    -0.04   0.00  -0.01    -0.00  -0.02   0.00     0.00   0.01  -0.01
  59   6    -0.20  -0.04  -0.02    -0.02  -0.08   0.11     0.03   0.03  -0.07
  60   6    -0.05  -0.10   0.09    -0.01  -0.08   0.12    -0.03   0.05  -0.12
  61   6     0.03  -0.10   0.09    -0.02  -0.08   0.12    -0.04   0.05  -0.11
  62   6    -0.03  -0.03   0.00    -0.04  -0.08   0.10     0.01   0.02  -0.05
  63   6    -0.18   0.03  -0.10    -0.04  -0.08   0.09     0.07   0.00  -0.01
  64   6    -0.26   0.03  -0.11    -0.03  -0.08   0.10     0.08   0.01  -0.02
  65   1     0.00  -0.04   0.05     0.00  -0.02   0.04    -0.02   0.02  -0.05
  66   1     0.04  -0.04   0.05    -0.00  -0.02   0.04    -0.02   0.02  -0.04
  67   1    -0.06   0.03  -0.05    -0.01  -0.02   0.02     0.03  -0.01   0.01
  68   1    -0.11   0.02  -0.06    -0.01  -0.02   0.02     0.04  -0.00   0.01
  69   6     0.04  -0.03   0.01    -0.06  -0.07   0.06     0.01   0.01  -0.02
  70   6     0.19  -0.05   0.02    -0.08  -0.09   0.02    -0.00   0.03   0.00
  71   6     0.24  -0.05   0.01    -0.09  -0.08  -0.02     0.01   0.02   0.03
  72   6     0.16  -0.04   0.01    -0.06  -0.03  -0.03     0.03  -0.01   0.03
  73   7     0.03  -0.03   0.00    -0.06  -0.00   0.01     0.04  -0.03   0.01
  74   6    -0.02  -0.02   0.01    -0.06  -0.02   0.05     0.03  -0.01  -0.01
  75   1     0.07  -0.02   0.01    -0.03  -0.04   0.01    -0.01   0.02  -0.00
  76   1     0.10  -0.02   0.00    -0.03  -0.03  -0.02     0.00   0.01   0.01
  77   1     0.05  -0.01   0.00    -0.02  -0.00  -0.02     0.01  -0.00   0.02
  78   1    -0.03  -0.00  -0.00    -0.02   0.00   0.02     0.01  -0.01  -0.01
  79   6     0.04   0.02   0.07    -0.11   0.02  -0.06    -0.05  -0.04  -0.21
  80   6     0.03   0.02   0.05    -0.09   0.02  -0.04    -0.00  -0.03  -0.16
  81   6     0.02   0.02   0.02    -0.05   0.03  -0.01     0.02  -0.03  -0.07
  82   6     0.02   0.01   0.01    -0.03   0.08   0.02     0.03  -0.04   0.01
  83   6     0.00   0.01  -0.03     0.02   0.10   0.06     0.05  -0.04   0.14
  84   6    -0.01   0.01  -0.06     0.06   0.07   0.06     0.04  -0.03   0.18
  85   6    -0.00   0.02  -0.05     0.04   0.02   0.03     0.03  -0.02   0.09
  86   6    -0.01   0.02  -0.07     0.08  -0.01   0.02     0.02  -0.01   0.10
  87   6    -0.01   0.03  -0.05     0.06  -0.06  -0.01     0.01   0.01   0.03
  88   7     0.00   0.03  -0.03     0.01  -0.08  -0.03     0.00   0.01  -0.05
  89   6     0.01   0.02  -0.00    -0.02  -0.05  -0.03     0.01  -0.00  -0.08
  90   6     0.01   0.02  -0.01    -0.01   0.00  -0.01     0.02  -0.02  -0.03
  91   1     0.01   0.00   0.01    -0.02   0.03   0.01     0.01  -0.01  -0.00
  92   1    -0.00   0.00  -0.01     0.01   0.04   0.03     0.02  -0.01   0.06
  93   1    -0.01   0.00  -0.03     0.03   0.02   0.03     0.02  -0.01   0.08
  94   1    -0.01   0.00  -0.03     0.03   0.00   0.01     0.01  -0.00   0.05
  95   1    -0.00   0.01  -0.02     0.02  -0.02  -0.00    -0.00   0.00   0.01
  96   1     0.01   0.01   0.01    -0.02  -0.02  -0.02     0.00   0.00  -0.04
  97   6     0.03   0.02   0.07    -0.09   0.02  -0.05    -0.05  -0.04  -0.18
  98   6    -0.00  -0.02   0.11    -0.04   0.08  -0.13    -0.02  -0.00  -0.20
  99   6    -0.01  -0.02   0.08    -0.01   0.08  -0.11    -0.02  -0.00  -0.13
 100   6     0.00   0.01   0.01    -0.03   0.03  -0.01    -0.03  -0.05  -0.04
 101   6     0.03   0.04  -0.02    -0.08  -0.02   0.07    -0.04  -0.09  -0.03
 102   6     0.04   0.04   0.00    -0.11  -0.03   0.05    -0.06  -0.09  -0.10
 103   1    -0.00  -0.01   0.05    -0.01   0.03  -0.06    -0.00   0.01  -0.08
 104   1    -0.01  -0.01   0.03     0.01   0.04  -0.05    -0.00   0.01  -0.04
 105   1     0.01   0.02  -0.02    -0.03  -0.02   0.04    -0.02  -0.04   0.01
 106   1     0.02   0.02  -0.01    -0.04  -0.02   0.03    -0.02  -0.04  -0.03
 107   6    -0.00   0.02  -0.01    -0.01   0.03   0.02    -0.01  -0.06   0.03
 108   6    -0.02   0.02  -0.07     0.03   0.02   0.11     0.03  -0.08   0.11
 109   6    -0.03   0.02  -0.09     0.03   0.02   0.13     0.06  -0.08   0.16
 110   6    -0.01   0.02  -0.05     0.01   0.03   0.07     0.05  -0.06   0.12
 111   7     0.00   0.02   0.00    -0.01   0.04  -0.01     0.02  -0.05   0.06
 112   6     0.01   0.01   0.02    -0.02   0.04  -0.03    -0.01  -0.05   0.01
 113   1    -0.01   0.01  -0.03     0.01   0.00   0.05     0.01  -0.02   0.04
 114   1    -0.01   0.01  -0.04     0.02   0.00   0.06     0.02  -0.03   0.06
 115   1    -0.00   0.01  -0.02     0.01   0.01   0.02     0.02  -0.02   0.04
 116   1     0.00   0.00   0.02    -0.01   0.01  -0.03    -0.01  -0.01  -0.01
 117   6    -0.12  -0.00   0.06    -0.09  -0.04  -0.06    -0.15   0.05   0.07
 118   6    -0.10  -0.00   0.05    -0.07  -0.04  -0.03    -0.12   0.04   0.03
 119   6    -0.05  -0.01   0.02    -0.04  -0.04  -0.02    -0.06   0.04   0.01
 120   6    -0.03  -0.03   0.01    -0.05  -0.03  -0.01    -0.05   0.04   0.01
 121   6     0.04  -0.04  -0.02    -0.01  -0.04  -0.02     0.03   0.03  -0.01
 122   6     0.09  -0.03  -0.04     0.04  -0.05  -0.02     0.10   0.02  -0.02
 123   6     0.06  -0.01  -0.03     0.04  -0.05  -0.02     0.08   0.02  -0.02
 124   6     0.10  -0.01  -0.05     0.07  -0.06  -0.03     0.13   0.01  -0.03
 125   6     0.07   0.02  -0.04     0.06  -0.06  -0.03     0.11   0.02  -0.02
 126   7     0.01   0.03  -0.01     0.03  -0.06  -0.02     0.05   0.03  -0.01
 127   6    -0.02   0.02   0.01     0.00  -0.05  -0.02    -0.00   0.03  -0.00
 128   6    -0.01   0.00  -0.00    -0.00  -0.05  -0.02     0.00   0.03  -0.00
 129   1    -0.02  -0.01   0.01    -0.02  -0.01  -0.00    -0.03   0.01   0.01
 130   1     0.02  -0.02  -0.01    -0.00  -0.01  -0.00     0.01   0.01  -0.00
 131   1     0.04  -0.01  -0.02     0.02  -0.01  -0.01     0.05   0.00  -0.01
 132   1     0.04  -0.00  -0.02     0.03  -0.02  -0.01     0.05   0.00  -0.01
 133   1     0.02   0.01  -0.01     0.02  -0.02  -0.01     0.04   0.00  -0.01
 134   1    -0.02   0.01   0.01    -0.01  -0.01  -0.00    -0.02   0.01   0.00
 135   6    -0.12  -0.00   0.05    -0.10  -0.04  -0.07    -0.14   0.04   0.06
 136   6    -0.15  -0.03   0.03    -0.08  -0.04  -0.07    -0.21   0.02   0.03
 137   6    -0.12  -0.03   0.01    -0.06  -0.04  -0.06    -0.17   0.02   0.03
 138   6    -0.05  -0.00   0.02    -0.05  -0.04  -0.06    -0.06   0.05   0.05
 139   6    -0.02   0.03   0.03    -0.09  -0.04  -0.07     0.01   0.07   0.07
 140   6    -0.06   0.02   0.05    -0.11  -0.04  -0.07    -0.03   0.07   0.08
 141   1    -0.06  -0.02   0.01    -0.02  -0.01  -0.02    -0.09  -0.00   0.00
 142   1    -0.04  -0.02  -0.00    -0.01  -0.01  -0.02    -0.06  -0.00   0.00
 143   1     0.01   0.01   0.01    -0.03  -0.01  -0.02     0.03   0.03   0.02
 144   1    -0.01   0.01   0.02    -0.04  -0.01  -0.02     0.01   0.03   0.03
 145   6     0.01   0.00  -0.00    -0.01  -0.03  -0.05    -0.01   0.05   0.03
 146   6     0.11  -0.00  -0.04     0.03  -0.06  -0.03     0.10   0.06  -0.03
 147   6     0.16   0.00  -0.06     0.07  -0.05  -0.00     0.15   0.05  -0.06
 148   6     0.12   0.01  -0.04     0.07  -0.00   0.01     0.10   0.05  -0.04
 149   7     0.03   0.02   0.00     0.04   0.03  -0.01    -0.00   0.05   0.02
 150   6    -0.03   0.01   0.02    -0.00   0.02  -0.03    -0.05   0.05   0.05
 151   1     0.04  -0.00  -0.02     0.01  -0.03  -0.01     0.04   0.02  -0.02
 152   1     0.07  -0.00  -0.03     0.03  -0.02   0.00     0.07   0.02  -0.03
 153   1     0.04   0.00  -0.02     0.03   0.00   0.01     0.04   0.01  -0.02
 154   1    -0.03   0.01   0.02    -0.01   0.01  -0.01    -0.04   0.01   0.03
                     16                     17                     18
                        a                      a                      a 
 Frequencies --    45.3216                46.8733                55.8987
 Red. masses --    12.6741                12.5099                13.3911
 Frc consts  --     0.0000                 0.0000                 0.0000
 IR Inten    --     0.1570                 0.1119                 0.1072
 Raman Activ --     0.0000                 0.0000                 0.0000
 Depolar     --     0.0000                 0.0000                 0.0000
 Atom AN      X      Y      Z        X      Y      Z        X      Y      Z
   1  46     0.03   0.10  -0.04     0.05  -0.07   0.01     0.03   0.09  -0.04
   2  46    -0.02   0.06  -0.05    -0.00   0.09   0.06     0.03   0.13  -0.01
   3   6    -0.02  -0.01   0.05    -0.02   0.03  -0.05    -0.02   0.00  -0.10
   4   6     0.00  -0.00   0.04    -0.02   0.03  -0.03     0.01   0.02  -0.16
   5   6     0.00   0.00   0.02    -0.01   0.02   0.00     0.01   0.01  -0.14
   6   6    -0.00  -0.00   0.00     0.00   0.02   0.08    -0.00   0.00  -0.19
   7   6    -0.01  -0.00  -0.02     0.01   0.02   0.11     0.00  -0.01  -0.07
   8   6    -0.01   0.00  -0.03     0.00   0.02   0.07     0.03  -0.01   0.10
   9   6    -0.01   0.00  -0.01    -0.02   0.03  -0.00     0.04   0.00   0.12
  10   6    -0.02   0.01  -0.02    -0.02   0.03  -0.04     0.06   0.00   0.27
  11   6    -0.01   0.01  -0.01    -0.03   0.03  -0.08     0.05   0.03   0.22
  12   7    -0.00   0.01   0.00    -0.04   0.04  -0.10     0.03   0.05   0.06
  13   6     0.00   0.01   0.01    -0.03   0.03  -0.08     0.02   0.04  -0.04
  14   6    -0.00   0.00   0.01    -0.02   0.03  -0.03     0.02   0.02  -0.02
  15   1     0.00  -0.00   0.00     0.00   0.00   0.03    -0.01   0.00  -0.09
  16   1    -0.00  -0.00  -0.01     0.01   0.00   0.05    -0.00  -0.01  -0.03
  17   1    -0.01   0.00  -0.01     0.00   0.01   0.03     0.01  -0.01   0.06
  18   1    -0.01   0.00  -0.01    -0.01   0.01  -0.01     0.02  -0.00   0.11
  19   1    -0.00   0.00  -0.00    -0.01   0.01  -0.03     0.02   0.01   0.09
  20   1     0.00   0.00   0.01    -0.01   0.01  -0.03     0.00   0.01  -0.05
  21   6    -0.03  -0.01   0.06    -0.00   0.03  -0.05    -0.03  -0.02  -0.01
  22   6    -0.14  -0.07   0.23     0.00   0.01  -0.03     0.06  -0.01  -0.10
  23   6    -0.14  -0.07   0.22     0.02   0.01  -0.01     0.05  -0.03  -0.02
  24   6    -0.03  -0.02   0.05     0.03   0.03  -0.02    -0.03  -0.04   0.14
  25   6     0.07   0.04  -0.11     0.03   0.06  -0.04    -0.13  -0.05   0.24
  26   6     0.07   0.04  -0.10     0.01   0.06  -0.06    -0.13  -0.04   0.17
  27   1    -0.07  -0.03   0.10    -0.00  -0.00  -0.01     0.04  -0.00  -0.07
  28   1    -0.07  -0.03   0.10     0.00  -0.00   0.00     0.04  -0.01  -0.02
  29   1     0.05   0.02  -0.07     0.01   0.02  -0.01    -0.06  -0.02   0.11
  30   1     0.05   0.02  -0.06     0.00   0.02  -0.02    -0.06  -0.01   0.07
  31   6    -0.02  -0.01   0.02     0.04   0.03   0.02    -0.01  -0.04   0.15
  32   6     0.01  -0.03   0.11     0.04   0.03   0.07     0.01  -0.05   0.16
  33   6     0.02  -0.02   0.06     0.03   0.02   0.10     0.03  -0.04   0.11
  34   6     0.01   0.01  -0.06     0.02   0.02   0.07     0.02   0.00   0.03
  35   7    -0.01   0.04  -0.13     0.03   0.02   0.02     0.01   0.02   0.03
  36   6    -0.02   0.02  -0.09     0.03   0.02  -0.01    -0.00  -0.00   0.10
  37   1     0.01  -0.02   0.06     0.01   0.01   0.03     0.00  -0.02   0.06
  38   1     0.01  -0.01   0.03     0.01   0.01   0.04     0.01  -0.01   0.03
  39   1     0.01   0.01  -0.03     0.01   0.00   0.02     0.01   0.00  -0.01
  40   1    -0.01   0.01  -0.05     0.01   0.01  -0.01    -0.01   0.01   0.03
  41   6     0.10   0.01   0.03    -0.06  -0.01  -0.05    -0.02  -0.02  -0.01
  42   6     0.05   0.01  -0.00    -0.05  -0.01  -0.02    -0.04  -0.01  -0.04
  43   6    -0.01   0.01  -0.02    -0.03  -0.02  -0.00    -0.03  -0.01  -0.04
  44   6    -0.12   0.02  -0.01    -0.03  -0.02  -0.00    -0.05  -0.03  -0.04
  45   6    -0.16   0.02  -0.01     0.01  -0.02  -0.00    -0.02  -0.03  -0.02
  46   6    -0.09   0.02  -0.02     0.05  -0.02   0.00     0.03  -0.03  -0.01
  47   6     0.02   0.01  -0.02     0.04  -0.02  -0.00     0.04  -0.01  -0.02
  48   6     0.10   0.01  -0.03     0.07  -0.01   0.00     0.07   0.00  -0.00
  49   6     0.15   0.01  -0.03     0.06  -0.01   0.00     0.06   0.02  -0.01
  50   7     0.15   0.01  -0.03     0.02  -0.01  -0.00     0.02   0.03  -0.02
  51   6     0.10   0.01  -0.03    -0.00  -0.01  -0.00    -0.01   0.02  -0.03
  52   6     0.05   0.01  -0.02     0.00  -0.01  -0.00    -0.00  -0.00  -0.03
  53   1    -0.05   0.01  -0.00    -0.02  -0.01  -0.00    -0.02  -0.01  -0.01
[...]
  62   6    -0.00   0.00   0.00    -0.00  -0.00  -0.00    -0.00  -0.00  -0.00
  63   6     0.00  -0.00  -0.00     0.00  -0.00  -0.00     0.00  -0.00  -0.00
  64   6     0.00   0.00  -0.00     0.01   0.01  -0.01     0.01   0.01  -0.00
  65   1    -0.01   0.00   0.01     0.01  -0.00  -0.01     0.00  -0.00  -0.00
  66   1    -0.01  -0.01   0.00     0.00   0.00  -0.00     0.00   0.00  -0.00
  67   1    -0.00   0.00   0.00    -0.02   0.01   0.01    -0.01   0.01   0.01
  68   1    -0.01  -0.01   0.00    -0.03  -0.03   0.02    -0.02  -0.03   0.02
  69   6    -0.00  -0.00   0.00     0.00  -0.00  -0.00     0.00  -0.00   0.00
  70   6     0.00  -0.00  -0.00     0.00  -0.00  -0.00     0.00  -0.00  -0.00
  71   6     0.00   0.00  -0.00     0.00   0.00  -0.00     0.00   0.00  -0.00
  72   6     0.00   0.00   0.00    -0.00  -0.00  -0.00     0.00   0.00   0.00
  73   7    -0.00  -0.00   0.00     0.00  -0.00   0.00    -0.00  -0.00   0.00
  74   6     0.00  -0.00   0.00    -0.00  -0.00   0.00     0.00   0.00  -0.00
  75   1    -0.00   0.00   0.01    -0.00   0.00   0.00    -0.00   0.00   0.00
  76   1    -0.00  -0.02   0.01    -0.00  -0.00   0.00    -0.00  -0.01   0.01
  77   1    -0.00  -0.00  -0.00     0.00   0.00   0.00    -0.00  -0.00  -0.00
  78   1     0.00   0.00   0.00     0.00   0.00  -0.00    -0.00  -0.00   0.00
  79   6    -0.00  -0.00  -0.00     0.00   0.00   0.00    -0.00   0.00  -0.00
  80   6    -0.00   0.00   0.00     0.00  -0.00  -0.00     0.00  -0.00   0.00
  81   6     0.00  -0.00  -0.00    -0.00   0.00   0.00     0.00  -0.00  -0.00
  82   6     0.00   0.00  -0.00    -0.00  -0.00   0.00    -0.00  -0.00   0.00
  83   6     0.00  -0.00  -0.00    -0.00   0.00   0.00    -0.00   0.00   0.00
  84   6     0.00  -0.00  -0.00    -0.00   0.00   0.00    -0.00   0.00   0.00
  85   6    -0.00   0.00   0.00     0.00  -0.00  -0.00     0.00   0.00  -0.00
  86   6    -0.00   0.00   0.00     0.00  -0.00  -0.00     0.00  -0.00  -0.00
  87   6     0.00   0.00  -0.00     0.00   0.00  -0.00    -0.00  -0.00   0.00
  88   7     0.00   0.00  -0.00    -0.00   0.00   0.00     0.00  -0.00  -0.00
  89   6    -0.00   0.00   0.00    -0.00   0.00   0.00     0.00  -0.00  -0.00
  90   6     0.00   0.00  -0.00    -0.00   0.00   0.00     0.00  -0.00  -0.00
  91   1    -0.00  -0.00   0.00     0.00   0.00  -0.00     0.00   0.00  -0.00
  92   1    -0.00   0.00   0.00     0.00  -0.00  -0.00     0.00  -0.00  -0.00
  93   1    -0.00   0.00   0.00     0.00  -0.00  -0.00     0.00  -0.00  -0.00
  94   1     0.00  -0.00  -0.00    -0.00   0.00   0.00    -0.00   0.00   0.00
  95   1    -0.00  -0.00   0.00    -0.00  -0.00   0.00     0.00   0.00  -0.00
  96   1     0.00  -0.00   0.00     0.00  -0.00  -0.00    -0.00   0.00   0.00
  97   6     0.00  -0.01  -0.00    -0.00   0.00   0.00     0.00  -0.00  -0.00
  98   6    -0.13  -0.14  -0.10     0.08   0.08   0.06    -0.00  -0.00  -0.00
  99   6    -0.05   0.02  -0.02     0.03  -0.01   0.01    -0.00   0.00  -0.00
 100   6     0.00   0.00   0.00    -0.00  -0.00  -0.00     0.00  -0.00   0.00
 101   6     0.00  -0.00  -0.00     0.00   0.00   0.00    -0.00  -0.00  -0.00
 102   6     0.00  -0.00   0.00    -0.00  -0.00  -0.00    -0.00   0.00  -0.00
 103   1     0.47   0.47   0.33    -0.27  -0.27  -0.19     0.00   0.00   0.00
 104   1     0.15  -0.06   0.06    -0.09   0.03  -0.04     0.00  -0.00   0.00
 105   1     0.00   0.00   0.00    -0.00  -0.00  -0.00     0.00   0.00   0.00
 106   1    -0.01   0.00  -0.01     0.00  -0.00   0.00     0.00  -0.00   0.00
 107   6     0.00   0.00  -0.00     0.00  -0.00   0.00     0.00   0.00   0.00
 108   6    -0.04   0.01   0.02     0.01  -0.00  -0.00    -0.00   0.00   0.00
 109   6    -0.06  -0.08   0.01     0.01   0.02  -0.00    -0.00  -0.00   0.00
 110   6     0.00  -0.01  -0.00    -0.00   0.00   0.00     0.00  -0.00  -0.00
 111   7     0.00   0.00  -0.00    -0.00  -0.00   0.00     0.00   0.00  -0.00
 112   6     0.00   0.00  -0.00     0.00   0.00  -0.00     0.00   0.00  -0.00
 113   1     0.15  -0.02  -0.05    -0.03   0.01   0.01     0.01  -0.00  -0.00
 114   1     0.20   0.27  -0.04    -0.04  -0.05   0.01     0.01   0.01  -0.00
 115   1    -0.00   0.01   0.00     0.00  -0.00  -0.00    -0.00   0.00   0.00
 116   1     0.00  -0.00  -0.00    -0.00  -0.00   0.00    -0.00  -0.00   0.00
 117   6     0.00  -0.00  -0.00     0.00  -0.00  -0.00     0.00   0.00   0.00
 118   6    -0.00   0.00  -0.00    -0.00   0.00  -0.00     0.00   0.00   0.00
 119   6     0.00  -0.00   0.00     0.00  -0.00   0.00    -0.00  -0.00   0.00
 120   6     0.00   0.00   0.00     0.00   0.00   0.00    -0.00  -0.00  -0.00
 121   6     0.00  -0.00   0.00     0.00  -0.00   0.00    -0.00  -0.00  -0.00
 122   6     0.00   0.00  -0.00    -0.00  -0.00   0.00    -0.00  -0.00   0.00
 123   6    -0.00   0.00  -0.00    -0.00   0.00  -0.00    -0.00  -0.00   0.00
 124   6     0.00   0.00  -0.00     0.00   0.00  -0.00    -0.00  -0.00   0.00
 125   6     0.00   0.00   0.00    -0.00  -0.00  -0.00    -0.00  -0.00  -0.00
 126   7     0.00  -0.00   0.00     0.00   0.00   0.00    -0.00   0.00  -0.00
 127   6    -0.00  -0.00  -0.00    -0.00  -0.00  -0.00    -0.00  -0.00   0.00
 128   6    -0.00  -0.00   0.00     0.00   0.00   0.00     0.00   0.00  -0.00
 129   1    -0.00  -0.00  -0.00    -0.00  -0.00  -0.00     0.00   0.00   0.00
 130   1    -0.00   0.00  -0.00    -0.00   0.00  -0.00     0.00  -0.00   0.00
 131   1    -0.00  -0.00   0.00     0.00   0.00  -0.00     0.00   0.00  -0.00
 132   1    -0.00  -0.00   0.00    -0.00  -0.00   0.00     0.00   0.01  -0.00
 133   1    -0.00  -0.00  -0.00     0.00   0.00   0.00     0.00   0.00   0.00
 134   1     0.00   0.00   0.00    -0.00   0.00   0.00     0.00   0.00  -0.00
 135   6     0.00  -0.00   0.00     0.00  -0.01   0.00     0.00  -0.00   0.00
 136   6     0.03  -0.07  -0.09     0.07  -0.14  -0.18     0.00  -0.00  -0.00
 137   6     0.01   0.01  -0.03     0.02   0.03  -0.06     0.00   0.00  -0.00
 138   6    -0.00   0.00   0.00    -0.00   0.00   0.00     0.00   0.00   0.00
 139   6    -0.00  -0.00   0.00    -0.00   0.00   0.00     0.00  -0.00  -0.00
 140   6    -0.00  -0.00   0.00    -0.00  -0.00   0.00     0.00   0.00  -0.00
 141   1    -0.12   0.23   0.31    -0.24   0.47   0.62    -0.00   0.01   0.01
 142   1    -0.02  -0.04   0.10    -0.05  -0.09   0.19    -0.00  -0.00   0.00
 143   1    -0.00   0.00   0.00     0.00  -0.00  -0.00    -0.00   0.00   0.00
 144   1     0.00   0.00  -0.01     0.00   0.00  -0.01    -0.00  -0.00   0.00
 145   6     0.00   0.00   0.00     0.00   0.00  -0.00     0.00   0.00  -0.00
 146   6    -0.01   0.00  -0.01    -0.00   0.00  -0.01    -0.00   0.00  -0.00
 147   6    -0.01  -0.03  -0.02    -0.01  -0.01  -0.01    -0.00  -0.00  -0.00
 148   6     0.00  -0.00   0.00     0.00  -0.00   0.00     0.00  -0.00   0.00
 149   7     0.00   0.00   0.00     0.00   0.00   0.00     0.00   0.00   0.00
 150   6    -0.00  -0.00  -0.00    -0.00  -0.00  -0.00    -0.00  -0.00   0.00
 151   1     0.03  -0.01   0.05     0.01  -0.01   0.03     0.00  -0.00   0.00
 152   1     0.04   0.10   0.08     0.02   0.04   0.03     0.00   0.01   0.01
 153   1    -0.00   0.01  -0.00    -0.00   0.00  -0.00    -0.00   0.00  -0.00
 154   1     0.00   0.00   0.00     0.00   0.00   0.00     0.00   0.00   0.00
                    454                    455                    456
                        a                      a                      a 
 Frequencies --  3119.5530              3119.7813              3119.9429
 Red. masses --     1.8798                 1.8869                 1.8836
 Frc consts  --     0.0000                 0.0000                 0.0000
 IR Inten    --     0.1439                 0.0620                 0.0809
 Raman Activ --     0.0000                 0.0000                 0.0000
 Depolar     --     0.0000                 0.0000                 0.0000
 Atom AN      X      Y      Z        X      Y      Z        X      Y      Z
   1  46    -0.00  -0.00   0.00     0.00   0.00  -0.00    -0.00  -0.00   0.00
   2  46    -0.00   0.00   0.00     0.00   0.00  -0.00     0.00   0.00  -0.00
   3   6    -0.00  -0.00  -0.00     0.00   0.00   0.00    -0.00  -0.00  -0.00
   4   6    -0.00   0.00   0.00     0.00  -0.00  -0.00    -0.00   0.00   0.00
   5   6     0.00  -0.00  -0.00    -0.00   0.00   0.00     0.00  -0.00  -0.00
   6   6     0.00   0.00  -0.00    -0.00  -0.00   0.00     0.00   0.00  -0.00
   7   6     0.00  -0.00  -0.00    -0.00   0.00   0.00     0.00  -0.00  -0.00
   8   6     0.00  -0.00  -0.00    -0.00   0.00   0.00     0.00  -0.00  -0.00
   9   6    -0.00   0.00   0.00     0.00  -0.00  -0.00    -0.00   0.00   0.00
  10   6    -0.00   0.00   0.00    -0.00   0.00   0.00    -0.00   0.00   0.00
  11   6    -0.00  -0.00   0.00     0.00  -0.00  -0.00     0.00   0.00  -0.00
  12   7     0.00  -0.00  -0.00    -0.00  -0.00  -0.00     0.00   0.00  -0.00
  13   6     0.00  -0.00  -0.00    -0.00   0.00   0.00    -0.00  -0.00   0.00
  14   6     0.00  -0.00  -0.00    -0.00   0.00   0.00    -0.00  -0.00   0.00
  15   1    -0.00  -0.00   0.00     0.00   0.00  -0.00    -0.00  -0.00   0.00
  16   1    -0.00   0.00   0.00     0.00  -0.00  -0.00    -0.00   0.00   0.00
  17   1    -0.00   0.00   0.00     0.00  -0.00  -0.00    -0.00   0.00   0.00
  18   1     0.00  -0.00  -0.00     0.00  -0.00  -0.00     0.00  -0.00  -0.00
  19   1     0.00   0.00  -0.00     0.00   0.00  -0.00    -0.00  -0.00   0.00
  20   1    -0.00   0.00   0.00     0.00  -0.00  -0.00    -0.00   0.00  -0.00
  21   6     0.00  -0.00  -0.00    -0.00   0.00   0.00     0.00  -0.00  -0.00
  22   6     0.00  -0.00   0.00    -0.00  -0.00  -0.00     0.00   0.00   0.00
  23   6     0.00   0.00   0.00    -0.00   0.00  -0.00     0.00  -0.00   0.00
  24   6    -0.00   0.00   0.00     0.00  -0.00  -0.00    -0.00   0.00   0.00
  25   6    -0.09   0.04  -0.05     0.09  -0.04   0.05    -0.08   0.04  -0.04
  26   6    -0.07  -0.07  -0.07     0.07   0.07   0.07    -0.06  -0.06  -0.06
  27   1    -0.01   0.00  -0.00     0.00  -0.00   0.00    -0.00   0.00  -0.00
  28   1    -0.01  -0.00  -0.01     0.00   0.00   0.00    -0.00   0.00  -0.00
  29   1     0.31  -0.14   0.17    -0.31   0.14  -0.17     0.27  -0.12   0.15
  30   1     0.23   0.24   0.25    -0.22  -0.23  -0.25     0.20   0.21   0.22
  31   6     0.00   0.00  -0.00    -0.00  -0.00   0.00    -0.00   0.00  -0.00
  32   6    -0.02   0.00   0.00     0.02  -0.00  -0.00    -0.01   0.00   0.00
  33   6    -0.03  -0.03  -0.00     0.02   0.03   0.00    -0.01  -0.02  -0.00
  34   6     0.00  -0.00  -0.00    -0.00   0.00   0.00     0.00  -0.00  -0.00
  35   7     0.00   0.00   0.00    -0.00  -0.00  -0.00     0.00   0.00  -0.00
  36   6    -0.00  -0.00   0.00     0.00   0.00  -0.00    -0.00  -0.00   0.00
  37   1     0.06  -0.01  -0.01    -0.05   0.01   0.01     0.04  -0.01  -0.01
  38   1     0.10   0.11   0.00    -0.08  -0.09  -0.00     0.05   0.05   0.00
  39   1    -0.00   0.01   0.00     0.00  -0.00  -0.00    -0.00   0.00   0.00
  40   1     0.00   0.00   0.00    -0.00  -0.00  -0.00     0.00   0.00   0.00
  41   6    -0.00  -0.00   0.00    -0.00  -0.00   0.00     0.00   0.00  -0.00
  42   6     0.00   0.00   0.00     0.00   0.00   0.00    -0.00  -0.00  -0.00
  43   6     0.00  -0.00  -0.00     0.00  -0.00  -0.00    -0.00   0.00   0.00
  44   6    -0.00   0.00  -0.00    -0.00   0.00  -0.00     0.00  -0.00   0.00
  45   6    -0.00  -0.00  -0.00     0.00   0.00   0.00     0.00   0.00   0.00
  46   6    -0.00  -0.00  -0.00     0.00   0.00   0.00     0.00   0.00   0.00
  47   6    -0.00   0.00   0.00     0.00   0.00   0.00    -0.00  -0.00  -0.00
  48   6    -0.00  -0.00  -0.00     0.00   0.00   0.00    -0.00  -0.00  -0.00
  49   6    -0.00  -0.00   0.00    -0.00   0.00  -0.00     0.00  -0.00   0.00
  50   7    -0.00  -0.00  -0.00     0.00  -0.00  -0.00     0.00  -0.00   0.00
  51   6    -0.00  -0.00   0.00     0.00   0.00   0.00    -0.00  -0.00  -0.00
  52   6    -0.00  -0.00  -0.00    -0.00  -0.00   0.00     0.00   0.00   0.00
  53   1     0.00  -0.00   0.00     0.00  -0.00   0.00    -0.00   0.00  -0.00
  54   1     0.00   0.00   0.00    -0.00  -0.00  -0.00    -0.00  -0.00  -0.00
  55   1     0.00   0.00   0.00    -0.00  -0.00  -0.00    -0.00  -0.00  -0.00
  56   1     0.00   0.00   0.00    -0.00  -0.00  -0.00     0.00   0.00   0.00
  57   1    -0.00   0.00  -0.00     0.00  -0.00   0.00    -0.00   0.00  -0.00
  58   1     0.00   0.00   0.00    -0.00  -0.00  -0.00     0.00   0.00   0.00
  59   6     0.00  -0.01  -0.00     0.00  -0.00  -0.00    -0.00   0.00   0.00
  60   6     0.00   0.00  -0.00     0.00  -0.00  -0.00    -0.00  -0.00   0.00
  61   6     0.00   0.00  -0.00     0.00   0.00  -0.00    -0.00   0.00   0.00
  62   6     0.00   0.00  -0.00     0.00   0.00  -0.00    -0.00  -0.00  -0.00
  63   6    -0.07   0.03   0.06    -0.02   0.01   0.02     0.05  -0.02  -0.05
  64   6    -0.11  -0.13   0.08    -0.04  -0.05   0.03     0.09   0.10  -0.06
  65   1    -0.01   0.00   0.01    -0.00   0.00   0.00     0.01  -0.00  -0.01
  66   1    -0.00  -0.00   0.00    -0.00  -0.01   0.00    -0.00  -0.00   0.00
  67   1     0.23  -0.09  -0.21     0.08  -0.03  -0.07    -0.18   0.07   0.17
  68   1     0.39   0.45  -0.27     0.14   0.16  -0.10    -0.30  -0.34   0.20
  69   6    -0.00  -0.00   0.00    -0.00  -0.00   0.00    -0.00  -0.00   0.00
  70   6     0.00  -0.00  -0.02     0.00  -0.01  -0.07     0.00  -0.01  -0.06
  71   6     0.00   0.04  -0.03     0.02   0.16  -0.12     0.01   0.13  -0.10
  72   6     0.00   0.00   0.00     0.00   0.01   0.01     0.00   0.01   0.01
  73   7    -0.00  -0.00   0.00    -0.00  -0.00   0.00    -0.00  -0.00   0.00
  74   6     0.00  -0.00   0.00     0.00  -0.00   0.00    -0.00  -0.00   0.00
  75   1    -0.00   0.01   0.06    -0.02   0.03   0.24    -0.01   0.03   0.21
  76   1    -0.02  -0.15   0.11    -0.06  -0.54   0.41    -0.05  -0.44   0.34
  77   1    -0.00  -0.01  -0.00    -0.00  -0.03  -0.01    -0.00  -0.02  -0.01
  78   1     0.00   0.00  -0.00     0.00  -0.00   0.00    -0.00  -0.00   0.00
  79   6     0.00  -0.00   0.00    -0.00  -0.00  -0.00     0.00   0.00   0.00
  80   6     0.00  -0.00  -0.00    -0.00   0.00   0.00     0.00  -0.00  -0.00
  81   6     0.00  -0.00   0.00     0.00  -0.00  -0.00    -0.00   0.00   0.00
  82   6    -0.00  -0.00   0.00    -0.00  -0.00   0.00     0.00   0.00  -0.00
  83   6    -0.00   0.00   0.00    -0.00   0.00   0.00     0.00  -0.00  -0.00
  84   6    -0.00   0.00   0.00    -0.00   0.00   0.00     0.00  -0.00  -0.00
  85   6    -0.00   0.00   0.00     0.00   0.00  -0.00     0.00  -0.00  -0.00
  86   6    -0.00   0.00   0.00    -0.00   0.00   0.00     0.00  -0.00  -0.00
  87   6    -0.00  -0.00   0.00     0.00   0.00  -0.00    -0.00  -0.00   0.00
  88   7     0.00  -0.00  -0.00    -0.00   0.00   0.00     0.00  -0.00  -0.00
  89   6     0.00  -0.00  -0.00     0.00  -0.00  -0.00     0.00  -0.00   0.00
  90   6     0.00  -0.00  -0.00    -0.00  -0.00   0.00     0.00   0.00  -0.00
  91   1     0.00   0.00  -0.00     0.00   0.00  -0.00    -0.00  -0.00   0.00
  92   1     0.00  -0.00  -0.00     0.00  -0.00  -0.00    -0.00   0.00   0.00
  93   1     0.00  -0.00  -0.00     0.00  -0.00  -0.00    -0.00   0.00   0.00
  94   1     0.00  -0.00  -0.00     0.00  -0.00  -0.00    -0.00   0.00   0.00
  95   1     0.00   0.00  -0.00    -0.00  -0.00   0.00     0.00   0.00  -0.00
  96   1    -0.00   0.00   0.00    -0.00   0.00   0.00     0.00   0.00   0.00
  97   6    -0.00   0.00   0.00     0.00  -0.00  -0.00    -0.00   0.00   0.00
  98   6     0.01   0.01   0.01    -0.00  -0.00  -0.00     0.00   0.00   0.00
  99   6     0.00  -0.00   0.00    -0.00   0.00  -0.00     0.00  -0.00   0.00
 100   6    -0.00  -0.00  -0.00     0.00   0.00   0.00     0.00  -0.00  -0.00
 101   6    -0.00   0.00   0.00    -0.00  -0.00  -0.00    -0.00  -0.00  -0.00
 102   6    -0.00  -0.00  -0.00     0.00   0.00   0.00    -0.00   0.00  -0.00
 103   1    -0.03  -0.03  -0.02     0.02   0.02   0.01    -0.01  -0.01  -0.01
 104   1    -0.01   0.00  -0.00     0.01  -0.00   0.00    -0.01   0.00  -0.00
 105   1    -0.00  -0.00  -0.00     0.00   0.00   0.00     0.00   0.00   0.00
 106   1     0.00  -0.00   0.00     0.00  -0.00   0.00     0.00  -0.00   0.00
 107   6     0.00   0.00   0.00    -0.00  -0.00   0.00    -0.00  -0.00  -0.00
 108   6     0.00   0.00  -0.00     0.00  -0.00  -0.00     0.00  -0.00  -0.00
 109   6     0.00   0.00  -0.00     0.00   0.00  -0.00     0.01   0.01  -0.00
 110   6    -0.00   0.00   0.00    -0.00   0.00   0.00    -0.00   0.00   0.00
 111   7     0.00   0.00  -0.00    -0.00  -0.00  -0.00    -0.00  -0.00   0.00
 112   6     0.00   0.00  -0.00     0.00   0.00  -0.00    -0.00  -0.00  -0.00
 113   1    -0.00   0.00   0.00    -0.01   0.00   0.00    -0.02   0.00   0.01
 114   1    -0.00  -0.00   0.00    -0.01  -0.01   0.00    -0.02  -0.03   0.00
 115   1     0.00  -0.00  -0.00     0.00  -0.00  -0.00     0.00  -0.00  -0.00
 116   1    -0.00  -0.00   0.00    -0.00  -0.00   0.00     0.00   0.00  -0.00
 117   6    -0.00  -0.00  -0.00     0.00  -0.00   0.00    -0.00   0.00  -0.00
 118   6    -0.00  -0.00  -0.00     0.00   0.00   0.00    -0.00  -0.00  -0.00
 119   6     0.00   0.00   0.00    -0.00  -0.00   0.00     0.00   0.00  -0.00
 120   6    -0.00  -0.00  -0.00    -0.00  -0.00  -0.00    -0.00  -0.00  -0.00
 121   6    -0.00   0.00  -0.00    -0.00   0.00  -0.00     0.00  -0.00   0.00
 122   6     0.00   0.00  -0.00     0.00   0.00  -0.00    -0.00  -0.00   0.00
 123   6     0.00   0.00   0.00    -0.00   0.00  -0.00     0.00  -0.00   0.00
 124   6    -0.00  -0.00  -0.00     0.00   0.00  -0.00    -0.00  -0.00   0.00
 125   6    -0.00  -0.00  -0.00     0.00   0.00   0.00    -0.00  -0.00  -0.00
 126   7    -0.00  -0.00  -0.00     0.00   0.00   0.00    -0.00  -0.00  -0.00
 127   6     0.00   0.00  -0.00    -0.00  -0.00   0.00     0.00   0.00  -0.00
 128   6     0.00  -0.00   0.00    -0.00   0.00  -0.00     0.00  -0.00   0.00
 129   1     0.00   0.00   0.00     0.00   0.00   0.00     0.00   0.00   0.00
 130   1     0.00  -0.00   0.00     0.00  -0.00   0.00    -0.00   0.00  -0.00
 131   1    -0.00  -0.00   0.00    -0.00  -0.00   0.00     0.00   0.00  -0.00
 132   1     0.00   0.00  -0.00    -0.00  -0.00   0.00     0.00   0.00  -0.00
 133   1    -0.00  -0.00   0.00    -0.00  -0.00  -0.00     0.00   0.00   0.00
 134   1     0.00  -0.00   0.00    -0.00   0.00  -0.00     0.00  -0.00   0.00
 135   6    -0.00   0.00  -0.00     0.00  -0.00   0.00    -0.00   0.00  -0.00
 136   6    -0.00   0.00   0.00     0.00  -0.01  -0.01    -0.01   0.01   0.02
 137   6    -0.00  -0.00   0.00     0.00   0.00  -0.00    -0.00  -0.00   0.01
 138   6    -0.00  -0.00  -0.00     0.00   0.00   0.00     0.00  -0.00  -0.00
 139   6     0.00  -0.00  -0.00     0.00  -0.00  -0.00     0.00  -0.00  -0.00
 140   6     0.00   0.00  -0.00     0.00   0.00  -0.00     0.00   0.00  -0.00
 141   1     0.00  -0.01  -0.01    -0.02   0.03   0.04     0.02  -0.04  -0.05
 142   1     0.00   0.00  -0.00    -0.00  -0.01   0.01     0.01   0.01  -0.02
 143   1    -0.00   0.00   0.00    -0.00   0.00   0.00    -0.00   0.00   0.00
 144   1    -0.00  -0.00   0.00    -0.00  -0.00   0.00    -0.00  -0.00   0.00
 145   6     0.00   0.00   0.00     0.00   0.00  -0.00    -0.00  -0.00   0.00
 146   6    -0.00   0.00  -0.00    -0.00   0.00  -0.00     0.00  -0.00   0.00
 147   6    -0.00  -0.00  -0.00    -0.00  -0.00  -0.00     0.00   0.00   0.00
 148   6     0.00  -0.00   0.00     0.00  -0.00   0.00    -0.00   0.00  -0.00
 149   7     0.00   0.00   0.00     0.00  -0.00   0.00     0.00   0.00   0.00
 150   6     0.00   0.00   0.00    -0.00   0.00   0.00     0.00   0.00   0.00
 151   1     0.00  -0.00   0.00     0.00  -0.00   0.00    -0.00   0.00  -0.01
 152   1     0.00   0.00   0.00     0.00   0.01   0.00    -0.00  -0.01  -0.01
 153   1    -0.00   0.00  -0.00    -0.00   0.00  -0.00     0.00  -0.00   0.00
 154   1    -0.00  -0.00  -0.00     0.00   0.00  -0.00    -0.00  -0.00  -0.00
