 Entering Gaussian System
 *********************************************
 Gaussian 98:
 frequency output generated by the xtb code
 *********************************************
                         Standard orientation:
 --------------------------------------------------------------------
  Center     Atomic     Atomic              Coordinates (Angstroms)
  Number     Number      Type              X           Y           Z
 --------------------------------------------------------------------
    1         46             0        0.025220    3.819000    0.112893
    2         46             0        0.952462   -7.675904    0.737210
    3          6             0        7.005489   -2.716535    0.826780
    4          6             0        6.847383   -3.913434    0.899483
    5          6             0        6.643976   -5.298433    1.049386
    6          6             0        7.693273   -6.133638    1.392384
    7          6             0        7.488566   -7.502136    1.602387
    8          6             0        6.238263   -8.053730    1.490792
    9          6             0        5.142866   -7.237625    1.135995
   10          6             0        3.832863   -7.739618    1.025500
   11          7             0        2.810466   -6.986314    0.678902
   12          6             0        2.996572   -5.672115    0.399599
   13          6             0        4.223575   -5.080921    0.503494
   14          6             0        5.340472   -5.848526    0.891092
   15          1             0        8.683775   -5.719543    1.505180
   16          1             0        8.332064   -8.121540    1.866085
   17          1             0        6.082858   -9.105629    1.670095
   18          1             0        3.631058   -8.787917    1.234203
   19          1             0        2.108473   -5.125211    0.090102
   20          1             0        4.358180   -4.031922    0.293592
   21          6             0        7.174696   -1.317236    0.806777
   22          6             0        8.417300   -0.762042    1.201072
   23          6             0        8.577707    0.591457    1.258469
   24          6             0        7.515511    1.462862    0.930971
   25          6             0        7.634519    2.864762    1.023168
   26          6             0        6.584822    3.682267    0.715971
   27          6             0        5.350917    3.143372    0.282676
   28          6             0        5.215610    1.776873    0.176579
   29          6             0        6.277107    0.910668    0.505776
   30          6             0        6.131699   -0.488331    0.449579
   31          1             0        9.228798   -1.424746    1.462270
   32          1             0        9.522211    1.016353    1.566165
   33          1             0        8.573422    3.285057    1.352764
   34          1             0        6.690928    4.749966    0.829168
   35          1             0        4.300406    1.339677   -0.190517
   36          1             0        5.188896   -0.909227    0.136283
   37          6             0        4.236921    4.044478   -0.041322
   38          6             0        4.449326    5.300976   -0.619325
   39          6             0        3.370629    6.126681   -0.887222
   40          6             0        2.092928    5.681588   -0.594217
   41          7             0        1.884923    4.476290   -0.060314
   42          6             0        2.915820    3.680385    0.219683
   43          1             0        5.448826    5.619370   -0.870429
   44          1             0        3.519333    7.100179   -1.325725
   45          1             0        1.213630    6.293192   -0.785415
   46          1             0        2.673917    2.727687    0.686686
   47          6             0        0.914509   -2.880193    6.917702
   48          6             0        0.991902   -4.072693    6.730804
   49          6             0        1.149194   -5.451695    6.494306
   50          6             0        1.479093   -6.312595    7.526806
   51          6             0        1.697985   -7.674496    7.290007
   52          6             0        1.609678   -8.193398    6.024009
   53          6             0        1.269079   -7.350398    4.944608
   54          6             0        1.183872   -7.817800    3.620010
   55          7             0        0.849572   -7.039700    2.612309
   56          6             0        0.557880   -5.732798    2.828708
   57          6             0        0.638687   -5.173596    4.072307
   58          6             0        1.013487   -5.968196    5.174607
   59          1             0        1.574399   -5.923993    8.529505
   60          1             0        1.950485   -8.314796    8.121308
   61          1             0        1.796572   -9.239999    5.844010
   62          1             0        1.402865   -8.859101    3.394111
   63          1             0        0.258380   -5.164398    1.950608
   64          1             0        0.420293   -4.129795    4.231106
   65          6             0        0.891117   -1.485492    7.120699
   66          6             0        1.306524   -0.958692    8.368697
   67          6             0        1.362232    0.390708    8.560595
   68          6             0        1.011533    1.286108    7.526194
   69          6             0        1.101041    2.685108    7.677191
   70          6             0        0.770142    3.526408    6.653891
   71          6             0        0.314435    3.015608    5.416094
   72          6             0        0.211227    1.652408    5.249696
   73          6             0        0.564526    0.762108    6.283097
   74          6             0        0.511118   -0.633192    6.104899
   75          1             0        1.585423   -1.639692    9.158997
   76          1             0        1.686437    0.794108    9.509093
   77          1             0        1.447446    3.083907    8.619390
   78          1             0        0.881448    4.591707    6.783489
   79          1             0       -0.172378    1.235808    4.331498
   80          1             0        0.180813   -1.032492    5.158601
   81          6             0       -0.036464    3.941908    4.331293
   82          6             0       -0.615957    5.189711    4.586193
   83          6             0       -0.911256    6.039611    3.533793
   84          6             0       -0.643763    5.626807    2.239592
   85          7             0       -0.107970    4.430004    1.991393
   86          6             0        0.198329    3.611204    2.996493
   87          1             0       -0.847052    5.482714    5.598193
   88          1             0       -1.351250    7.006814    3.715192
   89          1             0       -0.856962    6.258207    1.379492
   90          1             0        0.664823    2.667301    2.721793
   91          6             0       -6.029906   -1.133968    0.073823
   92          6             0       -5.874400    0.064631    0.025920
   93          6             0       -5.674693    1.452830   -0.097183
   94          6             0       -6.731689    2.295035   -0.396581
   95          6             0       -6.531683    3.667733   -0.581884
   96          6             0       -5.278680    4.216727   -0.490089
   97          6             0       -4.175183    3.393322   -0.179891
   98          6             0       -2.862280    3.892515   -0.093197
   99          7             0       -1.832183    3.132310    0.213101
  100          6             0       -2.012589    1.813211    0.472704
  101          6             0       -3.242092    1.224418    0.387109
  102          6             0       -4.367589    1.999623    0.041612
  103          1             0       -7.724792    1.883340   -0.494076
  104          1             0       -7.381180    4.292737   -0.810982
  105          1             0       -5.127075    5.272226   -0.651091
  106          1             0       -2.664975    4.944513   -0.286899
  107          1             0       -1.117791    1.260207    0.750502
  108          1             0       -3.372297    0.171519    0.579611
  109          6             0       -6.196713   -2.533567    0.062126
  110          6             0       -7.434117   -3.081662   -0.357669
  111          6             0       -7.591425   -4.433661   -0.447666
  112          6             0       -6.531328   -5.310666   -0.128468
  113          6             0       -6.646836   -6.710266   -0.254065
  114          6             0       -5.599439   -7.533071    0.047033
  115          6             0       -4.371735   -7.002376    0.507127
  116          6             0       -4.239827   -5.638377    0.645125
  117          6             0       -5.298724   -4.766372    0.323027
  118          6             0       -5.156216   -3.368772    0.412024
  119          1             0       -8.243915   -2.414358   -0.612567
  120          1             0       -8.531828   -4.852957   -0.775262
  121          1             0       -7.581139   -7.124261   -0.603961
  122          1             0       -5.702445   -8.598070   -0.091565
  123          1             0       -3.329624   -5.208281    1.032821
  124          1             0       -4.217813   -2.953777    0.745620
  125          6             0       -3.260739   -7.908981    0.825825
  126          6             0       -3.479043   -9.177579    1.374428
  127          6             0       -2.402947  -10.007385    1.639926
  128          6             0       -1.121945   -9.554392    1.374121
  129          7             0       -0.908641   -8.338094    0.868018
  130          6             0       -1.936837   -7.537889    0.590320
  131          1             0       -4.481444   -9.502474    1.604932
  132          1             0       -2.556050  -10.989983    2.055928
  133          1             0       -0.244248  -10.168596    1.564819
  134          1             0       -1.689934   -6.575391    0.146717
  135          6             0        0.018274   -0.984411   -6.065798
  136          6             0       -0.084919    0.205690   -5.875900
  137          6             0       -0.269411    1.580592   -5.635602
  138          6             0       -0.642111    2.433092   -6.660502
  139          6             0       -0.886003    3.789993   -6.419104
  140          6             0       -0.779095    4.311995   -5.155805
  141          6             0       -0.394796    3.477695   -4.084305
  142          6             0       -0.287189    3.948597   -2.762706
  143          7             0        0.086710    3.178696   -1.762506
  144          6             0        0.398403    1.877394   -1.984405
  145          6             0        0.300396    1.315293   -3.225503
  146          6             0       -0.115504    2.100893   -4.319403
  147          1             0       -0.751716    2.041691   -7.660601
  148          1             0       -1.172102    4.423693   -7.244404
  149          1             0       -0.984389    5.354496   -4.972006
  150          1             0       -0.521383    4.985598   -2.532407
  151          1             0        0.728703    1.316094   -1.112905
  152          1             0        0.536290    0.275991   -3.388602
  153          6             0        0.073866   -2.377711   -6.271696
  154          6             0       -0.313942   -2.910811   -7.525894
  155          6             0       -0.336849   -4.260612   -7.721291
  156          6             0        0.020550   -5.150312   -6.684291
  157          6             0       -0.035658   -6.550712   -6.839188
  158          6             0        0.299941   -7.386712   -5.813088
  159          6             0        0.727148   -6.868812   -4.568091
  160          6             0        0.798256   -5.504012   -4.397893
  161          6             0        0.439457   -4.619512   -5.434393
  162          6             0        0.459865   -3.223712   -5.252896
  163          1             0       -0.598041   -2.234411   -8.318294
  164          1             0       -0.639655   -4.669012   -8.674690
  165          1             0       -0.360364   -6.955012   -7.786787
  166          1             0        0.213935   -8.453911   -5.946286
  167          1             0        1.159961   -5.081012   -3.473795
  168          1             0        0.768370   -2.819412   -4.301398
  169          6             0        1.081847   -7.789612   -3.479790
  170          6             0        1.690440   -9.024815   -3.728190
  171          6             0        1.986739   -9.870815   -2.672890
  172          6             0        1.691246   -9.466311   -1.382289
  173          7             0        1.128153   -8.281008   -1.139989
  174          6             0        0.820653   -7.466308   -2.148190
  175          1             0        1.942735   -9.311018   -4.737091
  176          1             0        2.448933  -10.828618   -2.849390
  177          1             0        1.904045  -10.095111   -0.520289
  178          1             0        0.330959   -6.532705   -1.878790
 --------------------------------------------------------------------
     1 basis functions        1 primitive gaussians
     1 alpha electrons        1 beta electrons
 
 Harmonic frequencies (cm**-1), IR intensities (KM/Mole),
 Raman scattering activities (A**4/amu), Raman depolarization ratios,
 reduced masses (AMU), force constants (mDyne/A) and normal coordinates:
                      1                      2                      3
                        a                      a                      a 
 Frequencies --     6.5630                 7.3421                 8.2913
 Red. masses --    11.3094                11.6335                17.7275
 Frc consts  --     0.0000                 0.0000                 0.0000
 IR Inten    --     0.0537                 0.0867                 0.6142
 Raman Activ --     0.0000                 0.0000                 0.0000
 Depolar     --     0.0000                 0.0000                 0.0000
 Atom AN      X      Y      Z        X      Y      Z        X      Y      Z
   1  46     0.01  -0.00  -0.02     0.00  -0.00  -0.03     0.17   0.01  -0.08
   2  46     0.01   0.00  -0.02     0.04   0.00  -0.00     0.16   0.01  -0.08
   3   6    -0.00   0.01   0.06     0.00   0.01   0.13     0.05   0.00   0.03
   4   6    -0.01   0.01   0.09     0.00   0.00   0.12     0.05   0.00   0.03
   5   6    -0.01   0.01   0.11     0.00   0.00   0.11     0.05   0.00   0.02
   6   6    -0.02   0.02   0.17    -0.00   0.00   0.13     0.05  -0.00   0.03
   7   6    -0.03   0.03   0.19    -0.01   0.00   0.11     0.05  -0.00   0.02
   8   6    -0.02   0.02   0.17    -0.00  -0.00   0.08     0.05  -0.00   0.01
   9   6    -0.01   0.02   0.12     0.01  -0.00   0.06     0.05   0.00   0.00
  10   6    -0.01   0.01   0.09     0.01  -0.00   0.03     0.05   0.00  -0.01
  11   7     0.00   0.00   0.04     0.02  -0.00   0.01     0.06   0.00  -0.02
  12   6     0.01  -0.00   0.02     0.02  -0.00   0.02     0.06   0.00  -0.02
  13   6     0.01   0.00   0.04     0.01  -0.00   0.05     0.06   0.00  -0.00
  14   6    -0.01   0.01   0.09     0.01   0.00   0.07     0.05   0.00   0.01
  15   1    -0.01   0.01   0.05    -0.00   0.00   0.04     0.01  -0.00   0.01
  16   1    -0.01   0.01   0.07    -0.00   0.00   0.04     0.01  -0.00   0.01
  17   1    -0.01   0.01   0.05    -0.00  -0.00   0.02     0.01  -0.00   0.00
  18   1    -0.00   0.00   0.03     0.00  -0.00   0.00     0.01   0.00  -0.00
  19   1     0.00  -0.00  -0.01     0.01  -0.00   0.00     0.02   0.00  -0.01
  20   1     0.00  -0.00   0.01     0.00   0.00   0.02     0.02   0.00   0.00
  21   6     0.00   0.01   0.02    -0.00   0.01   0.14     0.05   0.00   0.04
  22   6     0.01   0.01  -0.01    -0.02   0.01   0.17     0.05   0.00   0.05
  23   6     0.01   0.02  -0.04    -0.02   0.01   0.18     0.04   0.00   0.06
  24   6     0.01   0.01  -0.06    -0.02   0.01   0.15     0.05   0.00   0.04
  25   6     0.01   0.01  -0.10    -0.02   0.01   0.15     0.04   0.00   0.05
  26   6     0.01   0.01  -0.10    -0.02   0.00   0.12     0.05   0.00   0.03
  27   6     0.00  -0.00  -0.07    -0.00   0.00   0.08     0.05  -0.00   0.02
  28   6    -0.00  -0.01  -0.04     0.00  -0.00   0.08     0.06  -0.00   0.02
  29   6     0.00   0.00  -0.03    -0.00   0.00   0.11     0.05   0.00   0.03
  30   6    -0.00  -0.00   0.01     0.00   0.00   0.11     0.06  -0.00   0.03
  31   1     0.00   0.01   0.00    -0.01   0.00   0.06     0.01   0.00   0.02
  32   1     0.00   0.01  -0.02    -0.01   0.00   0.06     0.01   0.00   0.02
  33   1     0.00   0.01  -0.03    -0.01   0.00   0.05     0.01   0.00   0.02
  34   1     0.00   0.00  -0.04    -0.01   0.00   0.03     0.01   0.00   0.01
  35   1    -0.00  -0.00  -0.00     0.00  -0.00   0.02     0.02  -0.00   0.00
  36   1    -0.00  -0.00   0.01     0.00  -0.00   0.02     0.02  -0.00   0.00
  37   6     0.00  -0.01  -0.08     0.00  -0.00   0.05     0.06  -0.00   0.00
  38   6    -0.01  -0.02  -0.11     0.01  -0.00   0.06     0.06  -0.00  -0.00
  39   6    -0.01  -0.03  -0.12     0.02  -0.01   0.03     0.07  -0.01  -0.02
  40   6    -0.01  -0.02  -0.09     0.01  -0.01   0.00     0.06  -0.00  -0.03
  41   7     0.00  -0.01  -0.06     0.00  -0.01  -0.00     0.06  -0.00  -0.03
  42   6     0.00  -0.00  -0.05    -0.00  -0.01   0.02     0.05  -0.00  -0.01
  43   1    -0.00  -0.01  -0.04     0.01  -0.00   0.02     0.02  -0.00   0.00
  44   1    -0.00  -0.01  -0.04     0.01  -0.00   0.01     0.02  -0.00  -0.01
  45   1    -0.00  -0.01  -0.03     0.00  -0.00  -0.00     0.02  -0.00  -0.01
  46   1     0.00   0.00  -0.01    -0.00  -0.00   0.00     0.01   0.00  -0.00
  47   6    -0.04  -0.01  -0.01     0.10   0.01  -0.01    -0.15  -0.01  -0.01
  48   6    -0.07  -0.01  -0.00     0.10   0.00  -0.01    -0.13  -0.01  -0.01
  49   6    -0.10  -0.01   0.00     0.09   0.00  -0.01    -0.11  -0.00  -0.01
  50   6    -0.14  -0.02   0.01     0.10   0.00  -0.01    -0.14  -0.00  -0.00
  51   6    -0.17  -0.03   0.01     0.09   0.00  -0.01    -0.11  -0.00  -0.00
  52   6    -0.15  -0.03   0.01     0.07   0.00  -0.01    -0.06   0.00  -0.01
  53   6    -0.11  -0.02   0.00     0.05  -0.00  -0.00    -0.03   0.00  -0.01
  54   6    -0.09  -0.01  -0.00     0.03  -0.00  -0.00     0.02   0.01  -0.02
  55   7    -0.05  -0.00  -0.01     0.02  -0.00   0.00     0.04   0.00  -0.03
  56   6    -0.02   0.00  -0.01     0.03  -0.00   0.00     0.02   0.00  -0.03
  57   6    -0.04  -0.00  -0.01     0.05   0.00   0.00    -0.02  -0.00  -0.03
  58   6    -0.08  -0.01  -0.00     0.06   0.00  -0.00    -0.05  -0.00  -0.02
  59   1    -0.05  -0.01   0.00     0.04   0.00  -0.00    -0.05  -0.00   0.00
  60   1    -0.06  -0.01   0.00     0.03   0.00  -0.00    -0.04  -0.00   0.00
  61   1    -0.05  -0.01   0.00     0.02  -0.00  -0.00    -0.01   0.00  -0.00
  62   1    -0.03  -0.01   0.00     0.01  -0.00  -0.00     0.01   0.00  -0.00
  63   1     0.00   0.00  -0.01     0.00  -0.00   0.00     0.01   0.00  -0.01
  64   1    -0.01   0.00  -0.00     0.02   0.00   0.00    -0.01  -0.00  -0.01
  65   6    -0.00  -0.01  -0.01     0.11   0.01  -0.01    -0.16  -0.01  -0.01
  66   6     0.03  -0.01  -0.02     0.14   0.01  -0.02    -0.22  -0.01   0.01
  67   6     0.07  -0.02  -0.02     0.14   0.01  -0.03    -0.23  -0.01   0.02
  68   6     0.08  -0.01  -0.02     0.11   0.01  -0.02    -0.18  -0.01   0.01
  69   6     0.11  -0.01  -0.02     0.11   0.01  -0.03    -0.19  -0.01   0.02
  70   6     0.12  -0.00  -0.02     0.09   0.00  -0.02    -0.14  -0.01   0.01
  71   6     0.08   0.00  -0.01     0.07   0.00  -0.01    -0.09  -0.00  -0.02
  72   6     0.05   0.01  -0.01     0.07   0.00  -0.01    -0.08  -0.00  -0.02
  73   6     0.04  -0.00  -0.01     0.09   0.00  -0.01    -0.13  -0.00  -0.01
  74   6     0.00   0.00  -0.01     0.09   0.00  -0.01    -0.12  -0.00  -0.02
  75   1     0.01  -0.01  -0.01     0.04   0.00  -0.01    -0.07  -0.00   0.01
  76   1     0.03  -0.01  -0.01     0.05   0.00  -0.01    -0.08  -0.01   0.01
  77   1     0.04  -0.00  -0.01     0.04   0.00  -0.01    -0.07  -0.00   0.01
  78   1     0.04  -0.00  -0.01     0.03   0.00  -0.01    -0.04  -0.00   0.00
  79   1     0.01   0.00   0.00     0.01  -0.00   0.00    -0.01   0.00  -0.01
  80   1    -0.01   0.00   0.00     0.02  -0.00   0.00    -0.02  -0.00  -0.01
  81   6     0.08   0.01  -0.01     0.04  -0.00  -0.01    -0.04   0.00  -0.03
  82   6     0.12   0.02   0.00     0.05  -0.00  -0.00    -0.04   0.01  -0.04
  83   6     0.12   0.03   0.01     0.03  -0.01   0.00     0.00   0.01  -0.05
  84   6     0.08   0.02   0.00     0.01  -0.01  -0.00     0.05   0.01  -0.04
  85   7     0.06   0.01  -0.01     0.01  -0.01  -0.01     0.05   0.01  -0.03
  86   6     0.05   0.00  -0.01     0.02  -0.00  -0.01     0.01   0.01  -0.02
  87   1     0.04   0.01   0.00     0.02  -0.00   0.00    -0.02   0.00  -0.02
  88   1     0.04   0.01   0.00     0.01  -0.00   0.00     0.00   0.00  -0.02
  89   1     0.02   0.01   0.00    -0.00  -0.00   0.00     0.02   0.00  -0.01
  90   1     0.01  -0.00  -0.00     0.01  -0.00  -0.01     0.00   0.00  -0.00
  91   6     0.00   0.01   0.05     0.01  -0.00  -0.11     0.05   0.00   0.06
  92   6    -0.00   0.01   0.08     0.01  -0.00  -0.10     0.05   0.00   0.06
  93   6    -0.01   0.01   0.11     0.01  -0.00  -0.10     0.05   0.00   0.05
  94   6    -0.01   0.02   0.15     0.01  -0.00  -0.11     0.05  -0.00   0.06
  95   6    -0.02   0.02   0.18     0.01  -0.00  -0.10     0.04  -0.00   0.05
  96   6    -0.01   0.02   0.16     0.01  -0.00  -0.08     0.05  -0.00   0.03
  97   6    -0.01   0.01   0.11     0.00   0.00  -0.06     0.05   0.00   0.02
  98   6    -0.00   0.01   0.09     0.00   0.00  -0.03     0.05   0.00  -0.00
  99   7     0.00   0.00   0.04    -0.00   0.00  -0.02     0.06   0.00  -0.02
 100   6     0.01  -0.00   0.02    -0.00   0.00  -0.03     0.06   0.00  -0.01
 101   6     0.01   0.00   0.04    -0.00   0.00  -0.05     0.06   0.00   0.01
 102   6    -0.00   0.01   0.09     0.00  -0.00  -0.07     0.05   0.00   0.03
 103   1    -0.00   0.01   0.05     0.00  -0.00  -0.04     0.01  -0.00   0.02
 104   1    -0.01   0.01   0.06     0.00  -0.00  -0.03     0.01  -0.00   0.02
 105   1    -0.01   0.01   0.05     0.00   0.00  -0.02     0.01  -0.00   0.01
 106   1    -0.00   0.00   0.03     0.00   0.00  -0.01     0.01   0.00  -0.00
 107   1     0.00  -0.00  -0.00    -0.00   0.00  -0.00     0.02   0.00  -0.01
 108   1     0.00  -0.00   0.01    -0.00  -0.00  -0.02     0.02   0.00   0.00
 109   6     0.00   0.01   0.01     0.01  -0.00  -0.11     0.05   0.00   0.07
 110   6     0.01   0.02  -0.01     0.02  -0.01  -0.14     0.04   0.00   0.09
 111   6     0.01   0.02  -0.05     0.03  -0.01  -0.14     0.04   0.00   0.09
 112   6     0.01   0.01  -0.06     0.02  -0.01  -0.11     0.04   0.00   0.08
 113   6     0.01   0.01  -0.10     0.03  -0.01  -0.11     0.04   0.00   0.08
 114   6     0.01   0.01  -0.10     0.02  -0.00  -0.09     0.04   0.00   0.06
 115   6     0.00  -0.00  -0.07     0.01   0.00  -0.07     0.05  -0.00   0.04
 116   6     0.00  -0.00  -0.04     0.01   0.00  -0.07     0.05  -0.00   0.04
 117   6     0.00   0.00  -0.03     0.01  -0.00  -0.09     0.05   0.00   0.06
 118   6     0.00   0.00   0.01     0.01  -0.00  -0.09     0.05   0.00   0.05
 119   1     0.00   0.01  -0.00     0.01  -0.00  -0.04     0.01   0.00   0.03
 120   1     0.00   0.01  -0.02     0.01  -0.00  -0.04     0.01   0.00   0.03
 121   1     0.01   0.01  -0.03     0.01  -0.00  -0.04     0.01   0.00   0.03
 122   1     0.00   0.00  -0.04     0.01  -0.00  -0.03     0.01   0.00   0.02
 123   1    -0.00  -0.00  -0.01     0.00   0.00  -0.01     0.02  -0.00   0.01
 124   1    -0.00  -0.00   0.01     0.00   0.00  -0.02     0.02  -0.00   0.01
 125   6     0.00  -0.01  -0.08     0.01   0.00  -0.04     0.06  -0.00   0.01
 126   6    -0.01  -0.02  -0.11     0.00   0.00  -0.05     0.06  -0.01   0.01
 127   6    -0.01  -0.03  -0.12     0.00   0.01  -0.03     0.07  -0.01  -0.01
 128   6    -0.01  -0.02  -0.09     0.00   0.01  -0.01     0.06  -0.00  -0.03
 129   7     0.00  -0.01  -0.06     0.01   0.01  -0.01     0.06  -0.00  -0.03
 130   6     0.00  -0.00  -0.05     0.01   0.01  -0.02     0.05  -0.00  -0.00
 131   1    -0.00  -0.01  -0.04     0.00   0.00  -0.02     0.02  -0.00   0.01
 132   1    -0.00  -0.01  -0.04    -0.00   0.00  -0.01     0.02  -0.00  -0.00
 133   1    -0.00  -0.01  -0.03     0.00   0.00   0.00     0.02  -0.00  -0.01
 134   1     0.00   0.00  -0.01     0.01   0.00  -0.01     0.01   0.00  -0.00
 135   6    -0.04  -0.01  -0.00    -0.13  -0.01   0.00    -0.12  -0.01  -0.01
 136   6    -0.07  -0.01  -0.00    -0.12  -0.01  -0.00    -0.10  -0.01  -0.01
 137   6    -0.11  -0.02   0.00    -0.10  -0.00  -0.00    -0.08  -0.00  -0.01
 138   6    -0.15  -0.03   0.01    -0.12  -0.00   0.01    -0.10  -0.00  -0.00
 139   6    -0.18  -0.03   0.02    -0.11  -0.00   0.01    -0.08   0.00   0.00
 140   6    -0.16  -0.03   0.02    -0.07   0.00   0.00    -0.04   0.00  -0.00
 141   6    -0.11  -0.02   0.01    -0.05   0.00  -0.00    -0.02   0.00  -0.01
 142   6    -0.09  -0.02   0.00    -0.02   0.00  -0.01     0.02   0.00  -0.02
 143   7    -0.05  -0.01  -0.01    -0.01   0.01  -0.01     0.05   0.00  -0.03
 144   6    -0.02   0.00  -0.01    -0.02   0.00  -0.02     0.03   0.00  -0.03
 145   6    -0.04  -0.00  -0.01    -0.05  -0.00  -0.01    -0.01  -0.00  -0.03
 146   6    -0.09  -0.01   0.00    -0.07  -0.00  -0.01    -0.04  -0.00  -0.02
 147   1    -0.05  -0.01   0.00    -0.04  -0.00   0.00    -0.04  -0.00   0.00
 148   1    -0.06  -0.01   0.01    -0.03  -0.00   0.00    -0.03   0.00   0.00
 149   1    -0.05  -0.01   0.01    -0.02   0.00   0.00    -0.01   0.00  -0.00
 150   1    -0.03  -0.01   0.00    -0.00   0.00  -0.00     0.01   0.00  -0.00
 151   1     0.00   0.00  -0.01    -0.00   0.00  -0.01     0.01   0.00  -0.01
 152   1    -0.01   0.00  -0.00    -0.02  -0.00  -0.00    -0.01  -0.00  -0.01
 153   6    -0.00  -0.01  -0.01    -0.14  -0.01   0.01    -0.13  -0.01  -0.01
 154   6     0.03  -0.01  -0.02    -0.18  -0.01   0.02    -0.18  -0.01   0.01
 155   6     0.07  -0.01  -0.02    -0.19  -0.01   0.03    -0.19  -0.01   0.01
 156   6     0.08  -0.01  -0.02    -0.15  -0.01   0.02    -0.15  -0.01   0.00
 157   6     0.11  -0.01  -0.02    -0.16  -0.01   0.03    -0.15  -0.01   0.01
 158   6     0.12  -0.00  -0.02    -0.12  -0.01   0.02    -0.11  -0.01   0.00
 159   6     0.08   0.01  -0.01    -0.09  -0.00   0.00    -0.07  -0.00  -0.02
 160   6     0.04   0.01  -0.00    -0.08  -0.00  -0.00    -0.06  -0.00  -0.03
 161   6     0.04   0.00  -0.01    -0.12  -0.01   0.00    -0.10  -0.00  -0.01
 162   6     0.00   0.00  -0.00    -0.11  -0.00  -0.00    -0.09  -0.00  -0.02
 163   1     0.01  -0.01  -0.01    -0.06  -0.00   0.01    -0.06  -0.00   0.00
 164   1     0.03  -0.01  -0.01    -0.06  -0.01   0.01    -0.07  -0.00   0.01
 165   1     0.04  -0.00  -0.01    -0.05  -0.00   0.01    -0.06  -0.00   0.01
 166   1     0.04  -0.00  -0.01    -0.04  -0.00   0.01    -0.03  -0.00   0.00
 167   1     0.00   0.00   0.00    -0.02   0.00  -0.00    -0.01   0.00  -0.01
 168   1    -0.01   0.00   0.00    -0.02  -0.00  -0.00    -0.02  -0.00  -0.01
 169   6     0.08   0.01  -0.00    -0.05   0.00  -0.00    -0.03   0.00  -0.03
 170   6     0.12   0.03   0.00    -0.06   0.00  -0.02    -0.03   0.01  -0.04
 171   6     0.11   0.03   0.01    -0.03   0.01  -0.02     0.01   0.01  -0.05
 172   6     0.08   0.02   0.00    -0.00   0.01  -0.01     0.05   0.01  -0.04
 173   7     0.05   0.01  -0.01     0.00   0.01  -0.00     0.05   0.01  -0.03
 174   6     0.05   0.00  -0.01    -0.02   0.01   0.00     0.01   0.01  -0.02
 175   1     0.04   0.01   0.00    -0.02   0.00  -0.01    -0.02   0.00  -0.01
 176   1     0.04   0.01   0.00    -0.01   0.00  -0.01     0.00   0.00  -0.02
 177   1     0.02   0.01   0.00     0.01   0.00  -0.01     0.02   0.00  -0.01
 178   1     0.01  -0.00  -0.00    -0.00   0.00   0.00     0.01   0.00  -0.00
                      4                      5                      6
                        a                      a                      a 
 Frequencies --     8.8231                14.7822                15.7514
 Red. masses --    16.1068                11.6497                18.5274
 Frc consts  --     0.0000                 0.0000                 0.0000
 IR Inten    --     0.4916                 0.0036                 0.0148
 Raman Activ --     0.0000                 0.0000                 0.0000
 Depolar     --     0.0000                 0.0000                 0.0000
 Atom AN      X      Y      Z        X      Y      Z        X      Y      Z
   1  46    -0.04  -0.01  -0.15    -0.04  -0.01   0.03     0.09   0.14   0.10
   2  46    -0.04  -0.01  -0.15     0.04   0.01  -0.03    -0.09  -0.15  -0.10
   3   6    -0.03   0.00   0.13    -0.01   0.04   0.01    -0.06  -0.00   0.05
   4   6    -0.03   0.00   0.11    -0.01   0.05   0.05    -0.07   0.00   0.09
   5   6    -0.03   0.00   0.09    -0.01   0.05   0.09    -0.07   0.00   0.12
   6   6    -0.04  -0.00   0.11    -0.02   0.07   0.15    -0.07   0.02   0.19
   7   6    -0.04  -0.00   0.09    -0.02   0.07   0.18    -0.07   0.02   0.21
   8   6    -0.03  -0.01   0.04    -0.01   0.06   0.16    -0.06   0.01   0.15
   9   6    -0.02  -0.01   0.02    -0.00   0.05   0.10    -0.05  -0.01   0.09
  10   6    -0.02  -0.01  -0.02     0.00   0.03   0.07    -0.04  -0.03   0.03
  11   7    -0.01  -0.01  -0.05     0.01   0.02   0.02    -0.03  -0.05  -0.02
  12   6    -0.01  -0.00  -0.02     0.01   0.01  -0.01    -0.04  -0.04  -0.03
  13   6    -0.01  -0.00   0.02     0.00   0.02   0.01    -0.05  -0.03   0.01
  14   6    -0.02  -0.00   0.04    -0.00   0.04   0.06    -0.05  -0.01   0.07
  15   1    -0.01   0.00   0.04    -0.01   0.02   0.05    -0.02   0.01   0.06
  16   1    -0.01  -0.00   0.03    -0.01   0.02   0.07    -0.02   0.01   0.08
  17   1    -0.01  -0.00   0.01    -0.00   0.02   0.05    -0.02   0.00   0.05
  18   1    -0.01  -0.00  -0.01     0.00   0.01   0.02    -0.01  -0.01   0.01
  19   1    -0.00  -0.00  -0.01     0.00   0.00  -0.01    -0.01  -0.02  -0.02
  20   1    -0.00   0.00   0.01     0.00   0.01  -0.00    -0.01  -0.01   0.00
  21   6    -0.03   0.00   0.14     0.00   0.04  -0.03    -0.04  -0.01   0.01
  22   6    -0.05   0.01   0.19     0.01   0.05  -0.08    -0.01  -0.02  -0.06
  23   6    -0.05   0.01   0.20     0.02   0.05  -0.11     0.01  -0.02  -0.11
  24   6    -0.04   0.01   0.16     0.01   0.04  -0.10     0.02  -0.01  -0.10
  25   6    -0.05   0.01   0.17     0.02   0.05  -0.13     0.05  -0.01  -0.14
  26   6    -0.04   0.00   0.13     0.01   0.04  -0.11     0.05   0.00  -0.13
  27   6    -0.02   0.00   0.08    -0.01   0.04  -0.06     0.02   0.01  -0.07
  28   6    -0.01   0.00   0.07    -0.01   0.03  -0.04    -0.01   0.01  -0.02
  29   6    -0.02   0.00   0.11    -0.00   0.04  -0.05    -0.01   0.00  -0.03
  30   6    -0.02   0.00   0.10    -0.01   0.04  -0.02    -0.04   0.00   0.02
  31   1    -0.02   0.00   0.07     0.01   0.01  -0.03    -0.00  -0.01  -0.02
  32   1    -0.02   0.00   0.07     0.01   0.02  -0.04     0.01  -0.01  -0.04
  33   1    -0.02   0.00   0.06     0.01   0.01  -0.05     0.02  -0.00  -0.06
  34   1    -0.01   0.00   0.04     0.00   0.01  -0.04     0.02   0.00  -0.05
  35   1     0.00  -0.00   0.01    -0.01   0.01  -0.00    -0.01   0.00   0.01
  36   1    -0.00   0.00   0.02    -0.01   0.01   0.01    -0.02   0.00   0.02
  37   6    -0.01  -0.00   0.04    -0.02   0.03  -0.03     0.02   0.02  -0.05
  38   6     0.00  -0.00   0.04    -0.04   0.04  -0.03     0.02   0.00  -0.08
  39   6     0.01  -0.00   0.01    -0.05   0.03  -0.00     0.02   0.01  -0.06
  40   6     0.00  -0.01  -0.03    -0.04   0.03   0.03     0.03   0.04  -0.01
  41   7    -0.01  -0.01  -0.04    -0.02   0.02   0.02     0.03   0.05   0.02
  42   6    -0.02  -0.00  -0.01    -0.01   0.02  -0.01     0.03   0.04   0.00
  43   1     0.00   0.00   0.02    -0.01   0.01  -0.02     0.00  -0.00  -0.04
  44   1     0.01  -0.00   0.00    -0.02   0.01   0.00     0.01   0.00  -0.02
  45   1     0.00  -0.00  -0.02    -0.01   0.01   0.02     0.01   0.01   0.00
  46   1    -0.01  -0.00  -0.00     0.00   0.01  -0.00     0.01   0.02   0.01
  47   6     0.05   0.00  -0.06    -0.02  -0.04   0.01     0.05  -0.01  -0.06
  48   6     0.05   0.00  -0.06    -0.05  -0.05   0.02     0.08  -0.00  -0.06
  49   6     0.04   0.00  -0.06    -0.09  -0.05   0.02     0.11  -0.00  -0.06
  50   6     0.06   0.01  -0.06    -0.15  -0.07   0.02     0.17   0.02  -0.07
  51   6     0.05   0.01  -0.06    -0.18  -0.07   0.02     0.18   0.02  -0.06
  52   6     0.03   0.00  -0.06    -0.15  -0.06   0.01     0.14   0.00  -0.05
  53   6     0.02   0.00  -0.05    -0.09  -0.04   0.01     0.08  -0.01  -0.05
  54   6     0.00  -0.00  -0.05    -0.06  -0.03   0.00     0.03  -0.03  -0.04
  55   7    -0.01  -0.00  -0.05    -0.01  -0.02  -0.00    -0.02  -0.05  -0.04
  56   6    -0.00  -0.00  -0.05     0.01  -0.01  -0.00    -0.02  -0.04  -0.04
  57   6     0.01  -0.00  -0.05    -0.01  -0.02   0.00     0.01  -0.03  -0.05
  58   6     0.03   0.00  -0.06    -0.06  -0.04   0.01     0.07  -0.02  -0.05
  59   1     0.02   0.00  -0.02    -0.05  -0.02   0.01     0.06   0.01  -0.02
  60   1     0.02   0.00  -0.02    -0.07  -0.02   0.01     0.07   0.01  -0.02
  61   1     0.01   0.00  -0.02    -0.05  -0.02   0.00     0.04   0.00  -0.02
  62   1    -0.00  -0.00  -0.02    -0.02  -0.01  -0.00     0.01  -0.01  -0.01
  63   1    -0.00  -0.00  -0.01     0.02   0.00  -0.00    -0.02  -0.02  -0.01
  64   1     0.00  -0.00  -0.02     0.00  -0.00   0.00     0.00  -0.01  -0.01
  65   6     0.05   0.00  -0.06     0.02  -0.04   0.00     0.01  -0.01  -0.04
  66   6     0.06   0.01  -0.06     0.07  -0.04  -0.01    -0.05  -0.02  -0.01
  67   6     0.06   0.01  -0.06     0.11  -0.04  -0.02    -0.09  -0.02   0.01
  68   6     0.05   0.01  -0.06     0.09  -0.04  -0.02    -0.08  -0.01   0.02
  69   6     0.04   0.01  -0.06     0.12  -0.04  -0.02    -0.13  -0.01   0.05
  70   6     0.03   0.00  -0.06     0.10  -0.04  -0.01    -0.12  -0.00   0.05
  71   6     0.02   0.00  -0.05     0.05  -0.04   0.00    -0.06   0.00   0.02
  72   6     0.02   0.00  -0.05     0.03  -0.04   0.01    -0.02   0.00  -0.00
  73   6     0.03   0.00  -0.06     0.05  -0.04   0.00    -0.03  -0.00  -0.01
  74   6     0.03   0.00  -0.05     0.01  -0.04   0.01     0.02  -0.00  -0.03
  75   1     0.02   0.00  -0.02     0.02  -0.01  -0.01    -0.02  -0.01  -0.00
  76   1     0.02   0.00  -0.02     0.04  -0.01  -0.01    -0.04  -0.01   0.01
  77   1     0.02   0.00  -0.02     0.05  -0.01  -0.01    -0.05  -0.01   0.02
  78   1     0.01   0.00  -0.02     0.03  -0.01  -0.01    -0.04  -0.00   0.02
  79   1     0.00   0.00  -0.01    -0.00  -0.01   0.01     0.01   0.00  -0.01
  80   1     0.01   0.00  -0.01    -0.01  -0.01   0.01     0.02   0.00  -0.02
  81   6     0.00   0.00  -0.05     0.03  -0.03   0.01    -0.05   0.01   0.03
  82   6     0.01   0.00  -0.05     0.03  -0.04   0.03    -0.08  -0.00   0.03
  83   6    -0.00  -0.00  -0.05     0.00  -0.04   0.04    -0.06   0.01   0.03
  84   6    -0.01  -0.00  -0.05    -0.03  -0.03   0.03    -0.02   0.03   0.03
  85   7    -0.01  -0.00  -0.05    -0.03  -0.03   0.02     0.02   0.05   0.03
  86   6    -0.01  -0.00  -0.05     0.00  -0.03   0.01     0.00   0.04   0.03
  87   1     0.00   0.00  -0.01     0.02  -0.01   0.01    -0.03  -0.01   0.01
  88   1    -0.00  -0.00  -0.01    -0.00  -0.01   0.02    -0.03  -0.00   0.01
  89   1    -0.01  -0.00  -0.01    -0.02  -0.01   0.01    -0.00   0.01   0.01
  90   1    -0.00  -0.00  -0.02    -0.00  -0.01  -0.00     0.01   0.02   0.01
  91   6    -0.03   0.00   0.14     0.00  -0.04  -0.00     0.05   0.00  -0.04
  92   6    -0.03   0.00   0.12     0.01  -0.04  -0.03     0.06   0.00  -0.06
  93   6    -0.03   0.00   0.10     0.01  -0.05  -0.07     0.06  -0.00  -0.09
  94   6    -0.03   0.00   0.12     0.01  -0.06  -0.11     0.06  -0.01  -0.14
  95   6    -0.04  -0.00   0.10     0.01  -0.06  -0.14     0.06  -0.02  -0.16
  96   6    -0.03  -0.01   0.05     0.00  -0.06  -0.13     0.05  -0.00  -0.12
  97   6    -0.02  -0.00   0.02    -0.00  -0.04  -0.08     0.05   0.01  -0.06
  98   6    -0.02  -0.01  -0.02    -0.01  -0.03  -0.05     0.04   0.03  -0.02
  99   7    -0.01  -0.01  -0.05    -0.01  -0.02  -0.01     0.04   0.04   0.02
 100   6    -0.01  -0.00  -0.02    -0.01  -0.02   0.01     0.04   0.04   0.03
 101   6    -0.01  -0.00   0.02    -0.00  -0.02  -0.00     0.05   0.03  -0.00
 102   6    -0.02  -0.00   0.05     0.00  -0.04  -0.05     0.05   0.01  -0.05
 103   1    -0.01   0.00   0.05     0.00  -0.02  -0.04     0.02  -0.01  -0.05
 104   1    -0.01  -0.00   0.03     0.00  -0.02  -0.05     0.02  -0.01  -0.06
 105   1    -0.01  -0.00   0.01     0.00  -0.02  -0.04     0.01  -0.00  -0.04
 106   1    -0.01  -0.00  -0.01    -0.00  -0.01  -0.02     0.01   0.01  -0.01
 107   1    -0.00  -0.00  -0.01    -0.00  -0.00   0.01     0.01   0.01   0.02
 108   1    -0.00   0.00   0.01    -0.00  -0.01   0.01     0.01   0.01   0.00
 109   6    -0.03   0.00   0.15    -0.00  -0.04   0.03     0.04   0.01  -0.00
 110   6    -0.05   0.01   0.21    -0.01  -0.05   0.07     0.02   0.01   0.05
 111   6    -0.06   0.01   0.22    -0.02  -0.05   0.10    -0.01   0.02   0.08
 112   6    -0.05   0.00   0.17    -0.01  -0.04   0.08    -0.01   0.01   0.07
 113   6    -0.05   0.00   0.18    -0.01  -0.05   0.10    -0.04   0.00   0.11
 114   6    -0.04   0.00   0.13    -0.00  -0.04   0.08    -0.04  -0.00   0.10
 115   6    -0.02   0.00   0.08     0.01  -0.04   0.05    -0.02  -0.01   0.05
 116   6    -0.01   0.00   0.08     0.01  -0.04   0.03     0.00  -0.01   0.01
 117   6    -0.03   0.00   0.12     0.00  -0.04   0.05     0.01  -0.00   0.02
 118   6    -0.02   0.00   0.11     0.00  -0.04   0.02     0.03  -0.00  -0.01
 119   1    -0.02   0.00   0.07    -0.01  -0.01   0.02     0.01   0.01   0.02
 120   1    -0.02   0.00   0.07    -0.01  -0.02   0.04    -0.01   0.01   0.03
 121   1    -0.02   0.00   0.06    -0.01  -0.01   0.04    -0.02   0.00   0.04
 122   1    -0.01   0.00   0.04    -0.00  -0.01   0.03    -0.02  -0.00   0.04
 123   1     0.00  -0.00   0.01     0.00  -0.01   0.00     0.01  -0.00  -0.01
 124   1    -0.00   0.00   0.02     0.00  -0.01  -0.00     0.01  -0.00  -0.01
 125   6    -0.01  -0.00   0.04     0.02  -0.03   0.02    -0.02  -0.02   0.03
 126   6     0.00  -0.00   0.05     0.04  -0.04   0.02    -0.02  -0.01   0.06
 127   6     0.01  -0.01   0.01     0.04  -0.03  -0.01    -0.03  -0.02   0.04
 128   6     0.00  -0.01  -0.03     0.04  -0.03  -0.03    -0.03  -0.04   0.00
 129   7    -0.01  -0.01  -0.04     0.02  -0.02  -0.02    -0.03  -0.05  -0.02
 130   6    -0.02  -0.00  -0.00     0.01  -0.02   0.00    -0.03  -0.04  -0.01
 131   1     0.00   0.00   0.02     0.01  -0.01   0.01    -0.01   0.00   0.03
 132   1     0.01  -0.00   0.00     0.02  -0.01  -0.00    -0.01  -0.00   0.02
 133   1     0.00  -0.00  -0.02     0.01  -0.01  -0.02    -0.01  -0.01  -0.00
 134   1    -0.01  -0.00  -0.00    -0.00  -0.01   0.00    -0.01  -0.02  -0.01
 135   6     0.06   0.01  -0.06     0.02   0.04  -0.01    -0.03   0.01   0.05
 136   6     0.06   0.01  -0.06     0.07   0.05  -0.02    -0.05   0.01   0.06
 137   6     0.05   0.00  -0.06     0.11   0.05  -0.02    -0.07   0.00   0.06
 138   6     0.07   0.01  -0.06     0.18   0.07  -0.03    -0.11  -0.01   0.06
 139   6     0.06   0.01  -0.06     0.21   0.08  -0.03    -0.12  -0.01   0.06
 140   6     0.04   0.00  -0.06     0.18   0.07  -0.02    -0.09   0.00   0.05
 141   6     0.03   0.00  -0.06     0.11   0.05  -0.01    -0.05   0.02   0.05
 142   6     0.01  -0.00  -0.05     0.07   0.03  -0.00    -0.01   0.03   0.04
 143   7    -0.01  -0.01  -0.05     0.01   0.01   0.00     0.03   0.04   0.04
 144   6    -0.00  -0.00  -0.05    -0.01   0.01   0.00     0.03   0.04   0.04
 145   6     0.02  -0.00  -0.05     0.02   0.02  -0.00     0.00   0.03   0.05
 146   6     0.03   0.00  -0.06     0.08   0.04  -0.01    -0.04   0.02   0.05
 147   1     0.02   0.00  -0.02     0.06   0.02  -0.01    -0.04  -0.01   0.02
 148   1     0.02   0.00  -0.02     0.08   0.03  -0.01    -0.05  -0.01   0.02
 149   1     0.01   0.00  -0.02     0.06   0.02  -0.01    -0.03   0.00   0.01
 150   1    -0.00  -0.00  -0.02     0.03   0.01  -0.00    -0.00   0.01   0.01
 151   1    -0.00  -0.00  -0.01    -0.02  -0.00   0.00     0.02   0.02   0.01
 152   1     0.01  -0.00  -0.01    -0.00   0.00  -0.00     0.00   0.01   0.01
 153   6     0.06   0.01  -0.06    -0.02   0.04  -0.00    -0.01   0.01   0.04
 154   6     0.08   0.01  -0.07    -0.08   0.04   0.01     0.03   0.03   0.02
 155   6     0.07   0.01  -0.07    -0.13   0.04   0.02     0.06   0.03  -0.01
 156   6     0.06   0.01  -0.06    -0.11   0.04   0.02     0.06   0.02  -0.01
 157   6     0.05   0.01  -0.06    -0.15   0.04   0.03     0.09   0.02  -0.04
 158   6     0.04   0.00  -0.06    -0.12   0.04   0.02     0.08   0.01  -0.04
 159   6     0.02   0.00  -0.05    -0.07   0.03  -0.00     0.03  -0.00  -0.02
 160   6     0.02   0.00  -0.05    -0.04   0.03  -0.01     0.01  -0.01   0.00
 161   6     0.04   0.00  -0.06    -0.05   0.03  -0.00     0.01   0.00   0.01
 162   6     0.04   0.00  -0.05    -0.01   0.04  -0.01    -0.02   0.00   0.03
 163   1     0.03   0.00  -0.02    -0.03   0.01   0.01     0.01   0.01   0.01
 164   1     0.03   0.00  -0.02    -0.05   0.01   0.01     0.03   0.01  -0.01
 165   1     0.02   0.00  -0.02    -0.05   0.01   0.01     0.03   0.01  -0.01
 166   1     0.01   0.00  -0.02    -0.04   0.01   0.01     0.03   0.00  -0.02
 167   1     0.00   0.00  -0.01     0.00   0.01  -0.01    -0.01  -0.00   0.01
 168   1     0.01   0.00  -0.01     0.01   0.01  -0.01    -0.01  -0.00   0.01
 169   6     0.01   0.00  -0.05    -0.04   0.03  -0.01     0.02  -0.02  -0.03
 170   6     0.01   0.00  -0.05    -0.04   0.03  -0.03     0.05  -0.00  -0.03
 171   6     0.00  -0.00  -0.05    -0.01   0.03  -0.04     0.04  -0.01  -0.04
 172   6    -0.01  -0.00  -0.05     0.02   0.03  -0.03     0.00  -0.03  -0.04
 173   7    -0.01  -0.00  -0.05     0.03   0.03  -0.02    -0.02  -0.05  -0.04
 174   6    -0.00  -0.00  -0.05    -0.00   0.03  -0.01    -0.01  -0.04  -0.03
 175   1     0.01   0.00  -0.01    -0.02   0.01  -0.01     0.02   0.00  -0.01
 176   1     0.00  -0.00  -0.01    -0.00   0.01  -0.02     0.02  -0.00  -0.01
 177   1    -0.01  -0.00  -0.01     0.02   0.01  -0.01    -0.00  -0.01  -0.01
 178   1    -0.00  -0.00  -0.02     0.00   0.01   0.00    -0.01  -0.01  -0.01
                      7                      8                      9
                        a                      a                      a 
 Frequencies --    16.2088                19.0077                21.4195
 Red. masses --    11.3055                23.1869                21.8609
 Frc consts  --     0.0000                 0.0000                 0.0000
 IR Inten    --     0.0910                 0.0021                 0.0034
 Raman Activ --     0.0000                 0.0000                 0.0000
 Depolar     --     0.0000                 0.0000                 0.0000
 Atom AN      X      Y      Z        X      Y      Z        X      Y      Z
   1  46    -0.02  -0.04  -0.01    -0.03  -0.24  -0.04     0.16   0.00  -0.17
   2  46     0.01  -0.00   0.01     0.03   0.24   0.04    -0.17  -0.00   0.17
   3   6    -0.01  -0.00   0.05     0.09  -0.05   0.03    -0.04   0.05  -0.01
   4   6    -0.01   0.00   0.07     0.08  -0.04   0.05    -0.06   0.06  -0.02
   5   6    -0.01   0.00   0.10     0.06  -0.04   0.05    -0.07   0.05  -0.02
   6   6    -0.02   0.01   0.14     0.04  -0.06   0.06    -0.05   0.05  -0.08
   7   6    -0.02   0.01   0.15     0.01  -0.06   0.07    -0.04   0.05  -0.09
   8   6    -0.02   0.01   0.12    -0.01  -0.03   0.06    -0.04   0.05  -0.05
   9   6    -0.01   0.00   0.08     0.02  -0.01   0.05    -0.06   0.05  -0.00
  10   6    -0.00  -0.00   0.04     0.01   0.02   0.04    -0.06   0.05   0.03
  11   7     0.00  -0.01   0.01     0.03   0.05   0.03    -0.08   0.05   0.08
  12   6     0.01  -0.01   0.01     0.05   0.04   0.04    -0.09   0.06   0.10
  13   6     0.00  -0.01   0.04     0.07   0.02   0.04    -0.09   0.06   0.07
  14   6    -0.00  -0.00   0.07     0.05  -0.01   0.05    -0.07   0.06   0.01
  15   1    -0.01   0.00   0.05     0.01  -0.02   0.02    -0.01   0.01  -0.03
  16   1    -0.01   0.01   0.05    -0.00  -0.02   0.02    -0.01   0.01  -0.04
  17   1    -0.00   0.00   0.04    -0.01  -0.01   0.02    -0.01   0.01  -0.02
  18   1    -0.00  -0.00   0.01    -0.01   0.01   0.01    -0.01   0.01   0.00
  19   1     0.00  -0.00  -0.00     0.02   0.02   0.01    -0.03   0.02   0.04
  20   1     0.00  -0.00   0.01     0.03   0.00   0.01    -0.03   0.02   0.03
  21   6    -0.00  -0.00   0.01     0.08  -0.05   0.01    -0.02   0.05  -0.00
  22   6     0.01   0.01  -0.03     0.08  -0.02  -0.02    -0.02   0.03   0.02
  23   6     0.01   0.01  -0.07     0.06  -0.02  -0.04    -0.00   0.03   0.03
  24   6     0.01   0.00  -0.07     0.04  -0.04  -0.04     0.02   0.05   0.01
  25   6     0.01   0.00  -0.11     0.03  -0.04  -0.06     0.03   0.05   0.02
  26   6     0.01  -0.00  -0.10     0.01  -0.06  -0.06     0.04   0.06   0.02
  27   6    -0.00  -0.01  -0.06     0.01  -0.08  -0.03     0.04   0.07  -0.00
  28   6    -0.01  -0.01  -0.03     0.03  -0.08  -0.01     0.03   0.07  -0.02
  29   6    -0.00  -0.01  -0.03     0.04  -0.06  -0.01     0.02   0.06  -0.01
  30   6    -0.01  -0.01   0.01     0.06  -0.06   0.01     0.00   0.06  -0.02
  31   1     0.00   0.00  -0.01     0.03  -0.00  -0.01    -0.01   0.01   0.01
  32   1     0.01   0.00  -0.03     0.02  -0.00  -0.02    -0.00   0.01   0.01
  33   1     0.01   0.00  -0.04     0.01  -0.01  -0.02     0.01   0.01   0.01
  34   1     0.00   0.00  -0.04    -0.00  -0.02  -0.02     0.01   0.02   0.01
  35   1    -0.00  -0.01   0.00     0.01  -0.03   0.00     0.01   0.02  -0.01
  36   1    -0.00  -0.00   0.01     0.02  -0.02   0.01     0.00   0.02  -0.01
  37   6    -0.01  -0.01  -0.06    -0.00  -0.09  -0.03     0.04   0.08  -0.00
  38   6    -0.02  -0.02  -0.08    -0.01  -0.10  -0.04     0.04   0.09   0.02
  39   6    -0.02  -0.02  -0.07    -0.02  -0.10  -0.04     0.03   0.08   0.02
  40   6    -0.02  -0.01  -0.03    -0.01  -0.10  -0.02     0.03   0.06  -0.01
  41   7    -0.01  -0.01  -0.02    -0.00  -0.11  -0.01     0.04   0.06  -0.03
  42   6    -0.00  -0.01  -0.03     0.00  -0.10  -0.02     0.04   0.06  -0.02
  43   1    -0.01  -0.01  -0.03    -0.00  -0.03  -0.02     0.01   0.03   0.01
  44   1    -0.01  -0.01  -0.02    -0.01  -0.03  -0.01     0.01   0.03   0.01
  45   1    -0.01  -0.00  -0.01    -0.00  -0.03  -0.00     0.01   0.02  -0.01
  46   1     0.00  -0.00  -0.00     0.00  -0.03  -0.00     0.01   0.02  -0.01
  47   6     0.05   0.01  -0.01     0.03  -0.05   0.09     0.01  -0.05   0.04
  48   6     0.09   0.01  -0.01     0.05  -0.05   0.08     0.02  -0.06   0.06
  49   6     0.12   0.02  -0.01     0.05  -0.04   0.06     0.03  -0.06   0.06
  50   6     0.17   0.03  -0.02     0.07  -0.06   0.04     0.08  -0.05   0.05
  51   6     0.18   0.03  -0.02     0.07  -0.06   0.00     0.10  -0.05   0.04
  52   6     0.15   0.02  -0.02     0.06  -0.03  -0.01     0.06  -0.05   0.04
  53   6     0.09   0.01  -0.01     0.05  -0.01   0.01     0.01  -0.05   0.06
  54   6     0.05   0.00  -0.00     0.03   0.02   0.01    -0.02  -0.05   0.06
  55   7     0.02  -0.00   0.01     0.03   0.05   0.03    -0.08  -0.05   0.08
  56   6     0.01  -0.00   0.01     0.04   0.04   0.05    -0.09  -0.06   0.09
  57   6     0.04   0.00   0.00     0.04   0.01   0.07    -0.07  -0.06   0.09
  58   6     0.08   0.01  -0.01     0.05  -0.01   0.05    -0.01  -0.06   0.07
  59   1     0.06   0.01  -0.01     0.02  -0.02   0.01     0.03  -0.01   0.01
  60   1     0.07   0.01  -0.01     0.02  -0.02  -0.00     0.04  -0.01   0.01
  61   1     0.04   0.01  -0.00     0.02  -0.01  -0.01     0.02  -0.01   0.01
  62   1     0.02   0.00  -0.00     0.01   0.01  -0.01    -0.00  -0.01   0.01
  63   1    -0.01  -0.00   0.00     0.01   0.02   0.02    -0.04  -0.02   0.03
  64   1     0.01  -0.00   0.00     0.01   0.00   0.03    -0.03  -0.02   0.03
  65   6     0.01   0.01   0.00     0.01  -0.05   0.08     0.00  -0.05   0.02
  66   6    -0.04   0.02   0.01    -0.02  -0.03   0.08    -0.02  -0.03   0.02
  67   6    -0.09   0.02   0.02    -0.04  -0.02   0.06    -0.03  -0.03   0.00
  68   6    -0.08   0.01   0.02    -0.04  -0.04   0.04    -0.01  -0.05  -0.02
  69   6    -0.13   0.01   0.02    -0.06  -0.04   0.03    -0.02  -0.04  -0.03
  70   6    -0.12   0.01   0.02    -0.05  -0.06   0.01    -0.02  -0.06  -0.04
  71   6    -0.07  -0.00   0.00    -0.03  -0.08   0.01     0.00  -0.07  -0.04
  72   6    -0.03  -0.00  -0.00    -0.01  -0.08   0.03     0.02  -0.07  -0.03
  73   6    -0.04   0.00   0.00    -0.01  -0.06   0.04     0.01  -0.06  -0.02
  74   6     0.01   0.00  -0.01     0.01  -0.06   0.06     0.02  -0.06  -0.00
  75   1    -0.01   0.01   0.01    -0.01  -0.00   0.03    -0.01  -0.01   0.01
  76   1    -0.04   0.01   0.01    -0.02  -0.00   0.02    -0.01  -0.01   0.00
  77   1    -0.05   0.01   0.01    -0.02  -0.01   0.01    -0.01  -0.01  -0.01
  78   1    -0.04   0.00   0.01    -0.02  -0.02  -0.00    -0.01  -0.02  -0.01
  79   1     0.00  -0.00  -0.00     0.00  -0.03   0.01     0.01  -0.02  -0.01
  80   1     0.01  -0.00  -0.00     0.01  -0.02   0.02     0.01  -0.02  -0.00
  81   6    -0.06  -0.01  -0.01    -0.03  -0.09  -0.00     0.00  -0.08  -0.04
  82   6    -0.08  -0.01  -0.02    -0.04  -0.09  -0.01    -0.02  -0.09  -0.04
  83   6    -0.06  -0.01  -0.02    -0.03  -0.10  -0.02    -0.02  -0.08  -0.04
  84   6    -0.03  -0.01  -0.02    -0.01  -0.10  -0.01     0.01  -0.06  -0.03
  85   7    -0.01  -0.00  -0.01    -0.01  -0.11  -0.01     0.03  -0.06  -0.04
  86   6    -0.03  -0.00  -0.00    -0.01  -0.10   0.00     0.02  -0.06  -0.04
  87   1    -0.03  -0.00  -0.01    -0.02  -0.03  -0.01    -0.01  -0.03  -0.01
  88   1    -0.02  -0.00  -0.01    -0.01  -0.03  -0.01    -0.01  -0.03  -0.01
  89   1    -0.00  -0.00  -0.01    -0.00  -0.03  -0.01     0.01  -0.02  -0.01
  90   1    -0.00   0.00   0.00    -0.00  -0.03   0.00     0.01  -0.02  -0.01
  91   6    -0.02   0.01   0.06    -0.09   0.05  -0.03     0.04  -0.05   0.01
  92   6    -0.03   0.01   0.10    -0.08   0.04  -0.04     0.06  -0.06   0.02
  93   6    -0.03   0.01   0.14    -0.06   0.04  -0.05     0.07  -0.06   0.03
  94   6    -0.04   0.03   0.21    -0.04   0.06  -0.07     0.05  -0.05   0.08
  95   6    -0.04   0.03   0.23    -0.01   0.06  -0.07     0.04  -0.05   0.10
  96   6    -0.03   0.02   0.18     0.00   0.03  -0.06     0.04  -0.05   0.06
  97   6    -0.02   0.01   0.12    -0.02   0.01  -0.05     0.06  -0.05   0.01
  98   6    -0.01  -0.00   0.06    -0.01  -0.02  -0.04     0.06  -0.05  -0.02
  99   7    -0.01  -0.01   0.01    -0.03  -0.05  -0.03     0.08  -0.05  -0.08
 100   6    -0.00  -0.02   0.00    -0.05  -0.04  -0.03     0.09  -0.06  -0.10
 101   6    -0.01  -0.01   0.04    -0.07  -0.01  -0.04     0.09  -0.06  -0.07
 102   6    -0.02   0.00   0.10    -0.05   0.01  -0.05     0.07  -0.06  -0.01
 103   1    -0.01   0.01   0.07    -0.01   0.02  -0.02     0.01  -0.02   0.03
 104   1    -0.01   0.01   0.08     0.00   0.02  -0.02     0.01  -0.01   0.04
 105   1    -0.01   0.01   0.06     0.01   0.01  -0.02     0.01  -0.01   0.02
 106   1    -0.00  -0.00   0.02     0.01  -0.01  -0.01     0.01  -0.01  -0.00
 107   1     0.00  -0.01  -0.01    -0.02  -0.02  -0.01     0.03  -0.02  -0.04
 108   1    -0.00  -0.00   0.01    -0.03  -0.00  -0.01     0.03  -0.02  -0.03
 109   6    -0.01   0.01   0.00    -0.08   0.04  -0.00     0.02  -0.05   0.00
 110   6     0.01   0.01  -0.06    -0.08   0.02   0.02     0.02  -0.04  -0.02
 111   6     0.02   0.02  -0.12    -0.06   0.02   0.05     0.00  -0.03  -0.03
 112   6     0.02   0.01  -0.11    -0.04   0.04   0.04    -0.01  -0.05  -0.02
 113   6     0.03   0.01  -0.17    -0.03   0.04   0.06    -0.03  -0.05  -0.02
 114   6     0.03   0.01  -0.15    -0.01   0.05   0.05    -0.04  -0.06  -0.02
 115   6     0.01   0.00  -0.09    -0.01   0.08   0.03    -0.04  -0.07   0.00
 116   6    -0.01  -0.00  -0.04    -0.03   0.08   0.01    -0.03  -0.08   0.02
 117   6    -0.00   0.00  -0.05    -0.04   0.06   0.01    -0.02  -0.06   0.01
 118   6    -0.02   0.00   0.01    -0.06   0.06  -0.01    -0.00  -0.07   0.02
 119   1     0.00   0.00  -0.02    -0.03   0.00   0.01     0.01  -0.01  -0.01
 120   1     0.01   0.01  -0.05    -0.02   0.00   0.02     0.00  -0.01  -0.01
 121   1     0.01   0.01  -0.06    -0.01   0.01   0.02    -0.01  -0.01  -0.01
 122   1     0.01   0.00  -0.06     0.00   0.01   0.02    -0.01  -0.02  -0.01
 123   1    -0.01  -0.00   0.00    -0.01   0.03  -0.00    -0.01  -0.03   0.01
 124   1    -0.01  -0.00   0.02    -0.02   0.02  -0.01    -0.00  -0.02   0.01
 125   6    -0.00   0.00  -0.07     0.00   0.09   0.03    -0.04  -0.08  -0.00
 126   6    -0.02  -0.01  -0.10     0.01   0.09   0.04    -0.04  -0.09  -0.03
 127   6    -0.02  -0.01  -0.08     0.02   0.10   0.03    -0.03  -0.08  -0.02
 128   6    -0.01   0.00  -0.03     0.01   0.10   0.01    -0.03  -0.06   0.01
 129   7    -0.00   0.01  -0.01     0.00   0.11   0.01    -0.04  -0.06   0.03
 130   6     0.00   0.01  -0.03    -0.00   0.10   0.02    -0.04  -0.06   0.02
 131   1    -0.01  -0.01  -0.04     0.00   0.03   0.02    -0.01  -0.03  -0.01
 132   1    -0.01  -0.00  -0.03     0.01   0.03   0.01    -0.01  -0.03  -0.01
 133   1    -0.00   0.00  -0.00     0.00   0.03   0.00    -0.01  -0.02   0.01
 134   1     0.00   0.01  -0.00    -0.00   0.03   0.00    -0.01  -0.02   0.01
 135   6     0.06  -0.00  -0.02    -0.03   0.05  -0.09    -0.01   0.05  -0.04
 136   6     0.10   0.00  -0.02    -0.04   0.05  -0.08    -0.02   0.06  -0.06
 137   6     0.12   0.01  -0.02    -0.05   0.04  -0.06    -0.03   0.06  -0.06
 138   6     0.18   0.02  -0.04    -0.06   0.06  -0.04    -0.08   0.05  -0.05
 139   6     0.19   0.02  -0.04    -0.06   0.06  -0.00    -0.09   0.05  -0.04
 140   6     0.15   0.01  -0.03    -0.05   0.03   0.01    -0.06   0.05  -0.04
 141   6     0.09   0.00  -0.02    -0.04   0.01  -0.01    -0.01   0.05  -0.06
 142   6     0.05  -0.01  -0.01    -0.03  -0.02  -0.01     0.02   0.05  -0.06
 143   7     0.00  -0.02  -0.00    -0.03  -0.05  -0.03     0.07   0.06  -0.08
 144   6     0.00  -0.02  -0.00    -0.04  -0.04  -0.05     0.09   0.06  -0.09
 145   6     0.04  -0.01  -0.01    -0.04  -0.01  -0.07     0.07   0.06  -0.09
 146   6     0.09  -0.00  -0.02    -0.05   0.01  -0.05     0.01   0.06  -0.07
 147   1     0.06   0.01  -0.01    -0.02   0.02  -0.01    -0.03   0.02  -0.01
 148   1     0.07   0.01  -0.01    -0.02   0.02   0.00    -0.04   0.01  -0.01
 149   1     0.05   0.00  -0.01    -0.01   0.01   0.01    -0.02   0.01  -0.01
 150   1     0.01  -0.00  -0.00    -0.01  -0.01   0.01     0.00   0.01  -0.01
 151   1    -0.01  -0.01   0.00    -0.01  -0.02  -0.02     0.04   0.02  -0.03
 152   1     0.01  -0.00  -0.00    -0.01  -0.00  -0.03     0.02   0.02  -0.03
 153   6     0.02  -0.00  -0.01    -0.01   0.05  -0.08    -0.01   0.05  -0.02
 154   6    -0.04  -0.00   0.01     0.02   0.03  -0.08     0.02   0.04  -0.02
 155   6    -0.09  -0.00   0.02     0.04   0.03  -0.06     0.02   0.03  -0.00
 156   6    -0.09  -0.01   0.02     0.03   0.04  -0.04     0.01   0.05   0.02
 157   6    -0.14  -0.01   0.03     0.05   0.04  -0.03     0.02   0.05   0.03
 158   6    -0.13  -0.01   0.02     0.05   0.06  -0.01     0.01   0.06   0.04
 159   6    -0.07  -0.01   0.01     0.03   0.08  -0.01    -0.01   0.07   0.04
 160   6    -0.03  -0.01  -0.01     0.01   0.08  -0.03    -0.02   0.08   0.03
 161   6    -0.03  -0.01  -0.00     0.01   0.06  -0.04    -0.01   0.06   0.02
 162   6     0.02  -0.01  -0.01    -0.01   0.07  -0.06    -0.02   0.07   0.00
 163   1    -0.01   0.00   0.00     0.01   0.00  -0.03     0.01   0.01  -0.01
 164   1    -0.04  -0.00   0.01     0.02   0.00  -0.02     0.01   0.01  -0.00
 165   1    -0.05  -0.00   0.01     0.02   0.01  -0.01     0.01   0.01   0.01
 166   1    -0.05  -0.00   0.01     0.02   0.02   0.00     0.01   0.02   0.01
 167   1     0.00  -0.00  -0.01    -0.00   0.03  -0.01    -0.01   0.02   0.01
 168   1     0.02  -0.00  -0.01    -0.01   0.02  -0.02    -0.01   0.02   0.00
 169   6    -0.06  -0.01   0.00     0.03   0.09   0.00    -0.00   0.08   0.05
 170   6    -0.09  -0.02  -0.01     0.04   0.10   0.01     0.02   0.09   0.04
 171   6    -0.08  -0.02  -0.01     0.03   0.10   0.02     0.02   0.08   0.04
 172   6    -0.03  -0.01  -0.00     0.01   0.10   0.01    -0.01   0.06   0.04
 173   7    -0.01   0.00   0.00     0.01   0.11   0.00    -0.03   0.06   0.04
 174   6    -0.02   0.00   0.01     0.01   0.10  -0.00    -0.03   0.06   0.04
 175   1    -0.04  -0.01  -0.00     0.01   0.03   0.00     0.01   0.03   0.01
 176   1    -0.03  -0.01  -0.00     0.01   0.03   0.01     0.01   0.03   0.01
 177   1    -0.01  -0.00  -0.00     0.00   0.03   0.00    -0.01   0.02   0.01
 178   1    -0.00   0.00   0.00     0.00   0.03  -0.00    -0.01   0.02   0.01
                     10                     11                     12
                        a                      a                      a 
 Frequencies --    25.1340                26.7027                27.0706
 Red. masses --    11.8641                11.9009                26.3113
 Frc consts  --     0.0000                 0.0000                 0.0000
 IR Inten    --     0.1270                 0.0040                 0.0027
 Raman Activ --     0.0000                 0.0000                 0.0000
 Depolar     --     0.0000                 0.0000                 0.0000
 Atom AN      X      Y      Z        X      Y      Z        X      Y      Z
   1  46     0.04  -0.00  -0.04    -0.05   0.04   0.01     0.11  -0.23   0.11
   2  46     0.03   0.00  -0.03     0.05  -0.04  -0.01    -0.11   0.23  -0.11
   3   6    -0.02   0.09  -0.02    -0.03   0.02   0.12     0.04   0.06   0.02
   4   6    -0.04   0.09  -0.01    -0.02   0.02   0.09    -0.01   0.06   0.01
   5   6    -0.03   0.09   0.00    -0.01   0.01   0.05    -0.03   0.07   0.01
   6   6    -0.02   0.12   0.04     0.00   0.01   0.02    -0.05   0.06   0.03
   7   6     0.01   0.12   0.05     0.02  -0.00  -0.05    -0.06   0.06   0.02
   8   6     0.02   0.09   0.04     0.02  -0.01  -0.08    -0.07   0.07  -0.00
   9   6     0.01   0.06   0.00     0.02  -0.01  -0.05    -0.05   0.08  -0.02
  10   6     0.03   0.03  -0.01     0.02  -0.02  -0.08    -0.06   0.09  -0.04
  11   7     0.02   0.00  -0.04     0.02  -0.01  -0.05    -0.05   0.11  -0.05
  12   6    -0.01   0.00  -0.06     0.00   0.00   0.01    -0.03   0.10  -0.04
  13   6    -0.02   0.03  -0.05    -0.00   0.01   0.04    -0.03   0.09  -0.02
  14   6    -0.01   0.06  -0.01     0.00   0.01   0.01    -0.04   0.08  -0.01
  15   1    -0.01   0.04   0.01    -0.00   0.00   0.01    -0.01   0.01   0.01
  16   1     0.01   0.04   0.02     0.01  -0.00  -0.02    -0.02   0.01   0.01
  17   1     0.01   0.03   0.01     0.01  -0.01  -0.04    -0.02   0.02  -0.00
  18   1     0.01   0.01  -0.00     0.01  -0.01  -0.04    -0.02   0.03  -0.01
  19   1    -0.00  -0.01  -0.02    -0.00   0.00   0.01    -0.01   0.03  -0.01
  20   1    -0.01   0.01  -0.02    -0.00   0.01   0.02    -0.00   0.03  -0.00
  21   6    -0.01   0.09  -0.02    -0.03   0.02   0.11     0.06   0.06   0.01
  22   6    -0.01   0.08  -0.02    -0.04   0.04   0.11     0.06   0.06   0.00
  23   6     0.00   0.08  -0.01    -0.04   0.04   0.07     0.06   0.06  -0.00
  24   6     0.01   0.09  -0.01    -0.04   0.03   0.02     0.06   0.06  -0.00
  25   6     0.02   0.09   0.01    -0.03   0.03  -0.04     0.05   0.06  -0.00
  26   6     0.02   0.09   0.02    -0.03   0.02  -0.09     0.05   0.05   0.00
  27   6     0.02   0.10   0.01    -0.03   0.01  -0.07     0.04   0.05   0.01
  28   6     0.02   0.10  -0.01    -0.03   0.00  -0.01     0.05   0.05   0.01
  29   6     0.01   0.10  -0.02    -0.03   0.01   0.03     0.06   0.05   0.00
  30   6     0.00   0.10  -0.03    -0.03   0.01   0.08     0.06   0.06   0.01
  31   1    -0.00   0.02  -0.00    -0.01   0.01   0.04     0.02   0.02   0.00
  32   1     0.00   0.02  -0.00    -0.01   0.01   0.02     0.02   0.02  -0.00
  33   1     0.00   0.02   0.00    -0.01   0.01  -0.01     0.02   0.02  -0.00
  34   1     0.01   0.03   0.01    -0.01   0.01  -0.04     0.01   0.02   0.00
  35   1     0.00   0.03  -0.01    -0.01  -0.00   0.00     0.02   0.01   0.00
  36   1    -0.00   0.03  -0.01    -0.01   0.00   0.02     0.02   0.02   0.00
  37   6     0.01   0.10   0.03    -0.02  -0.01  -0.10     0.03   0.03   0.03
  38   6    -0.01   0.12   0.07    -0.03  -0.04  -0.18    -0.00   0.04   0.04
  39   6    -0.03   0.10   0.08    -0.03  -0.05  -0.20    -0.02   0.01   0.03
  40   6    -0.03   0.06   0.05    -0.03  -0.02  -0.14    -0.01  -0.02   0.02
  41   7    -0.00   0.05   0.02    -0.02   0.01  -0.07     0.02  -0.03   0.02
  42   6     0.01   0.06   0.01    -0.02   0.02  -0.05     0.04  -0.00   0.02
  43   1    -0.01   0.04   0.03    -0.01  -0.02  -0.07    -0.00   0.02   0.01
  44   1    -0.01   0.03   0.03    -0.01  -0.02  -0.08    -0.01   0.01   0.01
  45   1    -0.01   0.01   0.01    -0.01  -0.01  -0.04    -0.01  -0.01   0.01
  46   1     0.01   0.01  -0.00    -0.00   0.01   0.00     0.02  -0.00   0.01
  47   6     0.02  -0.09   0.02    -0.11  -0.04   0.01    -0.02   0.05   0.05
  48   6     0.01  -0.09   0.04    -0.09  -0.04   0.02    -0.01   0.06  -0.00
  49   6     0.00  -0.09   0.03    -0.05  -0.04   0.02    -0.00   0.06  -0.03
  50   6    -0.03  -0.12   0.01    -0.03  -0.03   0.01     0.02   0.05  -0.04
  51   6    -0.05  -0.12  -0.02     0.03  -0.02   0.01     0.03   0.06  -0.06
  52   6    -0.03  -0.09  -0.03     0.08  -0.01   0.00     0.02   0.07  -0.07
  53   6     0.00  -0.06  -0.02     0.06  -0.02   0.00    -0.00   0.08  -0.05
  54   6     0.01  -0.03  -0.03     0.09  -0.01  -0.00    -0.01   0.10  -0.06
  55   7     0.04   0.00  -0.02     0.07  -0.02   0.00    -0.03   0.11  -0.05
  56   6     0.05   0.00   0.01     0.01  -0.04   0.01    -0.04   0.10  -0.03
  57   6     0.05  -0.03   0.02    -0.03  -0.04   0.01    -0.03   0.09  -0.02
  58   6     0.02  -0.06   0.01    -0.01  -0.03   0.01    -0.01   0.08  -0.03
  59   1    -0.01  -0.04   0.01    -0.02  -0.01   0.01     0.01   0.01  -0.01
  60   1    -0.02  -0.04  -0.01     0.01  -0.00   0.00     0.01   0.02  -0.02
  61   1    -0.01  -0.03  -0.01     0.04  -0.00  -0.00     0.01   0.02  -0.02
  62   1     0.00  -0.01  -0.01     0.04  -0.00  -0.00    -0.00   0.03  -0.02
  63   1     0.02   0.01   0.01    -0.00  -0.01   0.00    -0.01   0.03  -0.01
  64   1     0.02  -0.01   0.01    -0.02  -0.02   0.01    -0.01   0.02  -0.00
  65   6     0.02  -0.09   0.01    -0.10  -0.04   0.01    -0.02   0.05   0.07
  66   6     0.01  -0.08   0.01    -0.10  -0.06   0.02    -0.03   0.04   0.07
  67   6     0.01  -0.08  -0.00    -0.06  -0.06   0.02    -0.03   0.04   0.07
  68   6     0.01  -0.09  -0.01    -0.02  -0.05   0.01    -0.01   0.05   0.07
  69   6    -0.00  -0.09  -0.02     0.04  -0.05   0.01     0.01   0.05   0.06
  70   6    -0.01  -0.09  -0.02     0.08  -0.04   0.00     0.03   0.05   0.05
  71   6    -0.01  -0.10  -0.02     0.06  -0.02   0.01     0.03   0.05   0.05
  72   6     0.01  -0.10  -0.02     0.00  -0.02   0.01     0.01   0.05   0.06
  73   6     0.02  -0.10  -0.01    -0.03  -0.03   0.01    -0.01   0.05   0.07
  74   6     0.02  -0.10  -0.00    -0.07  -0.03   0.01    -0.02   0.05   0.07
  75   1     0.00  -0.02   0.00    -0.04  -0.02   0.01    -0.01   0.01   0.02
  76   1     0.00  -0.02  -0.00    -0.02  -0.02   0.01    -0.01   0.01   0.02
  77   1    -0.00  -0.02  -0.01     0.02  -0.02   0.00     0.00   0.01   0.02
  78   1    -0.01  -0.03  -0.01     0.04  -0.01   0.00     0.01   0.01   0.01
  79   1     0.01  -0.03  -0.01    -0.00  -0.00   0.00     0.00   0.01   0.02
  80   1     0.01  -0.03   0.00    -0.02  -0.01   0.00    -0.00   0.02   0.02
  81   6    -0.03  -0.10  -0.01     0.09  -0.01   0.01     0.06   0.04   0.04
  82   6    -0.06  -0.12   0.01     0.16   0.02   0.03     0.09   0.06   0.01
  83   6    -0.07  -0.10   0.03     0.17   0.04   0.03     0.10   0.03  -0.01
  84   6    -0.04  -0.06   0.02     0.12   0.03   0.03     0.07  -0.01  -0.01
  85   7    -0.02  -0.05   0.00     0.06   0.00   0.01     0.05  -0.03   0.02
  86   6    -0.01  -0.07  -0.01     0.04  -0.01   0.00     0.04  -0.01   0.04
  87   1    -0.02  -0.04   0.01     0.06   0.01   0.01     0.03   0.03   0.00
  88   1    -0.03  -0.03   0.01     0.07   0.02   0.01     0.04   0.01  -0.01
  89   1    -0.01  -0.01   0.01     0.04   0.01   0.01     0.02  -0.01  -0.01
  90   1     0.00  -0.01  -0.01    -0.00  -0.01  -0.00     0.01  -0.01   0.02
  91   6    -0.02   0.09  -0.01     0.02  -0.02  -0.12    -0.04  -0.06  -0.02
  92   6    -0.04   0.09  -0.01     0.01  -0.01  -0.09     0.01  -0.07  -0.02
  93   6    -0.03   0.09   0.00     0.00  -0.01  -0.05     0.03  -0.07  -0.02
  94   6    -0.01   0.12   0.04    -0.00  -0.01  -0.02     0.05  -0.06  -0.03
  95   6     0.01   0.12   0.05    -0.01   0.01   0.04     0.06  -0.06  -0.02
  96   6     0.03   0.09   0.03    -0.02   0.01   0.08     0.07  -0.07   0.00
  97   6     0.02   0.06  -0.00    -0.01   0.01   0.05     0.05  -0.08   0.02
  98   6     0.03   0.03  -0.02    -0.02   0.02   0.08     0.05  -0.09   0.04
  99   7     0.02  -0.00  -0.04    -0.01   0.01   0.05     0.05  -0.11   0.05
 100   6    -0.01  -0.00  -0.06    -0.00  -0.00  -0.01     0.03  -0.10   0.04
 101   6    -0.02   0.03  -0.04     0.00  -0.01  -0.04     0.03  -0.09   0.02
 102   6    -0.01   0.06  -0.01    -0.00  -0.00  -0.01     0.04  -0.08   0.01
 103   1    -0.01   0.04   0.01     0.00  -0.00  -0.01     0.01  -0.01  -0.01
 104   1     0.01   0.04   0.02    -0.00   0.00   0.02     0.02  -0.01  -0.01
 105   1     0.01   0.03   0.01    -0.01   0.01   0.04     0.02  -0.02   0.00
 106   1     0.01   0.01  -0.00    -0.01   0.01   0.04     0.02  -0.03   0.02
 107   1    -0.01  -0.01  -0.02    -0.00  -0.00  -0.01     0.01  -0.03   0.01
 108   1    -0.01   0.01  -0.02     0.00  -0.00  -0.02     0.01  -0.03   0.00
 109   6    -0.01   0.09  -0.01     0.03  -0.02  -0.11    -0.06  -0.06  -0.01
 110   6    -0.01   0.08  -0.01     0.04  -0.03  -0.11    -0.06  -0.06  -0.01
 111   6     0.00   0.08  -0.01     0.04  -0.03  -0.07    -0.06  -0.06   0.00
 112   6     0.01   0.09  -0.01     0.04  -0.02  -0.02    -0.06  -0.06   0.00
 113   6     0.01   0.09   0.00     0.03  -0.03   0.04    -0.05  -0.06   0.01
 114   6     0.01   0.09   0.01     0.02  -0.02   0.09    -0.05  -0.06  -0.00
 115   6     0.01   0.10   0.01     0.02  -0.00   0.07    -0.05  -0.05  -0.01
 116   6     0.01   0.10  -0.01     0.03   0.00   0.01    -0.05  -0.05  -0.01
 117   6     0.01   0.10  -0.01     0.03  -0.01  -0.03    -0.06  -0.06  -0.01
 118   6    -0.00   0.10  -0.02     0.03  -0.01  -0.08    -0.06  -0.06  -0.01
 119   1    -0.00   0.02  -0.00     0.01  -0.01  -0.04    -0.02  -0.02  -0.00
 120   1     0.00   0.02  -0.00     0.01  -0.01  -0.02    -0.02  -0.02   0.00
 121   1     0.00   0.02   0.00     0.01  -0.01   0.01    -0.02  -0.02   0.00
 122   1     0.01   0.03   0.01     0.01  -0.01   0.04    -0.01  -0.02   0.00
 123   1     0.00   0.03  -0.00     0.01   0.00  -0.00    -0.02  -0.01  -0.00
 124   1    -0.00   0.03  -0.01     0.01   0.00  -0.02    -0.02  -0.02  -0.01
 125   6     0.00   0.10   0.03     0.02   0.01   0.10    -0.03  -0.03  -0.02
 126   6    -0.02   0.11   0.06     0.03   0.04   0.18     0.00  -0.04  -0.03
 127   6    -0.04   0.10   0.07     0.03   0.05   0.20     0.02  -0.01  -0.03
 128   6    -0.03   0.06   0.04     0.02   0.02   0.14     0.01   0.02  -0.02
 129   7    -0.00   0.05   0.02     0.02  -0.01   0.07    -0.02   0.03  -0.02
 130   6     0.01   0.06   0.01     0.02  -0.01   0.05    -0.04   0.00  -0.02
 131   1    -0.01   0.04   0.02     0.01   0.02   0.07     0.00  -0.02  -0.01
 132   1    -0.02   0.03   0.03     0.01   0.02   0.08     0.01  -0.01  -0.01
 133   1    -0.01   0.01   0.01     0.01   0.01   0.04     0.01   0.01  -0.01
 134   1     0.01   0.02  -0.00     0.00  -0.01  -0.00    -0.02   0.00  -0.01
 135   6     0.02  -0.09   0.02     0.11   0.04  -0.01     0.02  -0.05  -0.05
 136   6     0.01  -0.09   0.04     0.09   0.04  -0.02     0.02  -0.05   0.00
 137   6    -0.00  -0.09   0.02     0.05   0.03  -0.01     0.01  -0.06   0.03
 138   6    -0.04  -0.12   0.01     0.03   0.03  -0.01    -0.02  -0.05   0.04
 139   6    -0.05  -0.12  -0.01    -0.03   0.01  -0.01    -0.03  -0.06   0.06
 140   6    -0.03  -0.09  -0.03    -0.08   0.01  -0.00    -0.02  -0.07   0.07
 141   6    -0.00  -0.06  -0.02    -0.05   0.02  -0.00     0.00  -0.08   0.05
 142   6     0.01  -0.03  -0.03    -0.09   0.01   0.00     0.01  -0.10   0.06
 143   7     0.04   0.00  -0.02    -0.07   0.02  -0.00     0.03  -0.11   0.05
 144   6     0.05   0.00   0.01    -0.00   0.04  -0.01     0.04  -0.10   0.03
 145   6     0.04  -0.03   0.02     0.03   0.04  -0.01     0.03  -0.09   0.02
 146   6     0.01  -0.06   0.01     0.01   0.03  -0.01     0.01  -0.08   0.03
 147   1    -0.01  -0.04   0.01     0.02   0.01  -0.01    -0.01  -0.01   0.01
 148   1    -0.02  -0.04  -0.01    -0.01   0.00  -0.00    -0.01  -0.01   0.02
 149   1    -0.01  -0.03  -0.01    -0.04  -0.00   0.00    -0.01  -0.02   0.02
 150   1     0.00  -0.01  -0.01    -0.04  -0.00   0.00     0.00  -0.03   0.02
 151   1     0.02   0.01   0.00     0.00   0.01  -0.00     0.01  -0.03   0.01
 152   1     0.02  -0.01   0.01     0.02   0.02  -0.00     0.01  -0.02   0.00
 153   6     0.02  -0.09   0.01     0.10   0.04  -0.01     0.03  -0.04  -0.07
 154   6     0.01  -0.08   0.00     0.10   0.05  -0.02     0.03  -0.04  -0.07
 155   6     0.01  -0.08  -0.01     0.06   0.05  -0.02     0.03  -0.04  -0.07
 156   6     0.01  -0.09  -0.01     0.02   0.04  -0.01     0.01  -0.04  -0.07
 157   6     0.00  -0.09  -0.02    -0.04   0.05  -0.01    -0.01  -0.04  -0.06
 158   6    -0.01  -0.09  -0.02    -0.08   0.03  -0.01    -0.03  -0.04  -0.05
 159   6    -0.01  -0.10  -0.02    -0.06   0.02  -0.01    -0.04  -0.05  -0.05
 160   6     0.01  -0.10  -0.02    -0.00   0.01  -0.01    -0.01  -0.05  -0.06
 161   6     0.02  -0.10  -0.01     0.03   0.03  -0.01     0.01  -0.05  -0.07
 162   6     0.02  -0.10  -0.00     0.07   0.03  -0.01     0.02  -0.05  -0.07
 163   1     0.00  -0.02   0.00     0.04   0.02  -0.01     0.01  -0.01  -0.02
 164   1     0.00  -0.02  -0.00     0.02   0.02  -0.01     0.01  -0.01  -0.02
 165   1    -0.00  -0.02  -0.01    -0.02   0.02  -0.00    -0.00  -0.01  -0.02
 166   1    -0.01  -0.03  -0.01    -0.04   0.01  -0.00    -0.02  -0.01  -0.01
 167   1     0.01  -0.03  -0.01     0.00   0.00  -0.00    -0.00  -0.01  -0.02
 168   1     0.01  -0.03  -0.00     0.02   0.01  -0.00     0.00  -0.01  -0.02
 169   6    -0.02  -0.10  -0.01    -0.09   0.00  -0.01    -0.06  -0.03  -0.04
 170   6    -0.05  -0.12   0.01    -0.16  -0.03  -0.03    -0.09  -0.06  -0.01
 171   6    -0.06  -0.10   0.03    -0.18  -0.05  -0.04    -0.10  -0.03   0.01
 172   6    -0.04  -0.06   0.03    -0.12  -0.03  -0.03    -0.07   0.01   0.00
 173   7    -0.01  -0.05   0.00    -0.06  -0.00  -0.01    -0.05   0.03  -0.02
 174   6    -0.01  -0.06  -0.01    -0.04   0.01  -0.01    -0.04   0.01  -0.04
 175   1    -0.02  -0.04   0.01    -0.06  -0.01  -0.01    -0.03  -0.03  -0.00
 176   1    -0.02  -0.03   0.01    -0.07  -0.02  -0.01    -0.04  -0.01   0.01
 177   1    -0.01  -0.01   0.01    -0.04  -0.01  -0.01    -0.02   0.01   0.01
 178   1     0.00  -0.01  -0.01     0.00   0.01   0.00    -0.01   0.01  -0.02
                     13                     14                     15
                        a                      a                      a 
 Frequencies --    30.6579                34.4681                37.4548
 Red. masses --    11.2048                12.2493                10.8047
 Frc consts  --     0.0000                 0.0000                 0.0000
 IR Inten    --     0.0526                 0.1889                 0.0024
 Raman Activ --     0.0000                 0.0000                 0.0000
 Depolar     --     0.0000                 0.0000                 0.0000
 Atom AN      X      Y      Z        X      Y      Z        X      Y      Z
   1  46     0.02   0.00  -0.03    -0.03  -0.07  -0.03     0.02  -0.00  -0.02
   2  46     0.03  -0.00  -0.02    -0.03  -0.08  -0.03    -0.02  -0.00   0.02
   3   6     0.01  -0.04  -0.07    -0.01  -0.01  -0.11    -0.02   0.01  -0.07
   4   6     0.02  -0.04  -0.04    -0.02  -0.00  -0.07    -0.02   0.01  -0.07
   5   6     0.01  -0.04   0.01    -0.03   0.01  -0.01    -0.02   0.01  -0.04
   6   6    -0.01  -0.03   0.10    -0.03   0.03   0.06    -0.03   0.03   0.04
   7   6    -0.03  -0.01   0.16    -0.04   0.04   0.13    -0.03   0.04   0.09
   8   6    -0.03  -0.01   0.13    -0.03   0.03   0.13    -0.03   0.03   0.08
   9   6    -0.01  -0.02   0.04    -0.02   0.01   0.06    -0.02   0.01  -0.00
  10   6    -0.01  -0.02   0.01    -0.02  -0.00   0.05    -0.02   0.01  -0.01
  11   7     0.01  -0.02  -0.07    -0.02  -0.02  -0.01    -0.01  -0.01  -0.08
  12   6     0.04  -0.04  -0.12    -0.01  -0.03  -0.06     0.00  -0.03  -0.14
  13   6     0.04  -0.05  -0.11    -0.02  -0.02  -0.07    -0.00  -0.02  -0.14
  14   6     0.01  -0.04  -0.03    -0.02  -0.00  -0.01    -0.01  -0.00  -0.07
  15   1    -0.00  -0.01   0.04    -0.01   0.01   0.02    -0.01   0.01   0.02
  16   1    -0.01  -0.00   0.07    -0.01   0.02   0.06    -0.01   0.02   0.05
  17   1    -0.01  -0.00   0.05    -0.01   0.01   0.05    -0.01   0.01   0.04
  18   1    -0.01  -0.00   0.02    -0.01   0.00   0.02    -0.01   0.00   0.01
  19   1     0.01  -0.01  -0.05    -0.00  -0.01  -0.03     0.00  -0.01  -0.06
  20   1     0.02  -0.02  -0.05    -0.00  -0.01  -0.03     0.00  -0.01  -0.06
  21   6     0.02  -0.05  -0.07    -0.00  -0.01  -0.11    -0.02   0.01  -0.04
  22   6     0.03  -0.05  -0.11    -0.00  -0.02  -0.09    -0.06   0.00   0.08
  23   6     0.03  -0.06  -0.08    -0.00  -0.02  -0.04    -0.07   0.00   0.13
  24   6     0.02  -0.05  -0.03    -0.00  -0.01  -0.01    -0.05   0.01   0.06
  25   6     0.02  -0.05   0.01    -0.01  -0.02   0.06    -0.06   0.01   0.11
  26   6     0.02  -0.04   0.05    -0.01  -0.01   0.09    -0.04   0.01   0.06
  27   6     0.01  -0.03   0.06    -0.00   0.01   0.05    -0.00   0.01  -0.05
  28   6     0.00  -0.03   0.03     0.01   0.01  -0.03     0.01   0.01  -0.11
  29   6     0.01  -0.04  -0.01     0.01   0.00  -0.05    -0.00   0.01  -0.06
  30   6     0.01  -0.04  -0.03     0.01   0.00  -0.10     0.01   0.01  -0.12
  31   1     0.01  -0.02  -0.04    -0.00  -0.01  -0.03    -0.02   0.00   0.04
  32   1     0.01  -0.02  -0.03    -0.00  -0.01  -0.01    -0.03  -0.00   0.07
  33   1     0.01  -0.02  -0.00    -0.01  -0.01   0.03    -0.03   0.00   0.06
  34   1     0.01  -0.01   0.02    -0.01  -0.00   0.05    -0.02   0.00   0.03
  35   1    -0.00  -0.01   0.01     0.01   0.01  -0.02     0.01   0.01  -0.06
  36   1    -0.00  -0.01  -0.00     0.00   0.00  -0.04     0.01   0.00  -0.06
  37   6     0.01  -0.02   0.08    -0.01   0.02   0.07     0.00   0.01  -0.07
  38   6     0.03  -0.00   0.12    -0.00   0.06   0.17     0.00   0.03  -0.03
  39   6     0.04   0.01   0.13    -0.01   0.06   0.18    -0.00   0.02  -0.03
  40   6     0.03   0.01   0.09    -0.01   0.02   0.10    -0.00   0.01  -0.05
  41   7     0.02  -0.00   0.06    -0.01  -0.02   0.01    -0.00  -0.00  -0.09
  42   6     0.01  -0.01   0.06    -0.01  -0.02  -0.00     0.00  -0.01  -0.09
  43   1     0.01   0.00   0.04     0.00   0.03   0.07     0.00   0.01  -0.00
  44   1     0.01   0.01   0.05    -0.00   0.03   0.07    -0.00   0.01  -0.00
  45   1     0.01   0.01   0.03    -0.00   0.00   0.03    -0.00   0.00  -0.01
  46   1    -0.00  -0.01   0.01    -0.00  -0.02  -0.02     0.00  -0.01  -0.04
  47   6     0.06   0.04  -0.01    -0.11  -0.01  -0.01     0.08  -0.01   0.02
  48   6     0.04   0.04  -0.02    -0.07  -0.00  -0.02     0.08  -0.01   0.02
  49   6    -0.01   0.04  -0.01    -0.01   0.01  -0.03     0.04  -0.01   0.02
  50   6    -0.10   0.02   0.01     0.06   0.03  -0.03    -0.05  -0.03   0.03
  51   6    -0.16   0.01   0.03     0.13   0.04  -0.03    -0.11  -0.04   0.04
  52   6    -0.13   0.01   0.03     0.13   0.03  -0.03    -0.09  -0.03   0.03
  53   6    -0.04   0.02   0.01     0.06   0.01  -0.02    -0.00  -0.01   0.02
  54   6    -0.01   0.02   0.01     0.05   0.00  -0.02     0.00  -0.01   0.02
  55   7     0.07   0.02  -0.01    -0.00  -0.02  -0.02     0.08   0.01   0.01
  56   6     0.12   0.04  -0.03    -0.05  -0.03  -0.02     0.15   0.03   0.00
  57   6     0.11   0.05  -0.03    -0.06  -0.02  -0.02     0.15   0.02   0.00
  58   6     0.03   0.04  -0.01    -0.01  -0.00  -0.02     0.07   0.00   0.02
  59   1    -0.04   0.01   0.00     0.02   0.01  -0.01    -0.02  -0.01   0.01
  60   1    -0.07   0.00   0.01     0.05   0.02  -0.01    -0.05  -0.02   0.01
  61   1    -0.05  -0.00   0.01     0.05   0.01  -0.01    -0.04  -0.01   0.01
  62   1    -0.02   0.00   0.01     0.03   0.00  -0.01    -0.01  -0.01   0.01
  63   1     0.05   0.01  -0.01    -0.02  -0.01  -0.00     0.06   0.01  -0.00
  64   1     0.05   0.02  -0.01    -0.03  -0.01  -0.01     0.06   0.01  -0.00
  65   6     0.07   0.04  -0.01    -0.11  -0.01   0.00     0.05  -0.01   0.02
  66   6     0.10   0.06  -0.03    -0.10  -0.02   0.00    -0.07  -0.00   0.06
  67   6     0.08   0.06  -0.03    -0.05  -0.02   0.00    -0.12  -0.00   0.07
  68   6     0.03   0.05  -0.02    -0.02  -0.01   0.00    -0.06  -0.00   0.05
  69   6    -0.01   0.05  -0.02     0.05  -0.02  -0.01    -0.11  -0.00   0.06
  70   6    -0.05   0.04  -0.02     0.09  -0.01  -0.01    -0.06  -0.01   0.04
  71   6    -0.06   0.03  -0.01     0.05   0.01  -0.00     0.04  -0.01   0.00
  72   6    -0.03   0.03  -0.00    -0.02   0.01   0.01     0.11  -0.01  -0.02
  73   6     0.01   0.04  -0.01    -0.05   0.00   0.01     0.07  -0.01   0.00
  74   6     0.03   0.04  -0.00    -0.10   0.01   0.01     0.12  -0.01  -0.01
  75   1     0.04   0.02  -0.01    -0.03  -0.01   0.00    -0.04   0.00   0.02
  76   1     0.03   0.02  -0.01    -0.01  -0.01   0.00    -0.06   0.00   0.03
  77   1     0.00   0.02  -0.01     0.02  -0.01  -0.00    -0.06   0.00   0.03
  78   1    -0.02   0.01  -0.01     0.05  -0.00  -0.01    -0.03  -0.00   0.02
  79   1    -0.01   0.00   0.00    -0.02   0.01   0.00     0.06  -0.01  -0.01
  80   1     0.00   0.01   0.00    -0.03   0.00   0.00     0.06  -0.00  -0.01
  81   6    -0.08   0.01  -0.01     0.08   0.02  -0.01     0.06  -0.01  -0.00
  82   6    -0.12  -0.00  -0.03     0.17   0.06  -0.01     0.02  -0.03  -0.00
  83   6    -0.12  -0.01  -0.03     0.19   0.06  -0.01     0.02  -0.03  -0.00
  84   6    -0.09  -0.01  -0.03     0.10   0.02  -0.01     0.04  -0.01  -0.00
  85   7    -0.06  -0.00  -0.02     0.02  -0.02  -0.01     0.09   0.00  -0.00
  86   6    -0.06   0.01  -0.01     0.01  -0.02  -0.01     0.09   0.01  -0.00
  87   1    -0.04  -0.00  -0.01     0.07   0.03  -0.00    -0.00  -0.01  -0.00
  88   1    -0.04  -0.01  -0.01     0.07   0.03  -0.00    -0.00  -0.01  -0.00
  89   1    -0.03  -0.01  -0.01     0.03   0.00  -0.00     0.01  -0.00  -0.00
  90   1    -0.01   0.01   0.00    -0.02  -0.01  -0.00     0.04   0.01  -0.00
  91   6     0.01  -0.04  -0.07    -0.01  -0.00  -0.10     0.02  -0.01   0.07
  92   6     0.02  -0.04  -0.04    -0.02   0.00  -0.07     0.02  -0.01   0.07
  93   6     0.01  -0.04   0.01    -0.03   0.01  -0.01     0.02  -0.01   0.04
  94   6    -0.01  -0.03   0.10    -0.03   0.02   0.06     0.03  -0.03  -0.04
  95   6    -0.03  -0.02   0.16    -0.03   0.03   0.12     0.04  -0.04  -0.10
  96   6    -0.03  -0.01   0.13    -0.03   0.03   0.12     0.03  -0.03  -0.09
  97   6    -0.01  -0.02   0.04    -0.02   0.01   0.06     0.02  -0.01  -0.00
  98   6    -0.01  -0.02   0.01    -0.02  -0.00   0.05     0.02  -0.01   0.01
[...]
 110   6    -0.00   0.00  -0.00     0.00  -0.00   0.00     0.00  -0.00   0.00
 111   6    -0.00  -0.00  -0.00     0.00   0.00   0.00     0.00   0.00   0.00
 112   6    -0.00  -0.00  -0.00     0.00   0.00   0.00     0.00  -0.00  -0.00
 113   6    -0.00  -0.00  -0.00     0.00   0.00   0.00     0.00   0.00   0.00
 114   6    -0.00  -0.00  -0.00     0.00   0.00   0.00     0.00   0.00   0.00
 115   6     0.00  -0.00   0.00    -0.00  -0.00  -0.00     0.00   0.00  -0.00
 116   6     0.00   0.00   0.00     0.00   0.00   0.00    -0.00  -0.00  -0.00
 117   6    -0.00   0.00   0.00     0.00   0.00   0.00    -0.00  -0.00  -0.00
 118   6    -0.00  -0.00  -0.00     0.00   0.00   0.00    -0.00  -0.00  -0.00
 119   1     0.00  -0.00   0.00    -0.00   0.00  -0.00    -0.00   0.00  -0.00
 120   1     0.00   0.00   0.00    -0.00  -0.00  -0.00    -0.00  -0.00  -0.00
 121   1     0.00   0.00   0.00    -0.00  -0.00  -0.00    -0.00  -0.00  -0.00
 122   1     0.00   0.00   0.00    -0.00  -0.00  -0.00    -0.00  -0.00  -0.00
 123   1    -0.00  -0.00  -0.00    -0.00  -0.00  -0.00     0.00   0.00   0.00
 124   1     0.00   0.00   0.00    -0.00  -0.00  -0.00     0.00   0.00   0.00
 125   6     0.00  -0.00   0.00    -0.00   0.00  -0.00     0.00  -0.00   0.00
 126   6     0.00   0.00  -0.00    -0.00  -0.00   0.00     0.01   0.00  -0.00
 127   6     0.00   0.00  -0.00    -0.00  -0.00   0.00     0.00   0.01  -0.00
 128   6    -0.00  -0.00   0.00     0.00  -0.00   0.00    -0.00   0.00  -0.00
 129   7    -0.00  -0.00  -0.00    -0.00   0.00  -0.00     0.00  -0.00   0.00
 130   6    -0.00  -0.00   0.00     0.00  -0.00   0.00    -0.00  -0.00   0.00
 131   1    -0.00  -0.00   0.00     0.00   0.00  -0.00    -0.02  -0.01   0.00
 132   1    -0.00  -0.00   0.00     0.00   0.00  -0.00    -0.01  -0.04   0.02
 133   1     0.00   0.00  -0.00    -0.00   0.00  -0.00     0.00  -0.00   0.00
 134   1     0.00   0.00  -0.00     0.00   0.00   0.00     0.00   0.00  -0.00
 135   6    -0.00  -0.00  -0.00     0.00  -0.00  -0.00     0.00   0.00   0.00
 136   6    -0.00   0.00   0.00    -0.00   0.00   0.00    -0.00   0.00  -0.00
 137   6     0.00  -0.00  -0.00    -0.00   0.00  -0.00    -0.00   0.00   0.00
 138   6    -0.00  -0.00  -0.00     0.00   0.00   0.01     0.00   0.00   0.00
 139   6    -0.00   0.00  -0.00     0.00  -0.00   0.01     0.00  -0.00   0.00
 140   6    -0.00   0.00   0.00     0.00  -0.01  -0.00     0.00  -0.00  -0.00
 141   6    -0.00   0.00   0.00    -0.00   0.00   0.00    -0.00  -0.00  -0.00
 142   6    -0.00   0.00   0.00    -0.00   0.00   0.00    -0.00   0.00  -0.00
 143   7    -0.00   0.00  -0.00    -0.00   0.00  -0.00     0.00  -0.00   0.00
 144   6     0.00  -0.00   0.00     0.01  -0.01   0.02    -0.00   0.00  -0.00
 145   6     0.00  -0.02  -0.00     0.06  -0.26  -0.05    -0.00   0.00   0.00
 146   6    -0.00  -0.00  -0.00    -0.00  -0.00  -0.01    -0.00   0.00   0.00
 147   1     0.00   0.00   0.00    -0.00  -0.01  -0.02    -0.00  -0.00  -0.00
 148   1     0.00  -0.00   0.00    -0.01   0.02  -0.02    -0.00   0.00  -0.00
 149   1     0.00  -0.00  -0.00    -0.01   0.04   0.01    -0.00   0.00   0.00
 150   1     0.00  -0.00   0.00     0.00  -0.00   0.00     0.00  -0.00  -0.00
 151   1    -0.00   0.00  -0.00    -0.01   0.02  -0.03     0.00  -0.00   0.00
 152   1    -0.01   0.05   0.01    -0.21   0.92   0.14     0.00  -0.01  -0.00
 153   6     0.00  -0.00  -0.00     0.00   0.00  -0.00    -0.00  -0.00  -0.00
 154   6    -0.00   0.00  -0.00    -0.00   0.00  -0.00     0.00   0.00   0.00
 155   6    -0.00  -0.00  -0.00    -0.00   0.00  -0.00    -0.00  -0.00  -0.00
 156   6    -0.00  -0.00  -0.00     0.00   0.00   0.00     0.00   0.00   0.00
 157   6    -0.00  -0.00  -0.00     0.00   0.00   0.00    -0.00  -0.00  -0.00
 158   6    -0.00  -0.00  -0.00     0.00   0.00   0.00    -0.00  -0.01  -0.00
 159   6     0.00  -0.00   0.00    -0.00   0.00  -0.00     0.00  -0.00  -0.00
 160   6    -0.00  -0.00  -0.00    -0.00   0.00  -0.00    -0.00  -0.00  -0.00
 161   6    -0.00   0.00  -0.00     0.00  -0.00   0.00    -0.00   0.00  -0.00
 162   6    -0.00  -0.00  -0.00    -0.00  -0.00  -0.00    -0.00  -0.00  -0.00
 163   1     0.00  -0.00   0.00     0.00  -0.00   0.00     0.00  -0.00   0.00
 164   1     0.00   0.00   0.00     0.00   0.00   0.00     0.00   0.00   0.00
 165   1     0.00   0.00   0.00    -0.00  -0.00  -0.00     0.00   0.00   0.00
 166   1     0.00   0.00   0.00    -0.00  -0.00  -0.00     0.00   0.02   0.00
 167   1     0.00   0.00   0.00     0.00  -0.00   0.00     0.00   0.01   0.01
 168   1     0.00   0.00   0.00     0.00  -0.00   0.00     0.00   0.00   0.00
 169   6     0.00  -0.00   0.00    -0.00   0.00   0.00    -0.00   0.00  -0.00
 170   6    -0.00   0.00   0.00     0.00  -0.00  -0.00     0.03  -0.03  -0.13
 171   6    -0.00   0.00   0.00     0.00  -0.00  -0.00     0.11  -0.22  -0.04
 172   6     0.00  -0.00   0.00     0.00  -0.00   0.00     0.00  -0.01   0.01
 173   7     0.00  -0.00   0.00    -0.00   0.00  -0.00    -0.00   0.00   0.00
 174   6     0.00  -0.00  -0.00     0.00  -0.00  -0.00    -0.00   0.00   0.00
 175   1     0.00  -0.00  -0.00    -0.00   0.00   0.00    -0.11   0.12   0.43
 176   1     0.00  -0.00  -0.00    -0.00   0.01   0.00    -0.36   0.75   0.14
 177   1    -0.00   0.00  -0.00    -0.00   0.00  -0.00    -0.00   0.01  -0.02
 178   1    -0.00   0.00   0.00    -0.00   0.00   0.00    -0.00   0.00   0.00
                    526                    527                    528
                        a                      a                      a 
 Frequencies --  3118.2742              3118.5970              3118.8561
 Red. masses --     1.8957                 1.8950                 1.8947
 Frc consts  --     0.0000                 0.0000                 0.0000
 IR Inten    --     0.0474                 0.0486                 0.0497
 Raman Activ --     0.0000                 0.0000                 0.0000
 Depolar     --     0.0000                 0.0000                 0.0000
 Atom AN      X      Y      Z        X      Y      Z        X      Y      Z
   1  46    -0.00   0.00  -0.00     0.00  -0.00   0.00    -0.00   0.00  -0.00
   2  46     0.00  -0.00  -0.00    -0.00   0.00  -0.00    -0.00   0.00  -0.00
   3   6    -0.00   0.00  -0.00     0.00  -0.00   0.00    -0.00   0.00  -0.00
   4   6     0.00  -0.00   0.00     0.00   0.00  -0.00     0.00  -0.00   0.00
   5   6     0.00  -0.00   0.00     0.00   0.00  -0.00     0.00  -0.00   0.00
   6   6    -0.00  -0.00  -0.00     0.00   0.00   0.00    -0.00  -0.00  -0.00
   7   6    -0.00   0.00  -0.00     0.00  -0.00   0.00    -0.00   0.00  -0.00
   8   6     0.00   0.00  -0.00    -0.00  -0.00   0.00     0.00   0.00  -0.00
   9   6     0.00   0.00   0.00    -0.00  -0.00   0.00     0.00   0.00   0.00
  10   6     0.00  -0.00  -0.00     0.00   0.00  -0.00     0.00   0.00  -0.00
  11   7    -0.00   0.00  -0.00    -0.00   0.00  -0.00    -0.00   0.00  -0.00
  12   6     0.00  -0.00   0.00    -0.00   0.00  -0.00     0.00  -0.00   0.00
  13   6    -0.00  -0.00   0.00     0.00   0.00  -0.00    -0.00  -0.00   0.00
  14   6    -0.00  -0.00   0.00     0.00   0.00   0.00    -0.00  -0.00   0.00
  15   1     0.00   0.00   0.00    -0.00  -0.00  -0.00     0.00   0.00   0.00
  16   1     0.00  -0.00   0.00    -0.00   0.00  -0.00     0.00  -0.00   0.00
  17   1    -0.00  -0.00   0.00     0.00   0.00  -0.00    -0.00  -0.00   0.00
  18   1     0.00   0.00   0.00    -0.00  -0.00   0.00    -0.00  -0.00   0.00
  19   1    -0.00   0.00  -0.00     0.00  -0.00   0.00    -0.00   0.00  -0.00
  20   1     0.00   0.00  -0.00    -0.00  -0.00   0.00     0.00   0.00  -0.00
  21   6     0.00  -0.00   0.00    -0.00  -0.00  -0.00     0.00   0.00   0.00
  22   6    -0.00  -0.00   0.00     0.00  -0.00   0.00    -0.00   0.00  -0.00
  23   6     0.00   0.00   0.00     0.00   0.00   0.00    -0.00  -0.00  -0.00
  24   6    -0.00  -0.00  -0.00     0.00  -0.00   0.00    -0.00  -0.00  -0.00
  25   6     0.00   0.00   0.00     0.00   0.00   0.00     0.00   0.00   0.00
  26   6     0.00   0.01   0.00     0.00   0.00   0.00     0.00   0.00   0.00
  27   6     0.00   0.00  -0.00    -0.00   0.00  -0.00     0.00   0.00   0.00
  28   6     0.00   0.00   0.00    -0.00  -0.00  -0.00     0.00   0.00   0.00
  29   6     0.00  -0.00   0.00    -0.00  -0.00  -0.00     0.00   0.00   0.00
  30   6     0.00   0.00   0.00    -0.00  -0.00  -0.00     0.00   0.00   0.00
  31   1    -0.00   0.00  -0.00    -0.00   0.00  -0.00     0.00  -0.00   0.00
  32   1    -0.00  -0.00  -0.00    -0.00  -0.00  -0.00     0.00   0.00   0.00
  33   1    -0.00  -0.00  -0.00    -0.00  -0.00  -0.00    -0.00  -0.00  -0.00
  34   1    -0.00  -0.02  -0.00    -0.00  -0.00  -0.00    -0.00  -0.00  -0.00
  35   1    -0.01  -0.01  -0.00     0.00   0.00   0.00    -0.00  -0.00  -0.00
  36   1    -0.00  -0.00  -0.00     0.00   0.00   0.00    -0.00  -0.00  -0.00
  37   6     0.00  -0.00   0.00     0.00  -0.00   0.00     0.00  -0.00   0.00
  38   6     0.13   0.04  -0.03     0.00   0.00  -0.00     0.01   0.00  -0.00
  39   6     0.04   0.22  -0.10     0.00   0.01  -0.00     0.00   0.01  -0.00
  40   6    -0.01   0.01  -0.00    -0.00   0.00  -0.00    -0.00   0.00  -0.00
  41   7    -0.00  -0.00   0.00     0.00  -0.00   0.00    -0.00  -0.00   0.00
  42   6    -0.00  -0.00   0.00    -0.00  -0.00   0.00     0.00   0.00  -0.00
  43   1    -0.42  -0.13   0.11    -0.01  -0.00   0.00    -0.02  -0.01   0.00
  44   1    -0.12  -0.76   0.34    -0.00  -0.02   0.01    -0.01  -0.04   0.02
  45   1     0.02  -0.01   0.00     0.00  -0.00   0.00     0.00  -0.00   0.00
  46   1    -0.00  -0.00   0.00     0.00   0.00  -0.00    -0.00  -0.00   0.00
  47   6    -0.00  -0.00  -0.00    -0.00   0.00   0.00    -0.00  -0.00  -0.00
  48   6     0.00  -0.00   0.00     0.00  -0.00  -0.00     0.00  -0.00   0.00
  49   6     0.00  -0.00   0.00     0.00  -0.00   0.00     0.00  -0.00  -0.00
  50   6    -0.00  -0.00  -0.00    -0.00  -0.00  -0.00    -0.00  -0.00  -0.00
  51   6    -0.00   0.00  -0.00    -0.00   0.00  -0.00    -0.00   0.00  -0.00
  52   6    -0.00   0.00   0.00    -0.00   0.00   0.00    -0.00   0.00   0.00
  53   6     0.00   0.00   0.00     0.00   0.00   0.00     0.00   0.00   0.00
  54   6    -0.00   0.00   0.00    -0.00   0.00   0.00    -0.00   0.00   0.00
  55   7    -0.00   0.00  -0.00     0.00   0.00   0.00    -0.00   0.00  -0.00
  56   6     0.00  -0.00   0.00    -0.00   0.00  -0.00     0.00  -0.00   0.00
  57   6     0.00  -0.00  -0.00    -0.00   0.00   0.00     0.00  -0.00  -0.00
  58   6     0.00  -0.00  -0.00     0.00   0.00   0.00     0.00  -0.00  -0.00
  59   1     0.00   0.00   0.00     0.00   0.00   0.00     0.00   0.00   0.00
  60   1     0.00  -0.00   0.00     0.00  -0.00   0.00     0.00  -0.00   0.00
  61   1     0.00  -0.00  -0.00     0.00  -0.01  -0.00     0.00  -0.00  -0.00
  62   1    -0.00  -0.00  -0.00     0.00  -0.00  -0.00     0.00   0.00   0.00
  63   1    -0.00   0.00  -0.00     0.00  -0.00   0.00    -0.00   0.00  -0.00
  64   1    -0.00   0.00   0.00     0.00  -0.01  -0.00    -0.00   0.01   0.00
  65   6     0.00   0.00   0.00    -0.00  -0.00  -0.00     0.00   0.00   0.00
  66   6    -0.00   0.00  -0.00     0.00  -0.00   0.00    -0.00  -0.00  -0.00
  67   6    -0.00  -0.00  -0.00     0.00   0.00   0.00    -0.00   0.00   0.00
  68   6     0.00   0.00  -0.00     0.00   0.00   0.00    -0.00  -0.00  -0.00
  69   6    -0.00  -0.00  -0.00     0.00   0.00   0.00     0.00   0.00   0.00
  70   6    -0.00  -0.00  -0.00    -0.00  -0.00  -0.00     0.00   0.01   0.00
  71   6     0.00  -0.00  -0.00    -0.00  -0.00  -0.00    -0.00   0.00   0.00
  72   6     0.00   0.00   0.00    -0.00  -0.00  -0.00     0.00   0.00   0.00
  73   6     0.00   0.00   0.00    -0.00  -0.00  -0.00     0.00  -0.00   0.00
  74   6     0.00   0.00   0.00    -0.00  -0.00  -0.00     0.00   0.00   0.00
  75   1     0.00  -0.00   0.00    -0.00   0.00  -0.00    -0.00   0.00  -0.00
  76   1     0.00   0.00   0.00    -0.00  -0.00  -0.00    -0.00  -0.00  -0.00
  77   1     0.00   0.00   0.00    -0.00  -0.00  -0.00    -0.00  -0.00  -0.00
  78   1     0.00   0.00   0.00     0.00   0.00   0.00    -0.00  -0.02  -0.00
  79   1    -0.00  -0.00  -0.00     0.00   0.00   0.00    -0.00  -0.00  -0.01
  80   1    -0.00  -0.00  -0.00     0.00   0.00   0.00    -0.00  -0.00  -0.00
  81   6    -0.00   0.00  -0.00    -0.00   0.00  -0.00     0.00  -0.00   0.00
  82   6     0.00  -0.00  -0.01     0.00  -0.00  -0.00    -0.03   0.03   0.12
  83   6     0.00  -0.01  -0.00     0.00  -0.01  -0.00    -0.10   0.22   0.04
  84   6     0.00  -0.00   0.00     0.00  -0.00   0.00    -0.00   0.01  -0.01
  85   7    -0.00   0.00  -0.00    -0.00   0.00   0.00     0.00  -0.00  -0.00
  86   6    -0.00   0.00   0.00     0.00  -0.00   0.00     0.00  -0.00  -0.00
  87   1    -0.00   0.01   0.02    -0.00   0.00   0.02     0.09  -0.12  -0.41
  88   1    -0.02   0.04   0.01    -0.01   0.03   0.01     0.35  -0.76  -0.15
  89   1    -0.00   0.00  -0.00    -0.00   0.00  -0.00     0.00  -0.01   0.02
  90   1     0.00  -0.00  -0.00    -0.00   0.00   0.00     0.00  -0.00  -0.00
  91   6     0.00  -0.00   0.00    -0.00   0.00  -0.00     0.00   0.00  -0.00
  92   6     0.00   0.00   0.00     0.00  -0.00   0.00    -0.00  -0.00   0.00
  93   6     0.00   0.00  -0.00    -0.00  -0.00   0.00     0.00  -0.00   0.00
  94   6     0.00   0.00   0.00    -0.00  -0.00  -0.00    -0.00  -0.00  -0.00
  95   6     0.00  -0.00   0.00    -0.00   0.00  -0.00    -0.00   0.00  -0.00
  96   6    -0.00  -0.00   0.00     0.00   0.00  -0.00     0.00   0.00  -0.00
  97   6    -0.00  -0.00  -0.00     0.00   0.00   0.00     0.00   0.00   0.00
  98   6     0.00   0.00  -0.00     0.00  -0.00   0.00    -0.00   0.00  -0.00
  99   7    -0.00   0.00  -0.00    -0.00   0.00  -0.00     0.00   0.00   0.00
 100   6    -0.00   0.00  -0.00     0.00  -0.00   0.00    -0.00   0.00  -0.00
 101   6     0.00   0.00  -0.00    -0.00  -0.00   0.00     0.00   0.00  -0.00
 102   6     0.00   0.00   0.00    -0.00  -0.00   0.00     0.00   0.00   0.00
 103   1    -0.00  -0.00  -0.00     0.00   0.00   0.00     0.00   0.00   0.00
 104   1    -0.00   0.00  -0.00     0.00  -0.00   0.00     0.00  -0.00   0.00
 105   1     0.00   0.00  -0.00    -0.00  -0.00   0.00    -0.00  -0.01   0.00
 106   1    -0.00  -0.00   0.00     0.00   0.00  -0.00    -0.00  -0.00   0.00
 107   1     0.00  -0.00   0.00    -0.00   0.00  -0.00     0.00  -0.00   0.00
 108   1    -0.00  -0.00   0.00     0.00   0.00  -0.00    -0.00  -0.00   0.00
 109   6    -0.00  -0.00  -0.00     0.00   0.00   0.00    -0.00  -0.00  -0.00
 110   6     0.00  -0.00   0.00    -0.00   0.00  -0.00     0.00  -0.00   0.00
 111   6     0.00   0.00   0.00    -0.00   0.00  -0.00     0.00   0.00   0.00
 112   6     0.00   0.00   0.00    -0.00  -0.00  -0.00     0.00  -0.00   0.00
 113   6     0.00   0.00   0.00     0.00   0.00   0.00     0.00   0.00   0.00
 114   6     0.00   0.00  -0.00     0.00   0.01   0.00     0.00   0.00   0.00
 115   6    -0.00  -0.00  -0.00     0.00   0.00  -0.00     0.00   0.00  -0.00
 116   6    -0.00  -0.00  -0.00     0.00   0.00   0.00     0.00   0.00   0.00
 117   6    -0.00  -0.00  -0.00     0.00  -0.00   0.00    -0.00  -0.00   0.00
 118   6    -0.00  -0.00  -0.00     0.00   0.00   0.00    -0.00  -0.00  -0.00
 119   1    -0.00   0.00  -0.00     0.00  -0.00   0.00    -0.00   0.00  -0.00
 120   1    -0.00  -0.00  -0.00     0.00   0.00   0.00    -0.00  -0.00  -0.00
 121   1    -0.00  -0.00  -0.00    -0.00  -0.00  -0.00    -0.00  -0.00  -0.00
 122   1     0.00  -0.00  -0.00    -0.00  -0.02  -0.00    -0.00  -0.00  -0.00
 123   1     0.00   0.00   0.00    -0.01  -0.00  -0.00    -0.00  -0.00  -0.00
 124   1     0.00   0.00   0.00    -0.00  -0.00  -0.00     0.00   0.00   0.00
 125   6    -0.00   0.00  -0.00     0.00  -0.00   0.00     0.00  -0.00   0.00
 126   6    -0.00  -0.00   0.00     0.12   0.04  -0.03     0.00   0.00  -0.00
 127   6    -0.00  -0.01   0.00     0.04   0.23  -0.10     0.00   0.01  -0.00
 128   6     0.00  -0.00   0.00    -0.01   0.01  -0.00    -0.00   0.00  -0.00
 129   7     0.00   0.00  -0.00    -0.00  -0.00   0.00     0.00  -0.00   0.00
 130   6     0.00  -0.00   0.00    -0.00  -0.00   0.00    -0.00  -0.00   0.00
 131   1     0.01   0.00  -0.00    -0.41  -0.13   0.09    -0.02  -0.01   0.00
 132   1     0.00   0.03  -0.01    -0.12  -0.77   0.33    -0.00  -0.03   0.01
 133   1    -0.00   0.00  -0.00     0.02  -0.01   0.00     0.00  -0.00   0.00
 134   1     0.00   0.00  -0.00    -0.00  -0.00   0.00     0.00   0.00  -0.00
 135   6    -0.00   0.00   0.00    -0.00   0.00  -0.00     0.00  -0.00  -0.00
 136   6     0.00  -0.00  -0.00     0.00  -0.00   0.00     0.00   0.00   0.00
 137   6     0.00  -0.00   0.00     0.00  -0.00   0.00    -0.00   0.00   0.00
 138   6    -0.00  -0.00  -0.00    -0.00  -0.00  -0.00     0.00   0.00   0.00
 139   6    -0.00   0.00  -0.00    -0.00   0.00  -0.00     0.00  -0.00   0.00
 140   6    -0.00   0.00   0.00    -0.00   0.00   0.00    -0.00   0.00   0.00
 141   6     0.00   0.00   0.00     0.00   0.00   0.00     0.00  -0.00  -0.00
 142   6    -0.00   0.00   0.00    -0.00   0.00   0.00    -0.00   0.00   0.00
 143   7     0.00   0.00   0.00    -0.00   0.00  -0.00    -0.00   0.00  -0.00
 144   6    -0.00   0.00  -0.00     0.00  -0.00   0.00    -0.00   0.00  -0.00
 145   6    -0.00   0.00   0.00     0.00  -0.00  -0.00    -0.00   0.00   0.00
 146   6     0.00   0.00   0.00     0.00  -0.00  -0.00     0.00   0.00   0.00
 147   1     0.00   0.00   0.00     0.00   0.00   0.00    -0.00  -0.00  -0.00
 148   1     0.00  -0.00   0.00     0.00  -0.00   0.00    -0.00   0.00  -0.00
 149   1     0.00  -0.01  -0.00     0.00  -0.00  -0.00     0.00  -0.00  -0.00
 150   1     0.00  -0.00  -0.00     0.00  -0.00  -0.00     0.00  -0.00  -0.00
 151   1     0.00  -0.00   0.00    -0.00   0.00  -0.00     0.00  -0.00   0.00
 152   1     0.00  -0.01  -0.00    -0.00   0.00   0.00     0.00  -0.00  -0.00
 153   6    -0.00  -0.00  -0.00     0.00   0.00   0.00    -0.00  -0.00  -0.00
 154   6     0.00  -0.00   0.00    -0.00   0.00  -0.00     0.00  -0.00   0.00
 155   6     0.00   0.00   0.00    -0.00  -0.00  -0.00     0.00   0.00   0.00
 156   6     0.00  -0.00   0.00    -0.00  -0.00  -0.00     0.00   0.00   0.00
 157   6     0.00   0.00   0.00    -0.00  -0.00   0.00     0.00   0.00   0.00
 158   6     0.00   0.00   0.00     0.00   0.00   0.00     0.00   0.00   0.00
 159   6    -0.00   0.00   0.00     0.00   0.00   0.00    -0.00   0.00  -0.00
 160   6     0.00   0.00   0.00     0.00   0.00   0.00    -0.00  -0.00  -0.00
 161   6     0.00  -0.00   0.00     0.00   0.00   0.00    -0.00  -0.00  -0.00
 162   6    -0.00  -0.00  -0.00     0.00   0.00   0.00    -0.00  -0.00  -0.00
 163   1    -0.00   0.00  -0.00     0.00  -0.00   0.00    -0.00   0.00  -0.00
 164   1    -0.00  -0.00  -0.00     0.00   0.00   0.00    -0.00  -0.00  -0.00
 165   1    -0.00  -0.00  -0.00     0.00   0.00   0.00    -0.00  -0.00  -0.00
 166   1    -0.00  -0.00  -0.00    -0.00  -0.00  -0.00    -0.00  -0.00  -0.00
 167   1    -0.00  -0.00  -0.00    -0.00  -0.00  -0.00     0.00   0.00   0.00
 168   1     0.00   0.00   0.00    -0.00  -0.00  -0.00     0.00   0.00   0.00
 169   6     0.00  -0.00   0.00     0.00  -0.00   0.00     0.00  -0.00   0.00
 170   6    -0.00   0.00   0.01    -0.00   0.00   0.01    -0.00   0.00   0.00
 171   6    -0.00   0.01   0.00    -0.01   0.01   0.00    -0.00   0.00   0.00
 172   6    -0.00   0.00  -0.00    -0.00   0.00  -0.00    -0.00   0.00  -0.00
 173   7     0.00  -0.00   0.00     0.00  -0.00  -0.00     0.00  -0.00  -0.00
 174   6     0.00  -0.00  -0.00    -0.00   0.00   0.00     0.00  -0.00  -0.00
 175   1     0.00  -0.00  -0.02     0.01  -0.01  -0.02     0.00  -0.00  -0.01
 176   1     0.01  -0.03  -0.01     0.02  -0.04  -0.01     0.00  -0.01  -0.00
 177   1     0.00  -0.00   0.00     0.00  -0.00   0.00     0.00  -0.00   0.00
 178   1    -0.00   0.00   0.00     0.00  -0.00  -0.00    -0.00   0.00   0.00
