      -----------------------------------------------------------      
     |                   =====================                   |     
     |                           x T B                           |     
     |                   =====================                   |     
     |                         S. Grimme                         |     
     |          Mulliken Center for Theoretical Chemistry        |     
     |                    University of Bonn                     |     
     |                Version 6.2 RC2 (SAW190805)                |     
      -----------------------------------------------------------      

   This program is distributed in the hope that it will be useful,
   but WITHOUT ANY WARRANTY; without even the implied warranty of
   MERCHANTABILITY or FITNESS FOR A PARTICULAR PURPOSE.
   
   FOR NON-COMMERCIAL, ACADEMIA USE ONLY.
   
   Cite this work as:
   * S. Grimme, C. Bannwarth, P. Shushkov, J. Chem. Theory Comput., 2017,
     13, 1989-2009. DOI: 10.1021/acs.jctc.7b00118
   * C. Bannwarth, S. Ehlert and S. Grimme., J. Chem. Theory Comput., 2019,
     15, 1652-1671. DOI: 10.1021/acs.jctc.8b01176
   * P. Pracht, E. Caldeweyher, S. Ehlert, S. Grimme, ChemRxiv, 2019, preprint.
     DOI: 10.26434/chemrxiv.8326202.v1
   
   for DFT-D4:
   * E. Caldeweyher, C. Bannwarth and S. Grimme, J. Chem. Phys., 2017,
     147, 034112. DOI: 10.1063/1.4993215
   * E. Caldeweyher, S. Ehlert, A. Hansen, H. Neugebauer, S. Spicher,
     C. Bannwarth and S. Grimme, J. Chem. Phys., 2019, 150, 154122.
     DOI: 10.1063/1.5090222
   
   for sTDA-xTB:
   * S. Grimme and C. Bannwarth, J. Chem. Phys., 2016, 145, 054103.
     DOI: 10.1063/1.4959605
   
   in the mass-spec context:
   * V. Asgeirsson, C. Bauer and S. Grimme, Chem. Sci., 2017, 8, 4879.
     DOI: 10.1039/c7sc00601b
   
   for metadynamics refer to:
   * S. Grimme, J. Chem. Theory Comput., 2019, 155, 2847-2862
     DOI: 10.1021/acs.jctc.9b00143
   
   with help from (in alphabetical order)
   C. Bannwarth, F. Bohle, G. Brandenburg, E. Caldeweyher, M. Checinski,
   S. Dohm, S. Ehlert, S. Ehrlich, F. März, H. Neugebauer, J. Pisarek,
   P. Pracht, P. Shushkov, and S. Spicher.
   
 * started run on 2021/06/21 at 21:39:31.062     

           -------------------------------------------------
          |                Calculation Setup                |
           -------------------------------------------------

          program call               : /home/atarzia/software/xtb-190806/bin/xtb /data/atarzia/projects/unsymm/screening/production/free_energy_calculations/fe_4b1_a/input_structure.xyz --gfn 2 --hess --parallel 6 --etemp 300 --gbsa dmso --chrg 4 --uhf 0 -I det_control.in
          coordinate file            : /data/atarzia/projects/unsymm/screening/production/free_energy_calculations/fe_4b1_a/input_structure.xyz
          omp threads                :                     6
          number of atoms            :                   154
          number of electrons        :                   464
          charge                     :                     4
          spin                       :                   0.0
          first test random number   :      0.24731662591077


########################################################################
# WARNING! Please study the warnings concerning your input carefully
#  - XTBHOME is not set, using HOME instead
#  - XTBPATH is not set, using XTBHOME instead
#  - Process number higher than OMP_NUM_THREADS, I hope you know what you are doing.
########################################################################

           ------------------------------------------------- 
          |                 G F N 2 - x T B                 |
          | Geometry, Frequencies, Noncovalent interactions |
          |            JCTC 2019 parametrisation            |
           ------------------------------------------------- 
             k(s)              :                1.8500
             k(p)              :                2.2300
             k(d)              :                2.2300
             k(f)              :                2.0000
             kEN (H0ij)        :               -2.0000
             D4 a1             :                0.5200
             D4 a2             :                5.0000
             D4 s6             :                1.0000
             D4 s8             :                2.7000
             D4 s9             :                5.0000
             alphaj            :                2.0000

  Z AO/shell   Hii/eV     exponent
  1     Wed Apr 25 08:07:45 CEST 2018   EN: 2.200 GM2: 0.406  GM3: 0.0800  RAES: 1.40
     1s    -10.707211    1.230000
  6     Wed Apr 25 08:07:45 CEST 2018   EN: 2.550 GM2: 0.538  GM3: 0.1500  RAES: 3.00
     2s    -13.970922    2.096432
     2p    -10.063292    1.800000
  7     Wed Apr 25 08:07:45 CEST 2018   EN: 3.040 GM2: 0.461  GM3:-0.0640  RAES: 1.90
     2s    -16.686243    2.339881
     2p    -12.523956    2.014332
 46     Wed Apr 25 16:26:58 CEST 2018   EN: 2.200 GM2: 0.273  GM3: 0.0800  RAES: 5.00
     4d    -11.963518    2.353691
     5s     -9.714059    1.828354
     5p     -2.035281    1.333352

 Solvent             : dmso
 Using internal parameter file: .param_gbsa2_dmso
 Gsolv ref. state (COSMO-RS): gsolv [1 M gas/solution]
 temperature (mdtemp)       :    298.150000000000     
 dielectric constant        :    46.6800000000000     
 rho                        :    1.10000000000000     
 mass                       :    78.1300000000000     
 surface tension            :    15.5689454083859     
 probe radius               :   0.949087640000000     
 vdW radii scaling          :    1.00000000000000     
 Gshift (Eh)                :   5.161738145414381E-003
 c1                         :    1.63948621000000     
 soset                      :   1.179665000000000E-002
 HB correction              :  T
           ------------------------------------------------- 
          |        Self-Consistent Charge Iterations        |
           ------------------------------------------------- 

          ...................................................
          :                      SETUP                      :
          :.................................................:
          :  # basis functions                 460          :
          :  # atomic orbitals                 458          :
          :  # shells                          254          :
          :  # electrons                       464          :
          :  max. iterations                   250          :
          :  Hamiltonian                  GFN2-xTB          :
          :  restarted?                      false          :
          :  GBSA solvation                   true          :
          :  PC potential                    false          :
          :  electronic temp.          300.0000000     K    :
          :  accuracy                    1.0000000          :
          :  -> integral cutoff          0.2500000E+02      :
          :  -> integral neglect         0.1000000E-07      :
          :  -> SCF convergence          0.1000000E-05 Eh   :
          :  -> wf. convergence          0.1000000E-03 e    :
          :  Broyden damping             0.4000000          :
          ...................................................

 iter      E             dE          RMSdq      gap      omega  full diag
   1   -252.1611308 -0.252161E+03  0.579E+00    2.38       0.0  T
   2   -252.5411934 -0.380063E+00  0.385E+00    1.71       1.0  T
   3   -252.3620901  0.179103E+00  0.213E+00    1.80       1.0  T
   4   -252.7236861 -0.361596E+00  0.966E-01    2.13       1.0  T
   5   -252.8124595 -0.887734E-01  0.318E-01    2.09       1.0  T
   6   -252.8191444 -0.668493E-02  0.135E-01    2.13       1.0  T
   7   -252.8194930 -0.348630E-03  0.766E-02    2.13       1.0  T
   8   -252.8196452 -0.152168E-03  0.358E-02    2.13       1.0  T
   9   -252.8197982 -0.152975E-03  0.117E-02    2.13       1.0  T
  10   -252.8198095 -0.113502E-04  0.451E-03    2.13       1.8  T
  11   -252.8198104 -0.884914E-06  0.242E-03    2.13       3.3  T
  12   -252.8198106 -0.187807E-06  0.868E-04    2.13       9.3  T
  13   -252.8198106 -0.289139E-07  0.417E-04    2.13      19.3  T

   *** convergence criteria satisfied after 13 iterations ***

         #    Occupation            Energy/Eh            Energy/eV
      -------------------------------------------------------------
         1        2.0000           -0.7362018             -20.0331
       ...           ...                  ...                  ...
       226        2.0000           -0.4217233             -11.4757
       227        2.0000           -0.4197329             -11.4215
       228        2.0000           -0.4194814             -11.4147
       229        2.0000           -0.4026596             -10.9569
       230        2.0000           -0.4026478             -10.9566
       231        2.0000           -0.4024709             -10.9518
       232        2.0000           -0.4016809             -10.9303 (HOMO)
       233                         -0.3233065              -8.7976 (LUMO)
       234                         -0.3232947              -8.7973
       235                         -0.3217640              -8.7556
       236                         -0.3202418              -8.7142
       237                         -0.3132286              -8.5234
       ...                                ...                  ...
       458                          1.3895541              37.8117
      -------------------------------------------------------------
                  HL-Gap            0.0783744 Eh            2.1327 eV
             Fermi-level           -0.3624937 Eh           -9.8640 eV

 SCC (total)                   0 d,  0 h,  0 min,  0.750 sec
 SCC setup                      ...        0 min,  0.067 sec (  8.901%)
 Dispersion                     ...        0 min,  0.018 sec (  2.376%)
 integral evaluation            ...        0 min,  0.132 sec ( 17.648%)
 zeroth order Hamiltonian       ...        0 min,  0.003 sec (  0.466%)
 iterations                     ...        0 min,  0.404 sec ( 53.821%)
 molecular gradient             ...        0 min,  0.122 sec ( 16.267%)
 printout                       ...        0 min,  0.004 sec (  0.512%)

         :::::::::::::::::::::::::::::::::::::::::::::::::::::
         ::                     SUMMARY                     ::
         :::::::::::::::::::::::::::::::::::::::::::::::::::::
         :: total energy            -248.245405177698 Eh    ::
         :: total w/o Gsasa/hb      -248.136047295394 Eh    ::
         :: gradient norm              0.001509295318 Eh/a0 ::
         :: HOMO-LUMO gap              2.132676606449 eV    ::
         ::.................................................::
         :: SCC energy              -252.914989227036 Eh    ::
         :: -> isotropic ES            0.612969260364 Eh    ::
         :: -> anisotropic ES         -0.079532562942 Eh    ::
         :: -> anisotropic XC          0.173881397972 Eh    ::
         :: -> dispersion             -0.229934804689 Eh    ::
         :: -> Gsolv                  -0.634291343023 Eh    ::
         ::    -> Gborn               -0.524933460719 Eh    ::
         ::    -> Gsasa               -0.100340324736 Eh    ::
         ::    -> Ghb                 -0.014179295714 Eh    ::
         ::    -> Gshift               0.005161738145 Eh    ::
         :: repulsion energy           4.661659353873 Eh    ::
         :: add. restraining           0.000000000000 Eh    ::
         :::::::::::::::::::::::::::::::::::::::::::::::::::::

           ------------------------------------------------- 
          |                Numerical Hessian                |
           ------------------------------------------------- 
step length          :   0.00500
SCC accuracy         :   0.30000
Hessian scale factor :   1.00000
frozen atoms in %    :   0.00000    0
RMS gradient         :   0.00061
estimated CPU  time     49.80 min
estimated wall time      8.35 min

writing file <hessian>.

 projected vibrational frequencies (cm-1)
eigval :       -0.00    -0.00    -0.00     0.00     0.00     0.00
eigval :        8.83    12.84    13.54    13.67    15.10    17.56
eigval :       17.60    24.12    24.16    26.70    29.80    33.39
eigval :       41.40    41.67    41.79    46.76    50.05    59.54
eigval :       62.03    62.09    65.43    65.51    66.49    67.27
eigval :       71.35    73.53    73.56    80.29    89.16    99.31
eigval :       99.41   102.42   105.55   106.31   106.37   116.24
eigval :      116.62   128.22   130.85   131.37   131.39   139.50
eigval :      151.40   153.23   153.33   159.54   162.39   165.16
eigval :      165.29   171.48   173.23   174.58   174.68   182.61
eigval :      182.70   183.02   184.43   189.49   196.36   196.57
eigval :      200.56   215.81   225.98   237.22   238.81   238.85
eigval :      258.29   260.39   260.48   261.06   276.52   276.58
eigval :      298.40   302.89   302.95   308.58   318.80   318.87
eigval :      321.93   324.37   330.83   330.99   332.15   333.34
eigval :      367.47   367.73   367.82   369.24   371.56   372.37
eigval :      372.43   374.68   379.53   394.36   395.69   395.71
eigval :      396.97   400.56   404.38   404.45   430.08   430.13
eigval :      430.63   433.09   437.78   448.46   452.37   452.48
eigval :      460.12   461.27   461.84   461.90   473.66   475.89
eigval :      475.91   478.34   502.05   505.25   505.75   507.46
eigval :      507.61   508.96   511.35   511.37   527.13   527.29
eigval :      527.95   527.96   532.27   536.61   536.63   537.54
eigval :      543.43   548.43   550.77   550.90   574.63   577.88
eigval :      579.38   579.39   606.67   607.09   608.00   608.02
eigval :      614.50   618.70   620.36   621.67   621.70   626.22
eigval :      627.38   627.43   662.38   663.63   664.64   664.65
eigval :      669.75   679.27   679.29   680.79   687.59   690.24
eigval :      690.28   693.44   725.13   725.96   726.03   726.26
eigval :      741.78   744.94   745.79   745.83   773.44   775.42
eigval :      778.15   778.29   780.70   781.98   782.04   786.19
eigval :      797.09   801.46   802.09   802.10   819.17   819.91
eigval :      820.12   820.23   821.94   822.20   822.26   822.37
eigval :      824.90   831.15   831.39   837.45   841.07   859.49
eigval :      859.66   861.15   862.10   864.42   865.56   865.60
eigval :      868.26   868.38   869.41   877.80   882.57   884.41
eigval :      884.42   885.85   894.07   895.54   895.84   897.05
eigval :      898.47   901.50   901.60   902.53   904.13   904.27
eigval :      905.67   907.21   914.78   915.60   915.82   918.25
eigval :      924.94   925.27   925.27   925.49   934.61   935.16
eigval :      935.33   935.53   935.70   935.98   936.14   936.56
eigval :      976.99   981.11   982.92   982.93  1002.35  1005.98
eigval :     1006.00  1008.17  1047.82  1049.08  1050.17  1050.18
eigval :     1067.47  1067.48  1068.26  1068.69  1076.20  1078.13
eigval :     1078.16  1079.08  1090.68  1092.70  1092.74  1098.17
eigval :     1111.82  1112.09  1112.11  1112.31  1116.80  1119.09
eigval :     1119.12  1121.71  1135.17  1135.35  1135.43  1135.50
eigval :     1158.11  1165.02  1165.09  1167.08  1169.56  1169.66
eigval :     1172.45  1172.83  1173.00  1173.07  1174.68  1175.77
eigval :     1186.39  1187.99  1188.08  1191.22  1198.82  1200.37
eigval :     1200.42  1203.44  1213.71  1215.15  1215.21  1217.71
eigval :     1218.75  1218.77  1219.25  1222.73  1233.16  1242.71
eigval :     1242.90  1255.24  1258.32  1258.78  1258.80  1264.94
eigval :     1273.49  1274.56  1274.59  1276.38  1293.41  1293.46
eigval :     1293.59  1297.46  1297.54  1299.22  1299.48  1302.13
eigval :     1307.99  1308.07  1308.10  1308.12  1318.43  1318.46
eigval :     1319.41  1319.66  1356.45  1356.48  1356.63  1358.38
eigval :     1367.20  1367.23  1368.08  1369.89  1372.57  1373.21
eigval :     1373.30  1373.82  1396.05  1396.21  1396.24  1396.52
eigval :     1396.95  1398.26  1398.29  1399.75  1421.32  1421.60
eigval :     1421.63  1423.06  1437.97  1437.99  1438.02  1440.27
eigval :     1468.01  1468.02  1468.47  1468.93  1484.75  1484.82
eigval :     1484.85  1485.04  1526.60  1526.60  1526.96  1527.46
eigval :     1531.90  1533.01  1533.80  1533.82  1542.96  1543.00
eigval :     1543.17  1543.50  1551.81  1551.83  1552.18  1552.19
eigval :     1558.21  1558.42  1558.45  1558.49  1570.33  1570.78
eigval :     1571.80  1571.85  1582.03  1582.06  1582.10  1582.15
eigval :     2297.15  2297.34  2297.42  2297.67  2940.03  2943.48
eigval :     2943.74  2955.05  2967.69  2968.94  2969.12  2975.44
eigval :     3019.12  3020.15  3020.23  3021.85  3032.30  3033.71
eigval :     3034.14  3036.26  3095.15  3095.52  3095.54  3095.56
eigval :     3095.66  3095.73  3095.78  3096.03  3096.50  3096.77
eigval :     3096.83  3097.45  3104.00  3104.50  3104.57  3104.70
eigval :     3105.10  3105.59  3105.67  3105.98  3107.12  3107.24
eigval :     3107.39  3107.84  3109.89  3110.36  3110.42  3110.49
eigval :     3111.59  3111.75  3111.88  3112.11  3117.65  3117.87
eigval :     3118.05  3118.12  3118.31  3118.43  3118.54  3119.31
           -------------------------------------------------
          |                Property Printout                |
           -------------------------------------------------

    * Orbital Energies and Occupations

         #    Occupation            Energy/Eh            Energy/eV
      -------------------------------------------------------------
         1        2.0000           -0.7362011             -20.0331
       ...           ...                  ...                  ...
       220        2.0000           -0.4290275             -11.6744
       221        2.0000           -0.4287701             -11.6674
       222        2.0000           -0.4278733             -11.6430
       223        2.0000           -0.4242076             -11.5433
       224        2.0000           -0.4240777             -11.5397
       225        2.0000           -0.4217498             -11.4764
       226        2.0000           -0.4217157             -11.4755
       227        2.0000           -0.4197252             -11.4213
       228        2.0000           -0.4194734             -11.4145
       229        2.0000           -0.4026525             -10.9567
       230        2.0000           -0.4026407             -10.9564
       231        2.0000           -0.4024638             -10.9516
       232        2.0000           -0.4016735             -10.9301 (HOMO)
       233                         -0.3232990              -8.7974 (LUMO)
       234                         -0.3232872              -8.7971
       235                         -0.3217564              -8.7554
       236                         -0.3202345              -8.7140
       237                         -0.3132259              -8.5233
       238                         -0.3131773              -8.5220
       239                         -0.3090804              -8.4105
       240                         -0.3069681              -8.3530
       241                         -0.2994524              -8.1485
       242                         -0.2979872              -8.1086
       243                         -0.2979571              -8.1078
       ...                                ...                  ...
       458                          1.3895632              37.8119
      -------------------------------------------------------------
                  HL-Gap            0.0783746 Eh            2.1327 eV
             Fermi-level           -0.3624863 Eh           -9.8638 eV

     #   Z        covCN         q      C6AA      α(0)
     1  46 Pd     3.501    -0.080   274.195    34.150
     2  46 Pd     3.537    -0.078   274.094    34.143
     3   6 C      1.982    -0.017    31.495     9.063
     4   6 C      1.984    -0.031    31.882     9.119
     5   6 C      2.965     0.044    27.007     8.524
     6   6 C      2.931    -0.022    28.549     8.763
     7   6 C      2.914    -0.016    28.401     8.739
     8   6 C      2.916    -0.030    28.751     8.793
     9   6 C      2.991     0.026    27.409     8.588
    10   6 C      2.912    -0.033    28.811     8.802
    11   6 C      2.925     0.043    27.036     8.527
    12   7 N      2.657    -0.099    23.181     7.151
    13   6 C      2.883     0.061    26.629     8.460
    14   6 C      2.982    -0.005    28.129     8.700
    15   1 H      0.926     0.068     2.106     2.270
    16   1 H      0.926     0.060     2.196     2.317
    17   1 H      0.926     0.065     2.139     2.287
    18   1 H      0.926     0.091     1.869     2.138
    19   1 H      0.925     0.113     1.669     2.020
    20   1 H      0.925     0.132     1.517     1.926
    21   6 C      2.972     0.041    27.082     8.536
    22   6 C      2.924    -0.034    28.848     8.808
    23   6 C      2.923    -0.038    28.946     8.823
    24   6 C      2.978    -0.008    28.214     8.713
    25   6 C      2.920    -0.026    28.656     8.778
    26   6 C      2.926    -0.026    28.653     8.778
    27   1 H      0.926     0.082     1.960     2.189
    28   1 H      0.926     0.064     2.154     2.295
    29   1 H      0.926     0.055     2.252     2.347
    30   1 H      0.926     0.057     2.237     2.339
    31   6 C      2.971     0.010    27.785     8.646
    32   6 C      2.927    -0.003    28.090     8.692
    33   6 C      2.913    -0.028    28.697     8.784
    34   6 C      2.892     0.057    26.728     8.476
    35   7 N      2.662    -0.092    23.038     7.129
    36   6 C      2.947     0.040    27.094     8.537
    37   1 H      0.926     0.092     1.864     2.135
    38   1 H      0.926     0.098     1.799     2.097
    39   1 H      0.925     0.130     1.538     1.939
    40   1 H      0.924     0.114     1.659     2.014
    41   6 C      1.982    -0.017    31.494     9.063
    42   6 C      1.984    -0.031    31.883     9.119
    43   6 C      2.965     0.044    27.007     8.524
    44   6 C      2.931    -0.022    28.549     8.763
    45   6 C      2.914    -0.016    28.401     8.739
    46   6 C      2.916    -0.030    28.751     8.793
    47   6 C      2.991     0.026    27.409     8.588
    48   6 C      2.912    -0.033    28.811     8.802
    49   6 C      2.925     0.043    27.036     8.527
    50   7 N      2.657    -0.099    23.183     7.151
    51   6 C      2.883     0.061    26.629     8.460
    52   6 C      2.982    -0.005    28.129     8.700
    53   1 H      0.926     0.068     2.106     2.269
    54   1 H      0.926     0.060     2.195     2.317
    55   1 H      0.926     0.065     2.139     2.287
    56   1 H      0.926     0.091     1.869     2.138
    57   1 H      0.925     0.113     1.669     2.021
    58   1 H      0.925     0.132     1.516     1.926
    59   6 C      2.972     0.041    27.083     8.536
    60   6 C      2.926    -0.026    28.655     8.779
    61   6 C      2.920    -0.026    28.657     8.779
    62   6 C      2.978    -0.008    28.215     8.713
    63   6 C      2.923    -0.038    28.948     8.823
    64   6 C      2.924    -0.034    28.848     8.808
    65   1 H      0.926     0.057     2.236     2.339
    66   1 H      0.926     0.056     2.252     2.347
    67   1 H      0.926     0.064     2.151     2.294
    68   1 H      0.926     0.082     1.961     2.190
    69   6 C      2.971     0.010    27.786     8.646
    70   6 C      2.927    -0.003    28.090     8.692
    71   6 C      2.913    -0.028    28.697     8.784
    72   6 C      2.892     0.057    26.728     8.476
    73   7 N      2.662    -0.092    23.036     7.128
    74   6 C      2.947     0.040    27.094     8.537
    75   1 H      0.926     0.092     1.864     2.135
    76   1 H      0.926     0.098     1.799     2.097
    77   1 H      0.925     0.130     1.538     1.939
    78   1 H      0.924     0.114     1.659     2.014
    79   6 C      1.982    -0.017    31.495     9.063
    80   6 C      1.984    -0.031    31.883     9.119
    81   6 C      2.965     0.044    27.007     8.524
    82   6 C      2.931    -0.022    28.550     8.763
    83   6 C      2.914    -0.016    28.401     8.739
    84   6 C      2.916    -0.030    28.751     8.793
    85   6 C      2.991     0.026    27.408     8.588
    86   6 C      2.912    -0.033    28.811     8.802
    87   6 C      2.925     0.043    27.036     8.527
    88   7 N      2.657    -0.098    23.176     7.150
    89   6 C      2.883     0.061    26.630     8.460
    90   6 C      2.982    -0.004    28.128     8.700
    91   1 H      0.926     0.068     2.106     2.270
    92   1 H      0.926     0.060     2.196     2.317
    93   1 H      0.926     0.065     2.140     2.287
    94   1 H      0.926     0.091     1.870     2.138
    95   1 H      0.925     0.113     1.669     2.020
    96   1 H      0.925     0.133     1.516     1.925
    97   6 C      2.972     0.041    27.082     8.536
    98   6 C      2.924    -0.034    28.848     8.808
    99   6 C      2.923    -0.038    28.948     8.823
   100   6 C      2.978    -0.008    28.213     8.713
   101   6 C      2.920    -0.026    28.657     8.779
   102   6 C      2.926    -0.026    28.655     8.779
   103   1 H      0.926     0.082     1.960     2.189
   104   1 H      0.926     0.064     2.152     2.294
   105   1 H      0.926     0.055     2.253     2.347
   106   1 H      0.926     0.057     2.237     2.339
   107   6 C      2.971     0.010    27.785     8.646
   108   6 C      2.927    -0.003    28.091     8.692
   109   6 C      2.913    -0.028    28.697     8.784
   110   6 C      2.892     0.057    26.729     8.476
   111   7 N      2.662    -0.091    23.025     7.127
   112   6 C      2.948     0.040    27.094     8.537
   113   1 H      0.926     0.091     1.864     2.135
   114   1 H      0.926     0.098     1.800     2.098
   115   1 H      0.925     0.130     1.538     1.939
   116   1 H      0.924     0.114     1.659     2.014
   117   6 C      1.982    -0.017    31.495     9.063
   118   6 C      1.984    -0.031    31.883     9.119
   119   6 C      2.965     0.044    27.007     8.524
   120   6 C      2.931    -0.022    28.550     8.763
   121   6 C      2.914    -0.016    28.401     8.739
   122   6 C      2.916    -0.030    28.751     8.793
   123   6 C      2.991     0.026    27.408     8.588
   124   6 C      2.912    -0.033    28.811     8.802
   125   6 C      2.925     0.043    27.037     8.527
   126   7 N      2.657    -0.098    23.174     7.150
   127   6 C      2.883     0.061    26.630     8.460
   128   6 C      2.982    -0.004    28.128     8.700
   129   1 H      0.926     0.068     2.107     2.270
   130   1 H      0.926     0.060     2.196     2.317
   131   1 H      0.926     0.065     2.140     2.287
   132   1 H      0.926     0.091     1.870     2.138
   133   1 H      0.925     0.113     1.669     2.020
   134   1 H      0.925     0.132     1.516     1.926
   135   6 C      2.972     0.041    27.082     8.536
   136   6 C      2.926    -0.026    28.654     8.779
   137   6 C      2.920    -0.026    28.656     8.778
   138   6 C      2.978    -0.008    28.214     8.713
   139   6 C      2.923    -0.038    28.949     8.823
   140   6 C      2.924    -0.034    28.848     8.808
   141   1 H      0.926     0.057     2.237     2.339
   142   1 H      0.926     0.055     2.253     2.347
   143   1 H      0.926     0.064     2.152     2.294
   144   1 H      0.926     0.082     1.960     2.189
   145   6 C      2.971     0.010    27.785     8.646
   146   6 C      2.927    -0.003    28.090     8.692
   147   6 C      2.913    -0.028    28.697     8.784
   148   6 C      2.892     0.057    26.729     8.476
   149   7 N      2.662    -0.091    23.027     7.127
   150   6 C      2.948     0.040    27.094     8.537
   151   1 H      0.926     0.091     1.865     2.135
   152   1 H      0.926     0.098     1.799     2.098
   153   1 H      0.925     0.130     1.538     1.939
   154   1 H      0.924     0.114     1.659     2.014

 Mol. C6AA /au·bohr⁶  :     380075.212344
 Mol. C8AA /au·bohr⁸  :   10753839.956108
 Mol. α(0) /au        :       1013.259236


Wiberg/Mayer (AO) data.
largest (>0.10) Wiberg bond orders for each atom
          total WBO             WBO to atom ...
     1  Pd  3.464        N  126 0.597    N   88 0.597    N   12 0.597    N   50 0.597
     2  Pd  3.503        N  111 0.594    N  149 0.594    N   73 0.594    N   35 0.594
     3  C   3.942        C    4 2.633    C   21 1.134
     4  C   3.944        C    3 2.633    C    5 1.141
     5  C   3.984        C    6 1.440    C   14 1.206    C    4 1.141
     6  C   3.975        C    5 1.440    C    7 1.353    H   15 0.967
     7  C   3.982        C    8 1.517    C    6 1.353    H   16 0.967
     8  C   3.948        C    7 1.517    C    9 1.295    H   17 0.965
     9  C   3.988        C    8 1.295    C   10 1.270    C   14 1.232
    10  C   3.979        C   11 1.560    C    9 1.270    H   18 0.959    C   13 0.103
    11  C   3.972        C   10 1.560    N   12 1.240    H   19 0.900
    12  N   3.531        C   13 1.439    C   11 1.240    Pd   1 0.597
    13  C   3.961        N   12 1.439    C   14 1.312    H   20 0.919    C   10 0.103
    14  C   3.979        C   13 1.312    C    9 1.232    C    5 1.206
    15  H   0.995        C    6 0.967
    16  H   0.994        C    7 0.967
    17  H   0.995        C    8 0.965
    18  H   0.991        C   10 0.959
    19  H   0.986        C   11 0.900
    20  H   0.981        C   13 0.919
    21  C   3.983        C   26 1.349    C   22 1.344    C    3 1.134
    22  C   3.971        C   23 1.477    C   21 1.344    H   27 0.964
    23  C   3.987        C   22 1.477    C   24 1.367    H   28 0.964
    24  C   3.951        C   25 1.377    C   23 1.367    C   31 1.051
    25  C   3.988        C   26 1.467    C   24 1.377    H   29 0.966
    26  C   3.980        C   25 1.467    C   21 1.349    H   30 0.968
    27  H   0.993        C   22 0.964
    28  H   0.995        C   23 0.964
    29  H   0.996        C   25 0.966
    30  H   0.996        C   26 0.968
    31  C   3.982        C   36 1.392    C   32 1.363    C   24 1.051
    32  C   3.975        C   33 1.455    C   31 1.363    H   37 0.961
    33  C   3.979        C   32 1.455    C   34 1.419    H   38 0.960    C   36 0.101
    34  C   3.956        C   33 1.419    N   35 1.360    H   39 0.923
    35  N   3.539        C   34 1.360    C   36 1.347    Pd   2 0.594
    36  C   3.968        C   31 1.392    N   35 1.347    H   40 0.895    C   33 0.101
    37  H   0.990        C   32 0.961
    38  H   0.989        C   33 0.960
    39  H   0.982        C   34 0.923
    40  H   0.986        C   36 0.895
    41  C   3.942        C   42 2.633    C   59 1.134
    42  C   3.944        C   41 2.633    C   43 1.141
    43  C   3.984        C   44 1.440    C   52 1.206    C   42 1.141
    44  C   3.975        C   43 1.440    C   45 1.353    H   53 0.967
    45  C   3.982        C   46 1.517    C   44 1.353    H   54 0.967
    46  C   3.948        C   45 1.517    C   47 1.295    H   55 0.965
    47  C   3.988        C   46 1.295    C   48 1.270    C   52 1.232
    48  C   3.979        C   49 1.560    C   47 1.270    H   56 0.959    C   51 0.103
    49  C   3.972        C   48 1.560    N   50 1.240    H   57 0.900
    50  N   3.531        C   51 1.439    C   49 1.240    Pd   1 0.597
    51  C   3.961        N   50 1.439    C   52 1.312    H   58 0.919    C   48 0.103
    52  C   3.979        C   51 1.312    C   47 1.232    C   43 1.206
    53  H   0.995        C   44 0.967
    54  H   0.994        C   45 0.967
    55  H   0.995        C   46 0.965
    56  H   0.991        C   48 0.959
    57  H   0.986        C   49 0.900
    58  H   0.981        C   51 0.919
    59  C   3.983        C   60 1.348    C   64 1.344    C   41 1.134
    60  C   3.980        C   61 1.467    C   59 1.348    H   65 0.968    C   63 0.100
    61  C   3.988        C   60 1.467    C   62 1.377    H   66 0.966
    62  C   3.951        C   61 1.377    C   63 1.367    C   69 1.051
    63  C   3.987        C   64 1.477    C   62 1.367    H   67 0.964    C   60 0.100
    64  C   3.971        C   63 1.477    C   59 1.344    H   68 0.964
    65  H   0.996        C   60 0.968
    66  H   0.996        C   61 0.966
    67  H   0.995        C   63 0.964
    68  H   0.993        C   64 0.964
    69  C   3.982        C   74 1.392    C   70 1.363    C   62 1.051
    70  C   3.975        C   71 1.455    C   69 1.363    H   75 0.961
    71  C   3.979        C   70 1.455    C   72 1.419    H   76 0.960    C   74 0.101
    72  C   3.956        C   71 1.419    N   73 1.360    H   77 0.923
    73  N   3.539        C   72 1.360    C   74 1.347    Pd   2 0.594
    74  C   3.968        C   69 1.392    N   73 1.347    H   78 0.895    C   71 0.101
    75  H   0.990        C   70 0.961
    76  H   0.989        C   71 0.960
    77  H   0.982        C   72 0.923
    78  H   0.986        C   74 0.895
    79  C   3.942        C   80 2.633    C   97 1.134
    80  C   3.944        C   79 2.633    C   81 1.141
    81  C   3.984        C   82 1.440    C   90 1.206    C   80 1.141
    82  C   3.975        C   81 1.440    C   83 1.353    H   91 0.967
    83  C   3.982        C   84 1.517    C   82 1.353    H   92 0.967
    84  C   3.948        C   83 1.517    C   85 1.295    H   93 0.965
    85  C   3.988        C   84 1.295    C   86 1.270    C   90 1.232
    86  C   3.979        C   87 1.560    C   85 1.270    H   94 0.959    C   89 0.103
    87  C   3.972        C   86 1.560    N   88 1.240    H   95 0.900
    88  N   3.531        C   89 1.439    C   87 1.240    Pd   1 0.597
    89  C   3.961        N   88 1.439    C   90 1.312    H   96 0.919    C   86 0.103
    90  C   3.979        C   89 1.312    C   85 1.232    C   81 1.206
    91  H   0.995        C   82 0.967
    92  H   0.994        C   83 0.967
    93  H   0.995        C   84 0.965
    94  H   0.991        C   86 0.959
    95  H   0.986        C   87 0.900
    96  H   0.981        C   89 0.919
    97  C   3.983        C  102 1.348    C   98 1.344    C   79 1.134
    98  C   3.971        C   99 1.477    C   97 1.344    H  103 0.964
    99  C   3.987        C   98 1.477    C  100 1.367    H  104 0.964    C  102 0.100
   100  C   3.951        C  101 1.377    C   99 1.367    C  107 1.051
   101  C   3.988        C  102 1.467    C  100 1.377    H  105 0.966
   102  C   3.980        C  101 1.467    C   97 1.348    H  106 0.968    C   99 0.100
   103  H   0.993        C   98 0.964
   104  H   0.995        C   99 0.964
   105  H   0.996        C  101 0.966
   106  H   0.996        C  102 0.968
   107  C   3.982        C  112 1.392    C  108 1.363    C  100 1.051
   108  C   3.975        C  109 1.455    C  107 1.363    H  113 0.961
   109  C   3.979        C  108 1.455    C  110 1.418    H  114 0.960    C  112 0.101
   110  C   3.956        C  109 1.418    N  111 1.360    H  115 0.923
   111  N   3.540        C  110 1.360    C  112 1.347    Pd   2 0.594
   112  C   3.968        C  107 1.392    N  111 1.347    H  116 0.894    C  109 0.101
   113  H   0.990        C  108 0.961
   114  H   0.989        C  109 0.960
   115  H   0.982        C  110 0.923
   116  H   0.986        C  112 0.894
   117  C   3.942        C  118 2.633    C  135 1.134
   118  C   3.944        C  117 2.633    C  119 1.141
   119  C   3.984        C  120 1.440    C  128 1.206    C  118 1.141
   120  C   3.975        C  119 1.440    C  121 1.353    H  129 0.967
   121  C   3.982        C  122 1.517    C  120 1.353    H  130 0.967
   122  C   3.948        C  121 1.517    C  123 1.295    H  131 0.965
   123  C   3.988        C  122 1.295    C  124 1.270    C  128 1.232
   124  C   3.979        C  125 1.560    C  123 1.270    H  132 0.959    C  127 0.103
   125  C   3.972        C  124 1.560    N  126 1.240    H  133 0.900
   126  N   3.531        C  127 1.439    C  125 1.240    Pd   1 0.597
   127  C   3.961        N  126 1.439    C  128 1.312    H  134 0.919    C  124 0.103
   128  C   3.979        C  127 1.312    C  123 1.232    C  119 1.206
   129  H   0.995        C  120 0.967
   130  H   0.994        C  121 0.967
   131  H   0.995        C  122 0.965
   132  H   0.991        C  124 0.959
   133  H   0.986        C  125 0.900
   134  H   0.981        C  127 0.919
   135  C   3.983        C  136 1.349    C  140 1.344    C  117 1.134
   136  C   3.980        C  137 1.467    C  135 1.349    H  141 0.968    C  139 0.100
   137  C   3.988        C  136 1.467    C  138 1.377    H  142 0.966
   138  C   3.951        C  137 1.377    C  139 1.367    C  145 1.051
   139  C   3.987        C  140 1.477    C  138 1.367    H  143 0.964    C  136 0.100
   140  C   3.971        C  139 1.477    C  135 1.344    H  144 0.964
   141  H   0.996        C  136 0.968
   142  H   0.996        C  137 0.966
   143  H   0.995        C  139 0.964
   144  H   0.993        C  140 0.964
   145  C   3.982        C  150 1.392    C  146 1.363    C  138 1.051
   146  C   3.975        C  147 1.455    C  145 1.363    H  151 0.961
   147  C   3.979        C  146 1.455    C  148 1.418    H  152 0.960    C  150 0.101
   148  C   3.956        C  147 1.418    N  149 1.360    H  153 0.923
   149  N   3.540        C  148 1.360    C  150 1.347    Pd   2 0.594
   150  C   3.968        C  145 1.392    N  149 1.347    H  154 0.894    C  147 0.101
   151  H   0.990        C  146 0.961
   152  H   0.989        C  147 0.960
   153  H   0.982        C  148 0.923
   154  H   0.986        C  150 0.894

molecular dipole:
                 x           y           z       tot (Debye)
 q only:        6.501       3.838       0.300
   full:        6.500       3.897       0.302      19.278
molecular quadrupole (traceless):
                xx          xy          yy          xz          yz          zz
 q only:     -157.721     -22.774     333.513       0.794       6.999    -175.792
  q+dip:     -171.923     -25.362     362.271       0.881       7.595    -190.348
   full:     -159.342     -22.915     336.827       0.828       7.102    -177.485

           -------------------------------------------------
          |               Frequency Printout                |
           -------------------------------------------------
 projected vibrational frequencies (cm-1)
eigval :       -0.00    -0.00    -0.00     0.00     0.00     0.00
eigval :        8.83    12.84    13.54    13.67    15.10    17.56
eigval :       17.60    24.12    24.16    26.70    29.80    33.39
eigval :       41.40    41.67    41.79    46.76    50.05    59.54
eigval :       62.03    62.09    65.43    65.51    66.49    67.27
eigval :       71.35    73.53    73.56    80.29    89.16    99.31
eigval :       99.41   102.42   105.55   106.31   106.37   116.24
eigval :      116.62   128.22   130.85   131.37   131.39   139.50
eigval :      151.40   153.23   153.33   159.54   162.39   165.16
eigval :      165.29   171.48   173.23   174.58   174.68   182.61
eigval :      182.70   183.02   184.43   189.49   196.36   196.57
eigval :      200.56   215.81   225.98   237.22   238.81   238.85
eigval :      258.29   260.39   260.48   261.06   276.52   276.58
eigval :      298.40   302.89   302.95   308.58   318.80   318.87
eigval :      321.93   324.37   330.83   330.99   332.15   333.34
eigval :      367.47   367.73   367.82   369.24   371.56   372.37
eigval :      372.43   374.68   379.53   394.36   395.69   395.71
eigval :      396.97   400.56   404.38   404.45   430.08   430.13
eigval :      430.63   433.09   437.78   448.46   452.37   452.48
eigval :      460.12   461.27   461.84   461.90   473.66   475.89
eigval :      475.91   478.34   502.05   505.25   505.75   507.46
eigval :      507.61   508.96   511.35   511.37   527.13   527.29
eigval :      527.95   527.96   532.27   536.61   536.63   537.54
eigval :      543.43   548.43   550.77   550.90   574.63   577.88
eigval :      579.38   579.39   606.67   607.09   608.00   608.02
eigval :      614.50   618.70   620.36   621.67   621.70   626.22
eigval :      627.38   627.43   662.38   663.63   664.64   664.65
eigval :      669.75   679.27   679.29   680.79   687.59   690.24
eigval :      690.28   693.44   725.13   725.96   726.03   726.26
eigval :      741.78   744.94   745.79   745.83   773.44   775.42
eigval :      778.15   778.29   780.70   781.98   782.04   786.19
eigval :      797.09   801.46   802.09   802.10   819.17   819.91
eigval :      820.12   820.23   821.94   822.20   822.26   822.37
eigval :      824.90   831.15   831.39   837.45   841.07   859.49
eigval :      859.66   861.15   862.10   864.42   865.56   865.60
eigval :      868.26   868.38   869.41   877.80   882.57   884.41
eigval :      884.42   885.85   894.07   895.54   895.84   897.05
eigval :      898.47   901.50   901.60   902.53   904.13   904.27
eigval :      905.67   907.21   914.78   915.60   915.82   918.25
eigval :      924.94   925.27   925.27   925.49   934.61   935.16
eigval :      935.33   935.53   935.70   935.98   936.14   936.56
eigval :      976.99   981.11   982.92   982.93  1002.35  1005.98
eigval :     1006.00  1008.17  1047.82  1049.08  1050.17  1050.18
eigval :     1067.47  1067.48  1068.26  1068.69  1076.20  1078.13
eigval :     1078.16  1079.08  1090.68  1092.70  1092.74  1098.17
eigval :     1111.82  1112.09  1112.11  1112.31  1116.80  1119.09
eigval :     1119.12  1121.71  1135.17  1135.35  1135.43  1135.50
eigval :     1158.11  1165.02  1165.09  1167.08  1169.56  1169.66
eigval :     1172.45  1172.83  1173.00  1173.07  1174.68  1175.77
eigval :     1186.39  1187.99  1188.08  1191.22  1198.82  1200.37
eigval :     1200.42  1203.44  1213.71  1215.15  1215.21  1217.71
eigval :     1218.75  1218.77  1219.25  1222.73  1233.16  1242.71
eigval :     1242.90  1255.24  1258.32  1258.78  1258.80  1264.94
eigval :     1273.49  1274.56  1274.59  1276.38  1293.41  1293.46
eigval :     1293.59  1297.46  1297.54  1299.22  1299.48  1302.13
eigval :     1307.99  1308.07  1308.10  1308.12  1318.43  1318.46
eigval :     1319.41  1319.66  1356.45  1356.48  1356.63  1358.38
eigval :     1367.20  1367.23  1368.08  1369.89  1372.57  1373.21
eigval :     1373.30  1373.82  1396.05  1396.21  1396.24  1396.52
eigval :     1396.95  1398.26  1398.29  1399.75  1421.32  1421.60
eigval :     1421.63  1423.06  1437.97  1437.99  1438.02  1440.27
eigval :     1468.01  1468.02  1468.47  1468.93  1484.75  1484.82
eigval :     1484.85  1485.04  1526.60  1526.60  1526.96  1527.46
eigval :     1531.90  1533.01  1533.80  1533.82  1542.96  1543.00
eigval :     1543.17  1543.50  1551.81  1551.83  1552.18  1552.19
eigval :     1558.21  1558.42  1558.45  1558.49  1570.33  1570.78
eigval :     1571.80  1571.85  1582.03  1582.06  1582.10  1582.15
eigval :     2297.15  2297.34  2297.42  2297.67  2940.03  2943.48
eigval :     2943.74  2955.05  2967.69  2968.94  2969.12  2975.44
eigval :     3019.12  3020.15  3020.23  3021.85  3032.30  3033.71
eigval :     3034.14  3036.26  3095.15  3095.52  3095.54  3095.56
eigval :     3095.66  3095.73  3095.78  3096.03  3096.50  3096.77
eigval :     3096.83  3097.45  3104.00  3104.50  3104.57  3104.70
eigval :     3105.10  3105.59  3105.67  3105.98  3107.12  3107.24
eigval :     3107.39  3107.84  3109.89  3110.36  3110.42  3110.49
eigval :     3111.59  3111.75  3111.88  3112.11  3117.65  3117.87
eigval :     3118.05  3118.12  3118.31  3118.43  3118.54  3119.31
 reduced masses (amu)
   1: 27.60   2: 21.64   3: 21.51   4: 21.77   5: 24.53   6: 23.24   7: 12.10   8: 13.25
   9: 17.05  10: 14.97  11: 11.04  12: 15.36  13: 15.26  14: 17.14  15: 17.14  16: 18.05
  17: 11.24  18: 19.87  19: 19.53  20: 11.99  21: 12.32  22: 11.52  23: 11.09  24: 10.46
  25: 12.14  26: 12.07  27: 14.67  28: 14.79  29: 11.19  30: 24.11  31: 14.90  32: 12.73
  33: 12.63  34: 10.72  35: 17.13  36: 11.65  37: 11.66  38: 11.22  39: 11.24  40: 13.49
  41: 13.48  42: 30.71  43: 21.02  44: 12.47  45: 11.10  46: 11.20  47: 11.20  48: 11.16
  49: 11.94  50: 11.72  51: 11.71  52: 11.28  53:  9.94  54: 16.13  55: 16.12  56: 11.17
  57: 13.68  58: 10.61  59: 10.62  60: 12.40  61: 15.04  62: 15.17  63:  9.94  64: 10.95
  65: 32.14  66: 32.14  67: 11.59  68: 48.37  69: 11.51  70: 34.86  71: 24.57  72: 24.57
  73: 30.92  74: 57.95  75: 57.80  76: 11.62  77: 35.61  78: 35.61  79: 11.30  80: 13.44
  81: 13.42  82: 10.72  83: 15.48  84: 15.46  85: 11.32  86: 16.47  87: 11.52  88: 11.52
  89: 12.94  90: 10.84  91:  9.47  92: 10.41  93: 10.52  94:  9.34  95: 10.99  96: 10.41
  97: 10.37  98: 10.98  99: 11.15 100:  9.61 101:  9.55 102:  9.55 103:  9.48 104:  9.83
 105: 12.87 106: 12.86 107: 11.63 108: 11.63 109: 11.28 110: 11.84 111: 10.37 112: 10.29
 113: 11.39 114: 11.39 115: 11.25 116: 11.24 117: 11.42 118: 11.42 119: 11.08 120: 11.34
 121: 11.34 122: 11.25 123: 10.53 124: 11.66 125: 10.33 126: 10.58 127: 10.59 128: 11.62
 129: 12.69 130: 12.69 131: 11.40 132: 11.19 133: 11.59 134: 11.60 135: 10.32 136: 10.52
 137: 10.52 138: 10.44 139:  9.63 140:  9.90 141: 10.37 142: 10.37 143: 11.73 144: 11.75
 145: 12.43 146: 12.43 147: 11.50 148: 11.43 149: 11.49 150: 11.49 151: 11.65 152: 11.35
 153: 11.71 154: 12.34 155: 12.34 156: 11.55 157: 11.80 158: 11.80 159: 11.37 160: 11.20
 161: 11.55 162: 11.55 163:  9.12 164: 10.42 165: 10.44 166: 10.98 167: 10.57 168: 10.01
 169: 10.02 170:  9.93 171: 10.53 172: 10.58 173: 10.58 174: 10.66 175: 11.35 176: 11.39
 177: 11.57 178: 11.57 179:  4.98 180:  4.35 181:  3.88 182:  3.88 183:  3.74 184:  4.75
 185:  4.77 186:  4.29 187: 11.39 188: 11.39 189: 11.44 190: 11.44 191: 10.61 192:  8.02
 193:  8.39 194:  8.62 195:  7.04 196:  6.55 197:  7.50 198:  7.47 199:  4.37 200:  4.16
 201:  4.16 202:  3.98 203:  4.01 204:  3.57 205:  3.58 206:  4.42 207:  3.34 208:  3.32
 209:  4.25 210:  4.25 211:  3.62 212:  3.61 213:  4.33 214: 10.42 215: 10.72 216: 10.83
 217: 10.82 218:  3.93 219:  3.71 220:  3.81 221:  3.80 222:  3.84 223:  3.94 224:  3.82
 225:  3.82 226:  3.92 227:  3.78 228:  3.79 229:  3.55 230:  3.53 231:  2.91 232:  2.89
 233:  2.89 234:  2.77 235:  3.95 236:  3.95 237:  3.97 238:  3.95 239:  3.72 240:  3.72
 241:  3.71 242:  3.71 243:  3.86 244:  3.86 245:  3.87 246:  3.89 247: 11.33 248: 11.23
 249: 11.19 250: 11.19 251: 10.16 252: 10.38 253: 10.39 254: 10.35 255: 10.15 256: 10.14
 257: 10.06 258: 10.06 259:  7.40 260:  7.40 261:  7.18 262:  7.16 263:  8.77 264:  9.00
 265:  9.00 266:  9.46 267:  5.71 268:  5.72 269:  5.71 270:  5.39 271:  6.14 272:  6.16
 273:  6.17 274:  6.15 275:  3.90 276:  3.94 277:  3.94 278:  3.98 279:  3.26 280:  3.26
 281:  3.26 282:  3.24 283:  3.08 284:  3.58 285:  3.60 286:  1.77 287:  1.84 288:  1.84
 289:  4.58 290:  3.66 291:  3.46 292:  3.53 293:  2.08 294:  2.74 295:  2.85 296:  2.69
 297:  2.69 298:  2.54 299:  3.80 300:  4.06 301:  4.06 302:  4.42 303:  4.10 304:  4.12
 305:  4.11 306:  7.53 307:  7.44 308:  7.48 309:  4.52 310:  7.05 311:  2.97 312:  2.83
 313:  2.83 314:  3.33 315:  3.20 316:  3.14 317:  3.14 318:  3.17 319:  7.90 320:  7.97
 321:  7.97 322:  7.71 323:  9.20 324:  9.23 325:  9.02 326: 11.64 327: 11.68 328: 12.04
 329:  8.75 330: 11.34 331: 11.30 332: 11.31 333: 11.31 334: 11.30 335:  9.90 336:  9.89
 337: 10.02 338: 10.05 339: 10.58 340: 10.58 341: 10.61 342: 10.45 343: 10.05 344: 10.05
 345:  9.98 346:  9.90 347:  9.70 348:  9.81 349:  9.81 350:  9.77 351: 10.48 352: 10.16
 353: 10.16 354: 10.16 355: 10.47 356: 10.62 357: 10.63 358: 10.61 359: 10.02 360: 10.07
 361: 10.06 362: 10.00 363: 10.67 364: 10.70 365: 10.70 366: 10.48 367: 11.00 368: 11.00
 369: 11.05 370: 11.02 371: 10.45 372: 10.46 373: 10.45 374: 10.46 375: 11.76 376: 11.76
 377: 11.78 378: 11.80 379: 11.60 380: 11.62 381: 11.62 382: 11.62 383: 11.73 384: 11.73
 385: 11.72 386: 11.73 387: 11.68 388: 11.65 389: 11.64 390: 11.64 391: 11.51 392: 11.51
 393: 11.50 394: 11.49 395: 11.49 396: 11.51 397: 11.52 398: 11.52 399: 11.53 400: 11.53
 401: 11.53 402: 11.53 403: 12.01 404: 12.01 405: 12.01 406: 12.01 407:  1.85 408:  1.83
 409:  1.83 410:  1.81 411:  1.85 412:  1.84 413:  1.84 414:  1.83 415:  1.85 416:  1.84
 417:  1.84 418:  1.84 419:  1.86 420:  1.85 421:  1.85 422:  1.85 423:  1.78 424:  1.78
 425:  1.80 426:  1.79 427:  1.80 428:  1.80 429:  1.79 430:  1.78 431:  1.80 432:  1.80
 433:  1.81 434:  1.81 435:  1.84 436:  1.84 437:  1.84 438:  1.84 439:  1.82 440:  1.83
 441:  1.82 442:  1.82 443:  1.88 444:  1.88 445:  1.88 446:  1.88 447:  1.90 448:  1.90
 449:  1.89 450:  1.90 451:  1.86 452:  1.87 453:  1.87 454:  1.86 455:  1.89 456:  1.87
 457:  1.89 458:  1.89 459:  1.87 460:  1.87 461:  1.89 462:  1.86
 IR intensities (amu)
   1:  0.67   2:  0.63   3:  0.55   4:  0.32   5:  0.18   6:  0.40   7:  0.08   8:  0.28
   9:  0.46  10:  0.37  11:  0.05  12:  0.10  13:  0.10  14:  0.17  15:  0.18  16:  0.03
  17:  0.00  18:  0.06  19:  0.04  20:  0.10  21:  0.10  22:  0.08  23:  0.00  24:  0.01
  25:  0.17  26:  0.16  27:  0.35  28:  0.35  29:  0.03  30:  0.14  31:  0.11  32:  0.30
  33:  0.30  34:  0.00  35:  0.10  36:  0.03  37:  0.04  38:  0.00  39:  0.00  40:  0.14
  41:  0.14  42:  0.10  43:  0.15  44:  0.01  45:  0.01  46:  0.05  47:  0.05  48:  0.00
  49:  0.03  50:  0.17  51:  0.17  52:  0.00  53:  0.00  54:  0.20  55:  0.20  56:  0.00
  57:  0.03  58:  0.26  59:  0.26  60:  0.11  61:  0.64  62:  0.65  63:  0.02  64:  0.02
  65:  0.85  66:  0.86  67:  0.02  68:  0.31  69:  0.01  70:  0.04  71:  0.81  72:  0.80
  73:  0.32  74:  0.75  75:  0.76  76:  0.08  77:  0.94  78:  0.93  79:  0.01  80:  0.29
  81:  0.29  82:  0.00  83:  0.28  84:  0.27  85:  0.01  86:  0.15  87:  0.23  88:  0.23
  89:  0.12  90:  0.00  91:  0.38  92:  0.19  93:  0.17  94:  0.01  95:  0.35  96:  0.08
  97:  0.08  98:  0.00  99:  0.06 100:  0.09 101:  0.10 102:  0.10 103:  0.00 104:  0.00
 105:  0.24 106:  0.24 107:  0.15 108:  0.15 109:  0.02 110:  0.15 111:  0.01 112:  0.00
 113:  0.14 114:  0.14 115:  0.08 116:  0.01 117:  0.10 118:  0.10 119:  0.01 120:  0.13
 121:  0.14 122:  0.05 123:  0.05 124:  0.00 125:  0.00 126:  0.04 127:  0.04 128:  0.40
 129:  0.39 130:  0.39 131:  0.00 132:  0.02 133:  0.13 134:  0.14 135:  0.13 136:  0.18
 137:  0.17 138:  0.01 139:  0.10 140:  0.01 141:  0.07 142:  0.07 143:  0.00 144:  0.20
 145:  0.59 146:  0.60 147:  0.01 148:  0.09 149:  0.09 150:  0.09 151:  0.00 152:  0.01
 153:  0.20 154:  0.40 155:  0.40 156:  0.01 157:  0.16 158:  0.16 159:  0.00 160:  0.47
 161:  0.07 162:  0.07 163:  0.11 164:  0.21 165:  0.20 166:  0.00 167:  0.13 168:  0.12
 169:  0.12 170:  0.00 171:  0.01 172:  0.13 173:  0.13 174:  0.02 175:  0.00 176:  0.21
 177:  0.49 178:  0.49 179:  0.01 180:  0.01 181:  0.07 182:  0.08 183:  0.02 184:  0.34
 185:  0.34 186:  0.00 187:  0.00 188:  0.25 189:  0.56 190:  0.56 191:  0.01 192:  0.18
 193:  0.12 194:  0.10 195:  0.16 196:  0.11 197:  0.27 198:  0.30 199:  0.16 200:  0.36
 201:  0.36 202:  0.01 203:  0.04 204:  0.08 205:  0.08 206:  0.06 207:  0.01 208:  0.15
 209:  0.04 210:  0.04 211:  0.07 212:  0.07 213:  0.00 214:  0.00 215:  0.42 216:  0.06
 217:  0.06 218:  0.00 219:  0.03 220:  0.01 221:  0.01 222:  0.00 223:  0.02 224:  0.02
 225:  0.02 226:  0.01 227:  0.04 228:  0.04 229:  0.00 230:  0.01 231:  0.08 232:  0.03
 233:  0.01 234:  0.00 235:  0.12 236:  0.15 237:  0.15 238:  0.21 239:  0.03 240:  0.03
 241:  0.02 242:  0.02 243:  0.04 244:  0.05 245:  0.05 246:  0.01 247:  0.00 248:  0.36
 249:  0.26 250:  0.26 251:  0.01 252:  0.27 253:  0.27 254:  0.41 255:  0.00 256:  0.37
 257:  0.11 258:  0.11 259:  0.74 260:  0.74 261:  0.03 262:  0.22 263:  0.01 264:  0.49
 265:  0.49 266:  0.04 267:  0.02 268:  0.36 269:  0.36 270:  0.47 271:  0.10 272:  0.43
 273:  0.43 274:  0.43 275:  0.02 276:  0.42 277:  0.42 278:  0.09 279:  0.06 280:  0.05
 281:  0.06 282:  0.07 283:  0.00 284:  0.43 285:  0.43 286:  0.00 287:  0.10 288:  0.10
 289:  0.20 290:  0.07 291:  0.16 292:  0.14 293:  0.31 294:  0.53 295:  0.01 296:  0.18
 297:  0.18 298:  0.37 299:  0.00 300:  0.06 301:  0.06 302:  0.51 303:  0.00 304:  0.12
 305:  0.13 306:  0.01 307:  0.07 308:  0.06 309:  0.25 310:  0.32 311:  0.01 312:  0.10
 313:  0.10 314:  0.07 315:  0.01 316:  0.05 317:  0.05 318:  0.08 319:  0.03 320:  0.59
 321:  0.59 322:  0.98 323:  0.10 324:  0.11 325:  0.02 326:  0.29 327:  0.29 328:  0.03
 329:  0.21 330:  0.28 331:  0.03 332:  0.03 333:  0.03 334:  0.04 335:  0.24 336:  0.24
 337:  0.04 338:  0.37 339:  0.35 340:  0.35 341:  0.08 342:  1.81 343:  0.18 344:  0.18
 345:  0.02 346:  1.36 347:  0.02 348:  0.48 349:  0.47 350:  0.50 351:  0.02 352:  0.06
 353:  0.06 354:  0.24 355:  0.03 356:  1.62 357:  1.62 358:  0.70 359:  0.01 360:  0.18
 361:  0.19 362:  0.55 363:  0.19 364:  0.14 365:  0.14 366:  2.08 367:  0.51 368:  0.51
 369:  0.04 370:  0.30 371:  0.25 372:  0.61 373:  0.41 374:  0.12 375:  0.36 376:  0.33
 377:  1.60 378:  0.01 379:  0.03 380:  0.04 381:  0.59 382:  0.59 383:  0.32 384:  0.32
 385:  0.25 386:  0.04 387:  0.62 388:  2.20 389:  0.36 390:  0.51 391:  0.10 392:  0.84
 393:  1.07 394:  1.15 395:  0.42 396:  0.02 397:  0.68 398:  0.68 399:  0.32 400:  0.25
 401:  0.44 402:  0.93 403:  0.64 404:  0.72 405:  1.05 406:  1.25 407:  0.03 408:  0.13
 409:  0.12 410:  0.01 411:  0.01 412:  0.07 413:  0.08 414:  0.04 415:  0.01 416:  0.05
 417:  0.04 418:  0.21 419:  0.01 420:  0.05 421:  0.06 422:  0.18 423:  0.11 424:  0.11
 425:  0.06 426:  0.09 427:  0.16 428:  0.09 429:  0.09 430:  0.12 431:  0.19 432:  0.09
 433:  0.10 434:  0.10 435:  0.14 436:  0.13 437:  0.14 438:  0.14 439:  0.03 440:  0.04
 441:  0.04 442:  0.03 443:  0.22 444:  0.24 445:  0.28 446:  0.26 447:  0.29 448:  0.24
 449:  0.33 450:  0.27 451:  0.11 452:  0.20 453:  0.18 454:  0.17 455:  0.01 456:  0.11
 457:  0.05 458:  0.03 459:  0.08 460:  0.10 461:  0.03 462:  0.09
 Raman intensities (amu)
   1:  0.00   2:  0.00   3:  0.00   4:  0.00   5:  0.00   6:  0.00   7:  0.00   8:  0.00
   9:  0.00  10:  0.00  11:  0.00  12:  0.00  13:  0.00  14:  0.00  15:  0.00  16:  0.00
  17:  0.00  18:  0.00  19:  0.00  20:  0.00  21:  0.00  22:  0.00  23:  0.00  24:  0.00
  25:  0.00  26:  0.00  27:  0.00  28:  0.00  29:  0.00  30:  0.00  31:  0.00  32:  0.00
  33:  0.00  34:  0.00  35:  0.00  36:  0.00  37:  0.00  38:  0.00  39:  0.00  40:  0.00
  41:  0.00  42:  0.00  43:  0.00  44:  0.00  45:  0.00  46:  0.00  47:  0.00  48:  0.00
  49:  0.00  50:  0.00  51:  0.00  52:  0.00  53:  0.00  54:  0.00  55:  0.00  56:  0.00
  57:  0.00  58:  0.00  59:  0.00  60:  0.00  61:  0.00  62:  0.00  63:  0.00  64:  0.00
  65:  0.00  66:  0.00  67:  0.00  68:  0.00  69:  0.00  70:  0.00  71:  0.00  72:  0.00
  73:  0.00  74:  0.00  75:  0.00  76:  0.00  77:  0.00  78:  0.00  79:  0.00  80:  0.00
  81:  0.00  82:  0.00  83:  0.00  84:  0.00  85:  0.00  86:  0.00  87:  0.00  88:  0.00
  89:  0.00  90:  0.00  91:  0.00  92:  0.00  93:  0.00  94:  0.00  95:  0.00  96:  0.00
  97:  0.00  98:  0.00  99:  0.00 100:  0.00 101:  0.00 102:  0.00 103:  0.00 104:  0.00
 105:  0.00 106:  0.00 107:  0.00 108:  0.00 109:  0.00 110:  0.00 111:  0.00 112:  0.00
 113:  0.00 114:  0.00 115:  0.00 116:  0.00 117:  0.00 118:  0.00 119:  0.00 120:  0.00
 121:  0.00 122:  0.00 123:  0.00 124:  0.00 125:  0.00 126:  0.00 127:  0.00 128:  0.00
 129:  0.00 130:  0.00 131:  0.00 132:  0.00 133:  0.00 134:  0.00 135:  0.00 136:  0.00
 137:  0.00 138:  0.00 139:  0.00 140:  0.00 141:  0.00 142:  0.00 143:  0.00 144:  0.00
 145:  0.00 146:  0.00 147:  0.00 148:  0.00 149:  0.00 150:  0.00 151:  0.00 152:  0.00
 153:  0.00 154:  0.00 155:  0.00 156:  0.00 157:  0.00 158:  0.00 159:  0.00 160:  0.00
 161:  0.00 162:  0.00 163:  0.00 164:  0.00 165:  0.00 166:  0.00 167:  0.00 168:  0.00
 169:  0.00 170:  0.00 171:  0.00 172:  0.00 173:  0.00 174:  0.00 175:  0.00 176:  0.00
 177:  0.00 178:  0.00 179:  0.00 180:  0.00 181:  0.00 182:  0.00 183:  0.00 184:  0.00
 185:  0.00 186:  0.00 187:  0.00 188:  0.00 189:  0.00 190:  0.00 191:  0.00 192:  0.00
 193:  0.00 194:  0.00 195:  0.00 196:  0.00 197:  0.00 198:  0.00 199:  0.00 200:  0.00
 201:  0.00 202:  0.00 203:  0.00 204:  0.00 205:  0.00 206:  0.00 207:  0.00 208:  0.00
 209:  0.00 210:  0.00 211:  0.00 212:  0.00 213:  0.00 214:  0.00 215:  0.00 216:  0.00
 217:  0.00 218:  0.00 219:  0.00 220:  0.00 221:  0.00 222:  0.00 223:  0.00 224:  0.00
 225:  0.00 226:  0.00 227:  0.00 228:  0.00 229:  0.00 230:  0.00 231:  0.00 232:  0.00
 233:  0.00 234:  0.00 235:  0.00 236:  0.00 237:  0.00 238:  0.00 239:  0.00 240:  0.00
 241:  0.00 242:  0.00 243:  0.00 244:  0.00 245:  0.00 246:  0.00 247:  0.00 248:  0.00
 249:  0.00 250:  0.00 251:  0.00 252:  0.00 253:  0.00 254:  0.00 255:  0.00 256:  0.00
 257:  0.00 258:  0.00 259:  0.00 260:  0.00 261:  0.00 262:  0.00 263:  0.00 264:  0.00
 265:  0.00 266:  0.00 267:  0.00 268:  0.00 269:  0.00 270:  0.00 271:  0.00 272:  0.00
 273:  0.00 274:  0.00 275:  0.00 276:  0.00 277:  0.00 278:  0.00 279:  0.00 280:  0.00
 281:  0.00 282:  0.00 283:  0.00 284:  0.00 285:  0.00 286:  0.00 287:  0.00 288:  0.00
 289:  0.00 290:  0.00 291:  0.00 292:  0.00 293:  0.00 294:  0.00 295:  0.00 296:  0.00
 297:  0.00 298:  0.00 299:  0.00 300:  0.00 301:  0.00 302:  0.00 303:  0.00 304:  0.00
 305:  0.00 306:  0.00 307:  0.00 308:  0.00 309:  0.00 310:  0.00 311:  0.00 312:  0.00
 313:  0.00 314:  0.00 315:  0.00 316:  0.00 317:  0.00 318:  0.00 319:  0.00 320:  0.00
 321:  0.00 322:  0.00 323:  0.00 324:  0.00 325:  0.00 326:  0.00 327:  0.00 328:  0.00
 329:  0.00 330:  0.00 331:  0.00 332:  0.00 333:  0.00 334:  0.00 335:  0.00 336:  0.00
 337:  0.00 338:  0.00 339:  0.00 340:  0.00 341:  0.00 342:  0.00 343:  0.00 344:  0.00
 345:  0.00 346:  0.00 347:  0.00 348:  0.00 349:  0.00 350:  0.00 351:  0.00 352:  0.00
 353:  0.00 354:  0.00 355:  0.00 356:  0.00 357:  0.00 358:  0.00 359:  0.00 360:  0.00
 361:  0.00 362:  0.00 363:  0.00 364:  0.00 365:  0.00 366:  0.00 367:  0.00 368:  0.00
 369:  0.00 370:  0.00 371:  0.00 372:  0.00 373:  0.00 374:  0.00 375:  0.00 376:  0.00
 377:  0.00 378:  0.00 379:  0.00 380:  0.00 381:  0.00 382:  0.00 383:  0.00 384:  0.00
 385:  0.00 386:  0.00 387:  0.00 388:  0.00 389:  0.00 390:  0.00 391:  0.00 392:  0.00
 393:  0.00 394:  0.00 395:  0.00 396:  0.00 397:  0.00 398:  0.00 399:  0.00 400:  0.00
 401:  0.00 402:  0.00 403:  0.00 404:  0.00 405:  0.00 406:  0.00 407:  0.00 408:  0.00
 409:  0.00 410:  0.00 411:  0.00 412:  0.00 413:  0.00 414:  0.00 415:  0.00 416:  0.00
 417:  0.00 418:  0.00 419:  0.00 420:  0.00 421:  0.00 422:  0.00 423:  0.00 424:  0.00
 425:  0.00 426:  0.00 427:  0.00 428:  0.00 429:  0.00 430:  0.00 431:  0.00 432:  0.00
 433:  0.00 434:  0.00 435:  0.00 436:  0.00 437:  0.00 438:  0.00 439:  0.00 440:  0.00
 441:  0.00 442:  0.00 443:  0.00 444:  0.00 445:  0.00 446:  0.00 447:  0.00 448:  0.00
 449:  0.00 450:  0.00 451:  0.00 452:  0.00 453:  0.00 454:  0.00 455:  0.00 456:  0.00
 457:  0.00 458:  0.00 459:  0.00 460:  0.00 461:  0.00 462:  0.00
 output can be read by thermo (or use thermo option).
 writing <g98.out> molden fake output.
 recommended (thermochemical) frequency scaling factor: 1.0
           -------------------------------------------------
          |             Thermodynamic Functions             |
           -------------------------------------------------

Refinement of some symmetry elements was terminated before convergence was reached.
Some symmetry elements may remain unidentified.
Molecule has the following symmetry elements: (C4) (C2) 
It seems to be the C4 point group
c4  symmetry found (for desy threshold:  0.10E+00) used in thermo

          ...................................................
          :                      SETUP                      :
          :.................................................:
          :  # frequencies                         456      :
          :  # imaginary freq.                       0      :
          :  linear?                             false      :
          :  only rotor calc.                    false      :
          :  symmetry                               c4      :
          :  rotational number                       4      :
          :  scaling factor                  1.0000000      :
          :  rotor cutoff                   50.0000000 cm⁻¹ :
          :  imag. cutoff                  -20.0000000 cm⁻¹ :
          :.................................................:

    mode    ω/cm⁻¹     T·S(HO)/kcal·mol⁻¹    T·S(FR)/kcal·mol⁻¹   T·S(vib)
   ------------------------------------------------------------------------
       1      8.83    -2.46199 (  0.10%)    -1.57007 ( 99.90%)    -1.57094
       2     12.84    -2.24024 (  0.43%)    -1.45918 ( 99.57%)    -1.46257
       3     13.54    -2.20897 (  0.53%)    -1.44354 ( 99.47%)    -1.44764
       4     13.67    -2.20317 (  0.56%)    -1.44064 ( 99.44%)    -1.44488
       5     15.10    -2.14433 (  0.83%)    -1.41121 ( 99.17%)    -1.41726
       6     17.56    -2.05511 (  1.50%)    -1.36658 ( 98.50%)    -1.37689
       7     17.60    -2.05357 (  1.51%)    -1.36581 ( 98.49%)    -1.37621
       8     24.12    -1.86711 (  5.14%)    -1.27250 ( 94.86%)    -1.30305
       9     24.16    -1.86621 (  5.17%)    -1.27205 ( 94.83%)    -1.30275
      10     26.70    -1.80702 (  7.52%)    -1.24242 ( 92.48%)    -1.28486
      11     29.80    -1.74196 ( 11.21%)    -1.20984 ( 88.79%)    -1.26947
      12     33.39    -1.67468 ( 16.59%)    -1.17613 ( 83.41%)    -1.25886
      13     41.40    -1.54769 ( 31.97%)    -1.11247 ( 68.03%)    -1.25162
      14     41.67    -1.54377 ( 32.55%)    -1.11050 ( 67.45%)    -1.25154
      15     41.79    -1.54216 ( 32.79%)    -1.10969 ( 67.21%)    -1.25151
      16     46.76    -1.47581 ( 43.34%)    -1.07639 ( 56.66%)    -1.24950
      17     50.05    -1.43568 ( 50.10%)    -1.05624 ( 49.90%)    -1.24636
      18     59.54    -1.33340 ( 66.79%)    -1.00480 ( 33.21%)    -1.22427
      19     62.03    -1.30934 ( 70.31%)    -0.99268 ( 29.69%)    -1.21534
      20     62.09    -1.30877 ( 70.40%)    -0.99239 ( 29.60%)    -1.21511
      21     65.43    -1.27794 ( 74.57%)    -0.97686 ( 25.43%)    -1.20139
      22     65.51    -1.27728 ( 74.66%)    -0.97652 ( 25.34%)    -1.20107
      23     66.49    -1.26850 ( 75.77%)    -0.97210 ( 24.23%)    -1.19669
      24     67.27    -1.26169 ( 76.61%)    -0.96866 ( 23.39%)    -1.19317
      25     71.35    -1.22711 ( 80.57%)    -0.95121 ( 19.43%)    -1.17350
      26     73.53    -1.20946 ( 82.39%)    -0.94230 ( 17.61%)    -1.16240
      27     73.56    -1.20926 ( 82.41%)    -0.94220 ( 17.59%)    -1.16227
      28     80.29    -1.15797 ( 86.92%)    -0.91625 ( 13.08%)    -1.12636
      29     89.16    -1.09669 ( 91.00%)    -0.88519 (  9.00%)    -1.07766
      30     99.31    -1.03390 ( 93.96%)    -0.85325 (  6.04%)    -1.02299
      31     99.41    -1.03336 ( 93.98%)    -0.85297 (  6.02%)    -1.02251
      32    102.42    -1.01599 ( 94.63%)    -0.84411 (  5.37%)    -1.00676
      33    105.55    -0.99856 ( 95.21%)    -0.83521 (  4.79%)    -0.99073
      34    106.31    -0.99437 ( 95.34%)    -0.83307 (  4.66%)    -0.98685
      35    106.37    -0.99406 ( 95.35%)    -0.83291 (  4.65%)    -0.98656
      36    116.24    -0.94274 ( 96.69%)    -0.80663 (  3.31%)    -0.93823
      37    116.62    -0.94085 ( 96.73%)    -0.80566 (  3.27%)    -0.93643
      38    128.22    -0.88628 ( 97.74%)    -0.77758 (  2.26%)    -0.88383
      39    130.85    -0.87461 ( 97.91%)    -0.77155 (  2.09%)    -0.87246
      40    131.37    -0.87237 ( 97.94%)    -0.77039 (  2.06%)    -0.87027
      41    131.39    -0.87226 ( 97.95%)    -0.77033 (  2.05%)    -0.87017
      42    139.50    -0.83801 ( 98.38%)    -0.75259 (  1.62%)    -0.83663
      43    151.40    -0.79146 ( 98.82%)    -0.72834 (  1.18%)    -0.79072
      44    153.23    -0.78463 ( 98.88%)    -0.72477 (  1.12%)    -0.78396
      45    153.33    -0.78426 ( 98.88%)    -0.72458 (  1.12%)    -0.78360
      46    159.54    -0.76185 ( 99.04%)    -0.71283 (  0.96%)    -0.76138
      47    162.39    -0.75185 ( 99.11%)    -0.70758 (  0.89%)    -0.75146
      48    165.16    -0.74234 ( 99.17%)    -0.70257 (  0.83%)    -0.74201
      49    165.29    -0.74191 ( 99.17%)    -0.70234 (  0.83%)    -0.74158
      50    171.48    -0.72127 ( 99.28%)    -0.69144 (  0.72%)    -0.72105
      51    173.23    -0.71560 ( 99.31%)    -0.68844 (  0.69%)    -0.71541
      52    174.58    -0.71126 ( 99.33%)    -0.68614 (  0.67%)    -0.71109
      53    174.68    -0.71094 ( 99.33%)    -0.68597 (  0.67%)    -0.71077
      54    182.61    -0.68619 ( 99.44%)    -0.67281 (  0.56%)    -0.68612
      55    182.70    -0.68595 ( 99.44%)    -0.67268 (  0.56%)    -0.68587
      56    183.02    -0.68496 ( 99.45%)    -0.67215 (  0.55%)    -0.68489
      57    184.43    -0.68070 ( 99.46%)    -0.66988 (  0.54%)    -0.68064
      58    189.49    -0.66570 ( 99.52%)    -0.66186 (  0.48%)    -0.66568
      59    196.36    -0.64608 ( 99.58%)    -0.65132 (  0.42%)    -0.64610
      60    196.57    -0.64547 ( 99.58%)    -0.65099 (  0.42%)    -0.64549
      61    200.56    -0.63445 ( 99.62%)    -0.64504 (  0.38%)    -0.63449
      62    215.81    -0.59451 ( 99.71%)    -0.62333 (  0.29%)    -0.59459
      63    225.98    -0.56966 ( 99.76%)    -0.60969 (  0.24%)    -0.56976
      64    237.22    -0.54371 ( 99.80%)    -0.59531 (  0.20%)    -0.54381
      65    238.81    -0.54017 ( 99.81%)    -0.59334 (  0.19%)    -0.54028
      66    238.85    -0.54007 ( 99.81%)    -0.59328 (  0.19%)    -0.54018
      67    258.29    -0.49889 ( 99.86%)    -0.57010 (  0.14%)    -0.49899
      68    260.39    -0.49468 ( 99.86%)    -0.56771 (  0.14%)    -0.49478
      69    260.48    -0.49450 ( 99.86%)    -0.56761 (  0.14%)    -0.49460
      70    261.06    -0.49334 ( 99.87%)    -0.56694 (  0.13%)    -0.49344
      71    276.52    -0.46366 ( 99.89%)    -0.54990 (  0.11%)    -0.46375
      72    276.58    -0.46354 ( 99.89%)    -0.54983 (  0.11%)    -0.46363
      73    298.40    -0.42512 ( 99.92%)    -0.52734 (  0.08%)    -0.42520
   ------------------------------------------------------------------------

   temp. (K)  partition function   enthalpy   heat capacity  entropy
                                   cal/mol     cal/K/mol   cal/K/mol   J/K/mol
 298.15  VIB  0.344E+40            50212.884    323.939    315.902
         ROT  0.138E+09              888.752      2.981     40.223
         INT  0.474E+48            51101.637    326.920    356.125
         TR   0.528E+29             1481.254      4.968     47.643
         TOT                       52582.8905   331.8884   403.7683  1689.3664

       T/K    H(0)-H(T)+PV         H(T)/Eh          T*S/Eh         G(T)/Eh
   ------------------------------------------------------------------------
    298.15    0.837962E-01    0.122914E+01    0.191843E+00    0.103730E+01
   ------------------------------------------------------------------------

         :::::::::::::::::::::::::::::::::::::::::::::::::::::
         ::                  THERMODYNAMIC                  ::
         :::::::::::::::::::::::::::::::::::::::::::::::::::::
         :: total free energy        -247.208107830188 Eh   ::
         ::.................................................::
         :: total energy             -248.245404700774 Eh   ::
         :: zero point energy           1.145344029345 Eh   ::
         :: G(RRHO) w/o ZPVE           -0.108047158759 Eh   ::
         :: G(RRHO) contrib.            1.037296870586 Eh   ::
         :::::::::::::::::::::::::::::::::::::::::::::::::::::

           -------------------------------------------------
          | TOTAL ENERGY             -248.245404700774 Eh   |
          | TOTAL ENTHALPY           -247.016264501610 Eh   |
          | TOTAL FREE ENERGY        -247.208107830188 Eh   |
          | GRADIENT NORM               0.000613190690 Eh/α |
          | HOMO-LUMO GAP               2.132680354691 eV   |
           -------------------------------------------------

------------------------------------------------------------------------
 * finished run on 2021/06/21 at 21:45:26.895     
------------------------------------------------------------------------
 total:
 * wall-time:     0 d,  0 h,  5 min, 55.833 sec
 *  cpu-time:     0 d,  0 h, 34 min, 59.382 sec
 * ratio c/w:     5.900 speedup
 SCF:
 * wall-time:     0 d,  0 h,  0 min,  0.752 sec
 *  cpu-time:     0 d,  0 h,  0 min,  4.033 sec
 * ratio c/w:     5.363 speedup
 numerical hessian:
 * wall-time:     0 d,  0 h,  5 min, 54.280 sec
 *  cpu-time:     0 d,  0 h, 34 min, 54.362 sec
 * ratio c/w:     5.912 speedup

