 Entering Gaussian System, Link 0=g16
 Initial command:
 /apps/gaussian/g16-c01-avx/g16/l1.exe "/rds/general/ephemeral/user/atarzia/ephemeral/unsymm/single_point_dft/s_4c3_a/Gau-1997384.inp" -scrdir="/rds/general/ephemeral/user/atarzia/ephemeral/unsymm/single_point_dft/s_4c3_a/"
 Entering Link 1 = /apps/gaussian/g16-c01-avx/g16/l1.exe PID=   1997385.
  
 Copyright (c) 1988-2019, Gaussian, Inc.  All Rights Reserved.
  
 This is part of the Gaussian(R) 16 program.  It is based on
 the Gaussian(R) 09 system (copyright 2009, Gaussian, Inc.),
 the Gaussian(R) 03 system (copyright 2003, Gaussian, Inc.),
 the Gaussian(R) 98 system (copyright 1998, Gaussian, Inc.),
 the Gaussian(R) 94 system (copyright 1995, Gaussian, Inc.),
 the Gaussian 92(TM) system (copyright 1992, Gaussian, Inc.),
 the Gaussian 90(TM) system (copyright 1990, Gaussian, Inc.),
 the Gaussian 88(TM) system (copyright 1988, Gaussian, Inc.),
 the Gaussian 86(TM) system (copyright 1986, Carnegie Mellon
 University), and the Gaussian 82(TM) system (copyright 1983,
 Carnegie Mellon University). Gaussian is a federally registered
 trademark of Gaussian, Inc.
  
 This software contains proprietary and confidential information,
 including trade secrets, belonging to Gaussian, Inc.
  
 This software is provided under written license and may be
 used, copied, transmitted, or stored only in accord with that
 written license.
  
 The following legend is applicable only to US Government
 contracts under FAR:
  
                    RESTRICTED RIGHTS LEGEND
  
 Use, reproduction and disclosure by the US Government is
 subject to restrictions as set forth in subparagraphs (a)
 and (c) of the Commercial Computer Software - Restricted
 Rights clause in FAR 52.227-19.
  
 Gaussian, Inc.
 340 Quinnipiac St., Bldg. 40, Wallingford CT 06492
  
  
 ---------------------------------------------------------------
 Warning -- This program may not be used in any manner that
 competes with the business of Gaussian, Inc. or will provide
 assistance to any competitor of Gaussian, Inc.  The licensee
 of this program is prohibited from giving any competitor of
 Gaussian, Inc. access to this program.  By using this program,
 the user acknowledges that Gaussian, Inc. is engaged in the
 business of creating and licensing software in the field of
 computational chemistry and represents and warrants to the
 licensee that it is not a competitor of Gaussian, Inc. and that
 it will not use this program in any manner prohibited above.
 ---------------------------------------------------------------
  

 Cite this work as:
 Gaussian 16, Revision C.01,
 M. J. Frisch, G. W. Trucks, H. B. Schlegel, G. E. Scuseria, 
 M. A. Robb, J. R. Cheeseman, G. Scalmani, V. Barone, 
 G. A. Petersson, H. Nakatsuji, X. Li, M. Caricato, A. V. Marenich, 
 J. Bloino, B. G. Janesko, R. Gomperts, B. Mennucci, H. P. Hratchian, 
 J. V. Ortiz, A. F. Izmaylov, J. L. Sonnenberg, D. Williams-Young, 
 F. Ding, F. Lipparini, F. Egidi, J. Goings, B. Peng, A. Petrone, 
 T. Henderson, D. Ranasinghe, V. G. Zakrzewski, J. Gao, N. Rega, 
 G. Zheng, W. Liang, M. Hada, M. Ehara, K. Toyota, R. Fukuda, 
 J. Hasegawa, M. Ishida, T. Nakajima, Y. Honda, O. Kitao, H. Nakai, 
 T. Vreven, K. Throssell, J. A. Montgomery, Jr., J. E. Peralta, 
 F. Ogliaro, M. J. Bearpark, J. J. Heyd, E. N. Brothers, K. N. Kudin, 
 V. N. Staroverov, T. A. Keith, R. Kobayashi, J. Normand, 
 K. Raghavachari, A. P. Rendell, J. C. Burant, S. S. Iyengar, 
 J. Tomasi, M. Cossi, J. M. Millam, M. Klene, C. Adamo, R. Cammi, 
 J. W. Ochterski, R. L. Martin, K. Morokuma, O. Farkas, 
 J. B. Foresman, and D. J. Fox, Gaussian, Inc., Wallingford CT, 2019.
 
 ******************************************
 Gaussian 16:  ES64L-G16RevC.01  3-Jul-2019
                26-Feb-2021 
 ******************************************
 %chk=_s_4c3_a.chk
 %mem=60000mb
 %nprocshared=32
 Will use up to   32 processors via shared memory.
 ----------------------------------------------------------------------
 #P PBE1PBE/Def2SVP SP SCF=(YQC,MaxCycle=900) int=(Grid=Superfinegrid) 
 EmpiricalDispersion=GD3BJ SCRF=(PCM,Solvent=DiMethylSulfoxide)
 ----------------------------------------------------------------------
 1/38=1,172=1/1;
 2/12=2,17=6,18=5,40=1/2;
 3/5=43,7=101,11=2,25=1,30=1,70=2201,72=21,74=-13,75=-7,124=41/1,2,3;
 4//1;
 5/5=2,7=900,8=4,13=1,38=1,53=21/8,2,8;
 6/7=2,8=2,9=2,10=2,28=1/1;
 99/5=1,9=1/99;
 Leave Link    1 at Fri Feb 26 10:27:01 2021, MaxMem=  7864320000 cpu:               4.1 elap:               0.1
 (Enter /apps/gaussian/g16-c01-avx/g16/l101.exe)
 --------
 _s_4c3_a
 --------
 Symbolic Z-matrix:
 Charge =  4 Multiplicity = 1
 Pd                   -0.5266    6.8358   -1.6022 
 Pd                    0.2374   -7.0854    0.8855 
 C                     4.2383    4.1237    0.3952 
 C                     3.7176    4.8519    1.2093 
 C                     3.2034    5.8106    2.1074 
 C                     3.8179    6.0485    3.3213 
 C                     3.4093    7.1106    4.1371 
 C                     2.407     7.9634    3.7465 
 C                     1.7401    7.7487    2.5267 
 C                     0.7198    8.5955    2.0374 
 C                     0.1186    8.3229    0.8419 
 N                     0.4331    7.2221    0.1121 
 C                     1.3867    6.4118    0.5341 
 C                     2.1099    6.639     1.7136 
 H                     4.6415    5.4233    3.6301 
 H                     3.9157    7.2714    5.0767 
 H                     2.1247    8.8041    4.3605 
 H                     0.43      9.4624    2.6095 
 H                    -0.6427    8.9727    0.422 
 H                     1.6063    5.5329   -0.0687 
 C                     4.9311    3.3746   -0.5825 
 C                     5.8551    4.0705   -1.3839 
 C                     6.612     3.4208   -2.333 
 C                     6.433     2.0519   -2.4801 
 N                     7.064     1.179    -3.3267 
 C                     6.5878   -0.0835   -3.11 
 C                     6.9549   -1.28     -3.7157 
 C                     6.3247   -2.4312   -3.3021 
 C                     5.3304   -2.4009   -2.3048 
 C                     4.9542   -1.2001   -1.7023 
 C                     5.5902   -0.0371   -2.1016 
 C                     5.4934    1.3405   -1.693 
 C                     4.7386    2.0053   -0.7379 
 H                     5.9788    5.1319   -1.2325 
 H                     7.3328    3.9573   -2.9297 
 H                     7.8043    1.4184   -3.9654 
 H                     7.7168   -1.3081   -4.4796 
 H                     6.5908   -3.3791   -3.7447 
 H                     4.1973   -1.1872   -0.9346 
 H                     4.0315    1.4773   -0.1187 
 C                     4.7347   -3.6127   -1.9127 
 C                     4.2498   -4.6727   -1.5875 
 C                     3.7004   -5.905    -1.1977 
 C                     4.3343   -7.1201   -1.5014 
 C                     3.7587   -8.304    -1.0803 
 C                     2.5662   -8.2656   -0.3721 
 N                     1.9608   -7.1087   -0.0925 
 C                     2.4984   -5.9565   -0.4849 
 H                     5.2612   -7.1177   -2.0533 
 H                     4.2267   -9.2508   -1.296 
 H                     2.0785   -9.1713   -0.0203 
 H                     1.9636   -5.0439   -0.2259 
 C                    -2.2117    4.2481    3.5323 
 C                    -3.0786    4.732     2.8403 
 C                    -4.1154    5.3945    2.1508 
 C                    -5.399     5.3941    2.6623 
 C                    -6.4105    6.159     2.0714 
 C                    -6.1548    6.9532    0.9817 
 C                    -4.8642    6.9819    0.4239 
 C                    -4.5124    7.809    -0.6667 
 C                    -3.2401    7.7843   -1.1601 
 N                    -2.2919    6.9481   -0.6637 
 C                    -2.5771    6.1758    0.3684 
 C                    -3.8372    6.1691    0.9854 
 H                    -5.6129    4.814     3.5465 
 H                    -7.3997    6.1422    2.5031 
 H                    -6.9287    7.5685    0.5505 
 H                    -5.2533    8.4641   -1.0964 
 H                    -2.9272    8.4314   -1.9744 
 H                    -1.791     5.5221    0.7398 
 C                    -1.2036    3.8074    4.4193 
 C                    -0.7709    4.728     5.3923 
 C                     0.1868    4.3902    6.3222 
 C                     0.713     3.1061    6.2734 
 N                     1.6547    2.5237    7.0801 
 C                     1.845     1.2288    6.6891 
 C                     2.6803    0.2589    7.2323 
 C                     2.67     -0.9928    6.6614 
 C                     1.8467   -1.2838    5.5559 
 C                     1.0187   -0.3077    5.0002 
 C                     1.0139    0.9534    5.5716 
 C                     0.2854    2.1667    5.3022 
 C                    -0.6763    2.5208    4.3666 
 H                    -1.2107    5.7136    5.4074 
 H                     0.5097    5.0984    7.0696 
 H                     2.1029    2.9664    7.8652 
 H                     3.3094    0.4769    8.0818 
 H                     3.2985   -1.7729    7.0634 
 H                     0.3889   -0.5409    4.1568 
 H                    -1.0193    1.8173    3.6252 
 C                     1.8567   -2.5921    5.0414 
 C                     1.8756   -3.7347    4.643 
 C                     1.8685   -5.0677    4.2018 
 C                     2.4691   -6.0921    4.9506 
 C                     2.4067   -7.3921    4.4857 
 C                     1.7524   -7.656     3.2909 
 N                     1.1911   -6.6783    2.5754 
 C                     1.2417   -5.4189    3.0021 
 H                     2.9658   -5.8567    5.8789 
 H                     2.8562   -8.198     5.0428 
 H                     1.6725   -8.6635    2.8906 
 H                     0.7683   -4.6622    2.3784 
 C                    -4.8178    2.9557   -2.3085 
 C                    -4.3555    3.3544   -3.3531 
 C                    -3.9093    3.9211   -4.5649 
 C                    -4.4569    3.5419   -5.7746 
 C                    -4.1138    4.2075   -6.9571 
 C                    -3.2452    5.2704   -6.9508 
 C                    -2.6537    5.6842   -5.744 
 C                    -1.7802    6.7908   -5.6435 
 C                    -1.2403    7.1289   -4.4358 
 N                    -1.4774    6.4034   -3.3131 
 C                    -2.3012    5.3729   -3.3651 
 C                    -2.9556    4.9824   -4.5419 
 H                    -5.1787    2.7404   -5.8002 
 H                    -4.5706    3.8942   -7.8835 
 H                    -3.0149    5.8031   -7.86 
 H                    -1.5522    7.3689   -6.5248 
 H                    -0.5919    7.9912   -4.3173 
 H                    -2.4642    4.8101   -2.4482 
 C                    -5.4388    2.5607   -1.1026 
 C                    -6.3947    3.4326   -0.5496 
 C                    -7.0887    3.1021    0.5931 
 C                    -6.81      1.8812    1.1927 
 N                    -7.3627    1.3135    2.3104 
 C                    -6.7965    0.0875    2.5212 
 C                    -7.0622   -0.8492    3.514 
 C                    -6.3486   -2.026     3.4981 
 C                    -5.371    -2.273     2.515 
 C                    -5.0996   -1.3327    1.5205 
 C                    -5.8198   -0.1509    1.5198 
 C                    -5.8327    1.004     0.6601 
 C                    -5.1459    1.3432   -0.4956 
 H                    -6.5965    4.3682   -1.0483 
 H                    -7.8364    3.7655    0.9984 
 H                    -8.1085    1.7101    2.858 
 H                    -7.81     -0.6645    4.27 
 H                    -6.5338   -2.7778    4.2503 
 H                    -4.3555   -1.5335    0.7667 
 H                    -4.4136    0.6789   -0.9253 
 C                    -4.6705   -3.4917    2.5404 
 C                    -4.0761   -4.5453    2.57 
 C                    -3.3742   -5.7615    2.5882 
 C                    -3.8313   -6.8724    3.3138 
 C                    -3.0966   -8.043     3.2861 
 C                    -1.922    -8.092     2.5491 
 N                    -1.4862   -7.0313    1.8652 
 C                    -2.1806   -5.8964    1.8721 
 H                    -4.747    -6.8036    3.8801 
 H                    -3.4268   -8.9127    3.8307 
 H                    -1.3116   -8.9898    2.5009 
 H                    -1.7822   -5.0651    1.2919 
 C                     1.118     2.712    -5.4089 
 C                     2.0313    3.401    -5.0151 
 C                     3.0673    4.2941   -4.6722 
 C                     4.3368    4.1486   -5.1959 
 C                     5.3186    5.1217   -4.9771 
 C                     5.0457    6.2616   -4.2629 
 C                     3.7706    6.4464   -3.6996 
 C                     3.3941    7.6072   -2.9865 
 C                     2.1386    7.7096   -2.4599 
 N                     1.2341    6.7009   -2.5528 
 C                     1.5432    5.6104   -3.2302 
 C                     2.7804    5.4364   -3.8663 
 H                     4.5618    3.287    -5.805 
 H                     6.2969    4.9828   -5.4114 
 H                     5.7944    7.0273   -4.134 
 H                     4.1022    8.4121   -2.8706 
 H                     1.8064    8.6013   -1.9377 
 H                     0.7976    4.82     -3.282 
 C                     0.0467    1.9759   -5.9627 
 C                    -0.6653    2.5698   -7.0212 
 C                    -1.6906    1.9053   -7.6566 
 C                    -2.0091    0.6281   -7.2148 
 N                    -2.961    -0.2416   -7.6782 
 C                    -2.9055   -1.3996   -6.9541 
 C                    -3.6594   -2.5606   -7.0856 
 C                    -3.396    -3.6017   -6.2247 
 C                    -2.4023   -3.494    -5.2327 
 C                    -1.6487   -2.3279   -5.0951 
 C                    -1.8966   -1.2793   -5.9635 
 C                    -1.3155    0.0267   -6.1353 
 C                    -0.2798    0.7021   -5.5076 
 H                    -0.3824    3.5585   -7.3484 
 H                    -2.217     2.3583   -8.4819 
 H                    -3.5674   -0.0776   -8.4648 
 H                    -4.4223   -2.6479   -7.8441 
 H                    -3.9576   -4.5201   -6.3034 
 H                    -0.8844   -2.2571   -4.338 
 H                     0.2706    0.2517   -4.6975 
 C                    -2.1652   -4.5882   -4.3822 
 C                    -1.9628   -5.5375   -3.6597 
 C                    -1.7048   -6.6314   -2.8176 
 C                    -2.126    -7.931    -3.1387 
 C                    -1.8262   -8.9681   -2.2753 
 C                    -1.1208   -8.7014   -1.1107 
 N                    -0.7292   -7.4624   -0.8035 
 C                    -1.0044   -6.4493   -1.6208 
 H                    -2.6723   -8.1076   -4.052 
 H                    -2.1337   -9.9766   -2.4994 
 H                    -0.862    -9.4859   -0.4044 
 H                    -0.6588   -5.4604   -1.3226 
 
 ITRead=  0  0  0  0  0  0  0  0  0  0  0  0  0  0  0  0  0  0  0  0
 ITRead=  0  0  0  0  0  0  0  0  0  0  0  0  0  0  0  0  0  0  0  0
 ITRead=  0  0  0  0  0  0  0  0  0  0  0  0  0  0  0  0  0  0  0  0
 ITRead=  0  0  0  0  0  0  0  0  0  0  0  0  0  0  0  0  0  0  0  0
 ITRead=  0  0  0  0  0  0  0  0  0  0  0  0  0  0  0  0  0  0  0  0
 ITRead=  0  0  0  0  0  0  0  0  0  0  0  0  0  0  0  0  0  0  0  0
 ITRead=  0  0  0  0  0  0  0  0  0  0  0  0  0  0  0  0  0  0  0  0
 ITRead=  0  0  0  0  0  0  0  0  0  0  0  0  0  0  0  0  0  0  0  0
 ITRead=  0  0  0  0  0  0  0  0  0  0  0  0  0  0  0  0  0  0  0  0
 ITRead=  0  0  0  0  0  0  0  0  0  0  0  0  0  0  0  0  0  0  0  0
 ITRead=  0  0
 MicOpt= -1 -1 -1 -1 -1 -1 -1 -1 -1 -1 -1 -1 -1 -1 -1 -1 -1 -1 -1 -1
 MicOpt= -1 -1 -1 -1 -1 -1 -1 -1 -1 -1 -1 -1 -1 -1 -1 -1 -1 -1 -1 -1
 MicOpt= -1 -1 -1 -1 -1 -1 -1 -1 -1 -1 -1 -1 -1 -1 -1 -1 -1 -1 -1 -1
 MicOpt= -1 -1 -1 -1 -1 -1 -1 -1 -1 -1 -1 -1 -1 -1 -1 -1 -1 -1 -1 -1
 MicOpt= -1 -1 -1 -1 -1 -1 -1 -1 -1 -1 -1 -1 -1 -1 -1 -1 -1 -1 -1 -1
 MicOpt= -1 -1 -1 -1 -1 -1 -1 -1 -1 -1 -1 -1 -1 -1 -1 -1 -1 -1 -1 -1
 MicOpt= -1 -1 -1 -1 -1 -1 -1 -1 -1 -1 -1 -1 -1 -1 -1 -1 -1 -1 -1 -1
 MicOpt= -1 -1 -1 -1 -1 -1 -1 -1 -1 -1 -1 -1 -1 -1 -1 -1 -1 -1 -1 -1
 MicOpt= -1 -1 -1 -1 -1 -1 -1 -1 -1 -1 -1 -1 -1 -1 -1 -1 -1 -1 -1 -1
 MicOpt= -1 -1 -1 -1 -1 -1 -1 -1 -1 -1 -1 -1 -1 -1 -1 -1 -1 -1 -1 -1
 MicOpt= -1 -1
 NAtoms=    202 NQM=      202 NQMF=       0 NMMI=      0 NMMIF=      0
                NMic=       0 NMicF=      0.
                    Isotopes and Nuclear Properties:
 (Nuclear quadrupole moments (NQMom) in fm**2, nuclear magnetic moments (NMagM)
  in nuclear magnetons)

  Atom         1           2           3           4           5           6           7           8           9          10
 IAtWgt=         106         106          12          12          12          12          12          12          12          12
 AtmWgt= 105.9032000 105.9032000  12.0000000  12.0000000  12.0000000  12.0000000  12.0000000  12.0000000  12.0000000  12.0000000
 NucSpn=           0           0           0           0           0           0           0           0           0           0
 AtZEff=  -0.0000000  -0.0000000  -0.0000000  -0.0000000  -0.0000000  -0.0000000  -0.0000000  -0.0000000  -0.0000000  -0.0000000
 NQMom=    0.0000000   0.0000000   0.0000000   0.0000000   0.0000000   0.0000000   0.0000000   0.0000000   0.0000000   0.0000000
 NMagM=    0.0000000   0.0000000   0.0000000   0.0000000   0.0000000   0.0000000   0.0000000   0.0000000   0.0000000   0.0000000
 AtZNuc=  46.0000000  46.0000000   6.0000000   6.0000000   6.0000000   6.0000000   6.0000000   6.0000000   6.0000000   6.0000000

  Atom        11          12          13          14          15          16          17          18          19          20
 IAtWgt=          12          14          12          12           1           1           1           1           1           1
 AtmWgt=  12.0000000  14.0030740  12.0000000  12.0000000   1.0078250   1.0078250   1.0078250   1.0078250   1.0078250   1.0078250
 NucSpn=           0           2           0           0           1           1           1           1           1           1
 AtZEff=  -0.0000000  -0.0000000  -0.0000000  -0.0000000  -0.0000000  -0.0000000  -0.0000000  -0.0000000  -0.0000000  -0.0000000
 NQMom=    0.0000000   2.0440000   0.0000000   0.0000000   0.0000000   0.0000000   0.0000000   0.0000000   0.0000000   0.0000000
 NMagM=    0.0000000   0.4037610   0.0000000   0.0000000   2.7928460   2.7928460   2.7928460   2.7928460   2.7928460   2.7928460
 AtZNuc=   6.0000000   7.0000000   6.0000000   6.0000000   1.0000000   1.0000000   1.0000000   1.0000000   1.0000000   1.0000000

  Atom        21          22          23          24          25          26          27          28          29          30
 IAtWgt=          12          12          12          12          14          12          12          12          12          12
 AtmWgt=  12.0000000  12.0000000  12.0000000  12.0000000  14.0030740  12.0000000  12.0000000  12.0000000  12.0000000  12.0000000
 NucSpn=           0           0           0           0           2           0           0           0           0           0
 AtZEff=  -0.0000000  -0.0000000  -0.0000000  -0.0000000  -0.0000000  -0.0000000  -0.0000000  -0.0000000  -0.0000000  -0.0000000
 NQMom=    0.0000000   0.0000000   0.0000000   0.0000000   2.0440000   0.0000000   0.0000000   0.0000000   0.0000000   0.0000000
 NMagM=    0.0000000   0.0000000   0.0000000   0.0000000   0.4037610   0.0000000   0.0000000   0.0000000   0.0000000   0.0000000
 AtZNuc=   6.0000000   6.0000000   6.0000000   6.0000000   7.0000000   6.0000000   6.0000000   6.0000000   6.0000000   6.0000000

  Atom        31          32          33          34          35          36          37          38          39          40
 IAtWgt=          12          12          12           1           1           1           1           1           1           1
 AtmWgt=  12.0000000  12.0000000  12.0000000   1.0078250   1.0078250   1.0078250   1.0078250   1.0078250   1.0078250   1.0078250
 NucSpn=           0           0           0           1           1           1           1           1           1           1
 AtZEff=  -0.0000000  -0.0000000  -0.0000000  -0.0000000  -0.0000000  -0.0000000  -0.0000000  -0.0000000  -0.0000000  -0.0000000
 NQMom=    0.0000000   0.0000000   0.0000000   0.0000000   0.0000000   0.0000000   0.0000000   0.0000000   0.0000000   0.0000000
 NMagM=    0.0000000   0.0000000   0.0000000   2.7928460   2.7928460   2.7928460   2.7928460   2.7928460   2.7928460   2.7928460
 AtZNuc=   6.0000000   6.0000000   6.0000000   1.0000000   1.0000000   1.0000000   1.0000000   1.0000000   1.0000000   1.0000000

  Atom        41          42          43          44          45          46          47          48          49          50
 IAtWgt=          12          12          12          12          12          12          14          12           1           1
 AtmWgt=  12.0000000  12.0000000  12.0000000  12.0000000  12.0000000  12.0000000  14.0030740  12.0000000   1.0078250   1.0078250
 NucSpn=           0           0           0           0           0           0           2           0           1           1
 AtZEff=  -0.0000000  -0.0000000  -0.0000000  -0.0000000  -0.0000000  -0.0000000  -0.0000000  -0.0000000  -0.0000000  -0.0000000
 NQMom=    0.0000000   0.0000000   0.0000000   0.0000000   0.0000000   0.0000000   2.0440000   0.0000000   0.0000000   0.0000000
 NMagM=    0.0000000   0.0000000   0.0000000   0.0000000   0.0000000   0.0000000   0.4037610   0.0000000   2.7928460   2.7928460
 AtZNuc=   6.0000000   6.0000000   6.0000000   6.0000000   6.0000000   6.0000000   7.0000000   6.0000000   1.0000000   1.0000000

  Atom        51          52          53          54          55          56          57          58          59          60
 IAtWgt=           1           1          12          12          12          12          12          12          12          12
 AtmWgt=   1.0078250   1.0078250  12.0000000  12.0000000  12.0000000  12.0000000  12.0000000  12.0000000  12.0000000  12.0000000
 NucSpn=           1           1           0           0           0           0           0           0           0           0
 AtZEff=  -0.0000000  -0.0000000  -0.0000000  -0.0000000  -0.0000000  -0.0000000  -0.0000000  -0.0000000  -0.0000000  -0.0000000
 NQMom=    0.0000000   0.0000000   0.0000000   0.0000000   0.0000000   0.0000000   0.0000000   0.0000000   0.0000000   0.0000000
 NMagM=    2.7928460   2.7928460   0.0000000   0.0000000   0.0000000   0.0000000   0.0000000   0.0000000   0.0000000   0.0000000
 AtZNuc=   1.0000000   1.0000000   6.0000000   6.0000000   6.0000000   6.0000000   6.0000000   6.0000000   6.0000000   6.0000000

  Atom        61          62          63          64          65          66          67          68          69          70
 IAtWgt=          12          14          12          12           1           1           1           1           1           1
 AtmWgt=  12.0000000  14.0030740  12.0000000  12.0000000   1.0078250   1.0078250   1.0078250   1.0078250   1.0078250   1.0078250
 NucSpn=           0           2           0           0           1           1           1           1           1           1
 AtZEff=  -0.0000000  -0.0000000  -0.0000000  -0.0000000  -0.0000000  -0.0000000  -0.0000000  -0.0000000  -0.0000000  -0.0000000
 NQMom=    0.0000000   2.0440000   0.0000000   0.0000000   0.0000000   0.0000000   0.0000000   0.0000000   0.0000000   0.0000000
 NMagM=    0.0000000   0.4037610   0.0000000   0.0000000   2.7928460   2.7928460   2.7928460   2.7928460   2.7928460   2.7928460
 AtZNuc=   6.0000000   7.0000000   6.0000000   6.0000000   1.0000000   1.0000000   1.0000000   1.0000000   1.0000000   1.0000000

  Atom        71          72          73          74          75          76          77          78          79          80
 IAtWgt=          12          12          12          12          14          12          12          12          12          12
 AtmWgt=  12.0000000  12.0000000  12.0000000  12.0000000  14.0030740  12.0000000  12.0000000  12.0000000  12.0000000  12.0000000
 NucSpn=           0           0           0           0           2           0           0           0           0           0
 AtZEff=  -0.0000000  -0.0000000  -0.0000000  -0.0000000  -0.0000000  -0.0000000  -0.0000000  -0.0000000  -0.0000000  -0.0000000
 NQMom=    0.0000000   0.0000000   0.0000000   0.0000000   2.0440000   0.0000000   0.0000000   0.0000000   0.0000000   0.0000000
 NMagM=    0.0000000   0.0000000   0.0000000   0.0000000   0.4037610   0.0000000   0.0000000   0.0000000   0.0000000   0.0000000
 AtZNuc=   6.0000000   6.0000000   6.0000000   6.0000000   7.0000000   6.0000000   6.0000000   6.0000000   6.0000000   6.0000000

  Atom        81          82          83          84          85          86          87          88          89          90
 IAtWgt=          12          12          12           1           1           1           1           1           1           1
 AtmWgt=  12.0000000  12.0000000  12.0000000   1.0078250   1.0078250   1.0078250   1.0078250   1.0078250   1.0078250   1.0078250
 NucSpn=           0           0           0           1           1           1           1           1           1           1
 AtZEff=  -0.0000000  -0.0000000  -0.0000000  -0.0000000  -0.0000000  -0.0000000  -0.0000000  -0.0000000  -0.0000000  -0.0000000
 NQMom=    0.0000000   0.0000000   0.0000000   0.0000000   0.0000000   0.0000000   0.0000000   0.0000000   0.0000000   0.0000000
 NMagM=    0.0000000   0.0000000   0.0000000   2.7928460   2.7928460   2.7928460   2.7928460   2.7928460   2.7928460   2.7928460
 AtZNuc=   6.0000000   6.0000000   6.0000000   1.0000000   1.0000000   1.0000000   1.0000000   1.0000000   1.0000000   1.0000000

  Atom        91          92          93          94          95          96          97          98          99         100
 IAtWgt=          12          12          12          12          12          12          14          12           1           1
 AtmWgt=  12.0000000  12.0000000  12.0000000  12.0000000  12.0000000  12.0000000  14.0030740  12.0000000   1.0078250   1.0078250
 NucSpn=           0           0           0           0           0           0           2           0           1           1
 AtZEff=  -0.0000000  -0.0000000  -0.0000000  -0.0000000  -0.0000000  -0.0000000  -0.0000000  -0.0000000  -0.0000000  -0.0000000
 NQMom=    0.0000000   0.0000000   0.0000000   0.0000000   0.0000000   0.0000000   2.0440000   0.0000000   0.0000000   0.0000000
 NMagM=    0.0000000   0.0000000   0.0000000   0.0000000   0.0000000   0.0000000   0.4037610   0.0000000   2.7928460   2.7928460
 AtZNuc=   6.0000000   6.0000000   6.0000000   6.0000000   6.0000000   6.0000000   7.0000000   6.0000000   1.0000000   1.0000000

  Atom       101         102         103         104         105         106         107         108         109         110
 IAtWgt=           1           1          12          12          12          12          12          12          12          12
 AtmWgt=   1.0078250   1.0078250  12.0000000  12.0000000  12.0000000  12.0000000  12.0000000  12.0000000  12.0000000  12.0000000
 NucSpn=           1           1           0           0           0           0           0           0           0           0
 AtZEff=  -0.0000000  -0.0000000  -0.0000000  -0.0000000  -0.0000000  -0.0000000  -0.0000000  -0.0000000  -0.0000000  -0.0000000
 NQMom=    0.0000000   0.0000000   0.0000000   0.0000000   0.0000000   0.0000000   0.0000000   0.0000000   0.0000000   0.0000000
 NMagM=    2.7928460   2.7928460   0.0000000   0.0000000   0.0000000   0.0000000   0.0000000   0.0000000   0.0000000   0.0000000
 AtZNuc=   1.0000000   1.0000000   6.0000000   6.0000000   6.0000000   6.0000000   6.0000000   6.0000000   6.0000000   6.0000000

  Atom       111         112         113         114         115         116         117         118         119         120
 IAtWgt=          12          14          12          12           1           1           1           1           1           1
 AtmWgt=  12.0000000  14.0030740  12.0000000  12.0000000   1.0078250   1.0078250   1.0078250   1.0078250   1.0078250   1.0078250
 NucSpn=           0           2           0           0           1           1           1           1           1           1
 AtZEff=  -0.0000000  -0.0000000  -0.0000000  -0.0000000  -0.0000000  -0.0000000  -0.0000000  -0.0000000  -0.0000000  -0.0000000
 NQMom=    0.0000000   2.0440000   0.0000000   0.0000000   0.0000000   0.0000000   0.0000000   0.0000000   0.0000000   0.0000000
 NMagM=    0.0000000   0.4037610   0.0000000   0.0000000   2.7928460   2.7928460   2.7928460   2.7928460   2.7928460   2.7928460
 AtZNuc=   6.0000000   7.0000000   6.0000000   6.0000000   1.0000000   1.0000000   1.0000000   1.0000000   1.0000000   1.0000000

  Atom       121         122         123         124         125         126         127         128         129         130
 IAtWgt=          12          12          12          12          14          12          12          12          12          12
 AtmWgt=  12.0000000  12.0000000  12.0000000  12.0000000  14.0030740  12.0000000  12.0000000  12.0000000  12.0000000  12.0000000
 NucSpn=           0           0           0           0           2           0           0           0           0           0
 AtZEff=  -0.0000000  -0.0000000  -0.0000000  -0.0000000  -0.0000000  -0.0000000  -0.0000000  -0.0000000  -0.0000000  -0.0000000
 NQMom=    0.0000000   0.0000000   0.0000000   0.0000000   2.0440000   0.0000000   0.0000000   0.0000000   0.0000000   0.0000000
 NMagM=    0.0000000   0.0000000   0.0000000   0.0000000   0.4037610   0.0000000   0.0000000   0.0000000   0.0000000   0.0000000
 AtZNuc=   6.0000000   6.0000000   6.0000000   6.0000000   7.0000000   6.0000000   6.0000000   6.0000000   6.0000000   6.0000000

  Atom       131         132         133         134         135         136         137         138         139         140
 IAtWgt=          12          12          12           1           1           1           1           1           1           1
 AtmWgt=  12.0000000  12.0000000  12.0000000   1.0078250   1.0078250   1.0078250   1.0078250   1.0078250   1.0078250   1.0078250
 NucSpn=           0           0           0           1           1           1           1           1           1           1
 AtZEff=  -0.0000000  -0.0000000  -0.0000000  -0.0000000  -0.0000000  -0.0000000  -0.0000000  -0.0000000  -0.0000000  -0.0000000
 NQMom=    0.0000000   0.0000000   0.0000000   0.0000000   0.0000000   0.0000000   0.0000000   0.0000000   0.0000000   0.0000000
 NMagM=    0.0000000   0.0000000   0.0000000   2.7928460   2.7928460   2.7928460   2.7928460   2.7928460   2.7928460   2.7928460
 AtZNuc=   6.0000000   6.0000000   6.0000000   1.0000000   1.0000000   1.0000000   1.0000000   1.0000000   1.0000000   1.0000000

  Atom       141         142         143         144         145         146         147         148         149         150
 IAtWgt=          12          12          12          12          12          12          14          12           1           1
 AtmWgt=  12.0000000  12.0000000  12.0000000  12.0000000  12.0000000  12.0000000  14.0030740  12.0000000   1.0078250   1.0078250
 NucSpn=           0           0           0           0           0           0           2           0           1           1
 AtZEff=  -0.0000000  -0.0000000  -0.0000000  -0.0000000  -0.0000000  -0.0000000  -0.0000000  -0.0000000  -0.0000000  -0.0000000
 NQMom=    0.0000000   0.0000000   0.0000000   0.0000000   0.0000000   0.0000000   2.0440000   0.0000000   0.0000000   0.0000000
 NMagM=    0.0000000   0.0000000   0.0000000   0.0000000   0.0000000   0.0000000   0.4037610   0.0000000   2.7928460   2.7928460
 AtZNuc=   6.0000000   6.0000000   6.0000000   6.0000000   6.0000000   6.0000000   7.0000000   6.0000000   1.0000000   1.0000000

  Atom       151         152         153         154         155         156         157         158         159         160
 IAtWgt=           1           1          12          12          12          12          12          12          12          12
 AtmWgt=   1.0078250   1.0078250  12.0000000  12.0000000  12.0000000  12.0000000  12.0000000  12.0000000  12.0000000  12.0000000
 NucSpn=           1           1           0           0           0           0           0           0           0           0
 AtZEff=  -0.0000000  -0.0000000  -0.0000000  -0.0000000  -0.0000000  -0.0000000  -0.0000000  -0.0000000  -0.0000000  -0.0000000
 NQMom=    0.0000000   0.0000000   0.0000000   0.0000000   0.0000000   0.0000000   0.0000000   0.0000000   0.0000000   0.0000000
 NMagM=    2.7928460   2.7928460   0.0000000   0.0000000   0.0000000   0.0000000   0.0000000   0.0000000   0.0000000   0.0000000
 AtZNuc=   1.0000000   1.0000000   6.0000000   6.0000000   6.0000000   6.0000000   6.0000000   6.0000000   6.0000000   6.0000000

  Atom       161         162         163         164         165         166         167         168         169         170
 IAtWgt=          12          14          12          12           1           1           1           1           1           1
 AtmWgt=  12.0000000  14.0030740  12.0000000  12.0000000   1.0078250   1.0078250   1.0078250   1.0078250   1.0078250   1.0078250
 NucSpn=           0           2           0           0           1           1           1           1           1           1
 AtZEff=  -0.0000000  -0.0000000  -0.0000000  -0.0000000  -0.0000000  -0.0000000  -0.0000000  -0.0000000  -0.0000000  -0.0000000
 NQMom=    0.0000000   2.0440000   0.0000000   0.0000000   0.0000000   0.0000000   0.0000000   0.0000000   0.0000000   0.0000000
 NMagM=    0.0000000   0.4037610   0.0000000   0.0000000   2.7928460   2.7928460   2.7928460   2.7928460   2.7928460   2.7928460
 AtZNuc=   6.0000000   7.0000000   6.0000000   6.0000000   1.0000000   1.0000000   1.0000000   1.0000000   1.0000000   1.0000000

  Atom       171         172         173         174         175         176         177         178         179         180
 IAtWgt=          12          12          12          12          14          12          12          12          12          12
 AtmWgt=  12.0000000  12.0000000  12.0000000  12.0000000  14.0030740  12.0000000  12.0000000  12.0000000  12.0000000  12.0000000
 NucSpn=           0           0           0           0           2           0           0           0           0           0
 AtZEff=  -0.0000000  -0.0000000  -0.0000000  -0.0000000  -0.0000000  -0.0000000  -0.0000000  -0.0000000  -0.0000000  -0.0000000
 NQMom=    0.0000000   0.0000000   0.0000000   0.0000000   2.0440000   0.0000000   0.0000000   0.0000000   0.0000000   0.0000000
 NMagM=    0.0000000   0.0000000   0.0000000   0.0000000   0.4037610   0.0000000   0.0000000   0.0000000   0.0000000   0.0000000
 AtZNuc=   6.0000000   6.0000000   6.0000000   6.0000000   7.0000000   6.0000000   6.0000000   6.0000000   6.0000000   6.0000000

  Atom       181         182         183         184         185         186         187         188         189         190
 IAtWgt=          12          12          12           1           1           1           1           1           1           1
 AtmWgt=  12.0000000  12.0000000  12.0000000   1.0078250   1.0078250   1.0078250   1.0078250   1.0078250   1.0078250   1.0078250
 NucSpn=           0           0           0           1           1           1           1           1           1           1
 AtZEff=  -0.0000000  -0.0000000  -0.0000000  -0.0000000  -0.0000000  -0.0000000  -0.0000000  -0.0000000  -0.0000000  -0.0000000
 NQMom=    0.0000000   0.0000000   0.0000000   0.0000000   0.0000000   0.0000000   0.0000000   0.0000000   0.0000000   0.0000000
 NMagM=    0.0000000   0.0000000   0.0000000   2.7928460   2.7928460   2.7928460   2.7928460   2.7928460   2.7928460   2.7928460
 AtZNuc=   6.0000000   6.0000000   6.0000000   1.0000000   1.0000000   1.0000000   1.0000000   1.0000000   1.0000000   1.0000000

  Atom       191         192         193         194         195         196         197         198         199         200
 IAtWgt=          12          12          12          12          12          12          14          12           1           1
 AtmWgt=  12.0000000  12.0000000  12.0000000  12.0000000  12.0000000  12.0000000  14.0030740  12.0000000   1.0078250   1.0078250
 NucSpn=           0           0           0           0           0           0           2           0           1           1
 AtZEff=  -0.0000000  -0.0000000  -0.0000000  -0.0000000  -0.0000000  -0.0000000  -0.0000000  -0.0000000  -0.0000000  -0.0000000
 NQMom=    0.0000000   0.0000000   0.0000000   0.0000000   0.0000000   0.0000000   2.0440000   0.0000000   0.0000000   0.0000000
 NMagM=    0.0000000   0.0000000   0.0000000   0.0000000   0.0000000   0.0000000   0.4037610   0.0000000   2.7928460   2.7928460
 AtZNuc=   6.0000000   6.0000000   6.0000000   6.0000000   6.0000000   6.0000000   7.0000000   6.0000000   1.0000000   1.0000000

  Atom       201         202
 IAtWgt=           1           1
 AtmWgt=   1.0078250   1.0078250
 NucSpn=           1           1
 AtZEff=  -0.0000000  -0.0000000
 NQMom=    0.0000000   0.0000000
 NMagM=    2.7928460   2.7928460
 AtZNuc=   1.0000000   1.0000000
 Leave Link  101 at Fri Feb 26 10:27:02 2021, MaxMem=  7864320000 cpu:               6.9 elap:               0.2
 (Enter /apps/gaussian/g16-c01-avx/g16/l202.exe)
 Stoichiometry    C120H68N12Pd2(4+)
 Framework group  C1[X(C120H68N12Pd2)]
 Deg. of freedom   600
 Full point group                 C1      NOp   1
 Largest Abelian subgroup         C1      NOp   1
 Largest concise Abelian subgroup C1      NOp   1
                         Standard orientation:                         
 ---------------------------------------------------------------------
 Center     Atomic      Atomic             Coordinates (Angstroms)
 Number     Number       Type             X           Y           Z
 ---------------------------------------------------------------------
      1         46           0       -6.190585   -0.063538    0.023188
      2         46           0        7.971232   -0.080271   -0.098538
      3          6           0       -2.958763   -0.907177   -4.761472
      4          6           0       -3.558423    0.143808   -4.760363
      5          6           0       -4.370058    1.295476   -4.831072
      6          6           0       -4.366232    2.099526   -5.954125
      7          6           0       -5.288985    3.143440   -6.093085
      8          6           0       -6.241455    3.383879   -5.134216
      9          6           0       -6.271528    2.602270   -3.965050
     10          6           0       -7.235974    2.764119   -2.944684
     11          6           0       -7.201871    1.965347   -1.837538
     12          7           0       -6.230492    1.035549   -1.649980
     13          6           0       -5.316643    0.850947   -2.585301
     14          6           0       -5.303253    1.572623   -3.787326
     15          1           0       -3.660016    1.901276   -6.745646
     16          1           0       -5.261647    3.748325   -6.986681
     17          1           0       -6.975456    4.163190   -5.266059
     18          1           0       -8.003336    3.513784   -3.054024
     19          1           0       -7.948633    2.040591   -1.053434
     20          1           0       -4.545994    0.105760   -2.398608
     21          6           0       -2.358923   -2.184452   -4.837499
     22          6           0       -3.139756   -3.225793   -5.372480
     23          6           0       -2.629837   -4.495020   -5.530095
     24          6           0       -1.316602   -4.719876   -5.139685
     25          7           0       -0.575135   -5.869962   -5.205834
     26          6           0        0.682658   -5.623772   -4.731515
     27          6           0        1.772047   -6.482380   -4.635235
     28          6           0        2.947300   -5.977384   -4.128047
     29          6           0        3.044258   -4.636381   -3.707968
     30          6           0        1.949668   -3.775740   -3.795284
     31          6           0        0.765542   -4.269406   -4.315520
     32          6           0       -0.523704   -3.685763   -4.582561
     33          6           0       -1.047347   -2.410289   -4.431354
     34          1           0       -4.152234   -3.011753   -5.678859
     35          1           0       -3.227777   -5.283328   -5.959601
     36          1           0       -0.887124   -6.743202   -5.597509
     37          1           0        1.702607   -7.510329   -4.956674
     38          1           0        3.815648   -6.613470   -4.046896
     39          1           0        2.034949   -2.748814   -3.478146
     40          1           0       -0.453255   -1.607622   -4.025198
     41          6           0        4.277000   -4.174304   -3.214113
     42          6           0        5.353903   -3.802592   -2.805957
     43          6           0        6.608539   -3.366909   -2.349429
     44          6           0        7.780632   -4.089077   -2.623657
     45          6           0        8.991855   -3.607406   -2.164101
     46          6           0        9.021812   -2.425084   -1.438639
     47          7           0        7.904122   -1.744980   -1.171558
     48          6           0        6.727307   -2.187951   -1.606803
     49          1           0        7.725372   -5.005074   -3.190789
     50          1           0        9.907575   -4.139674   -2.364422
     51          1           0        9.951368   -2.008511   -1.058772
     52          1           0        5.849658   -1.591067   -1.363099
     53          6           0       -2.834591    4.870989   -0.512148
     54          6           0       -3.469978    4.736130    0.508947
     55          6           0       -4.288439    4.706540    1.657213
     56          6           0       -4.258468    5.754572    2.557209
     57          6           0       -5.159485    5.812753    3.625923
     58          6           0       -6.117464    4.845483    3.799842
     59          6           0       -6.182958    3.757446    2.911304
     60          6           0       -7.169060    2.748710    2.996859
     61          6           0       -7.171726    1.718481    2.101638
     62          7           0       -6.219786    1.598000    1.140378
     63          6           0       -5.294658    2.531646    1.016036
     64          6           0       -5.239183    3.660015    1.848078
     65          1           0       -3.544733    6.550904    2.413974
     66          1           0       -5.113679    6.651019    4.304433
     67          1           0       -6.832811    4.912215    4.604375
     68          1           0       -7.921796    2.806535    3.766779
     69          1           0       -7.934769    0.945668    2.117627
     70          1           0       -4.551303    2.401900    0.232580
     71          6           0       -2.201547    5.115767   -1.751741
     72          6           0       -2.919376    5.884357   -2.687397
     73          6           0       -2.382471    6.203765   -3.914476
     74          6           0       -1.103380    5.745657   -4.201258
     75          7           0       -0.347834    5.932728   -5.328604
     76          6           0        0.867368    5.331553   -5.162068
     77          6           0        1.953769    5.287242   -6.028825
     78          6           0        3.086193    4.628536   -5.608699
     79          6           0        3.143776    4.009998   -4.344290
     80          6           0        2.049450    4.040786   -3.479039
     81          6           0        0.907171    4.708239   -3.887206
     82          6           0       -0.366508    4.973776   -3.268647
     83          6           0       -0.920619    4.653408   -2.037417
     84          1           0       -3.906640    6.233266   -2.425419
     85          1           0       -2.935332    6.798725   -4.624958
     86          1           0       -0.627218    6.466993   -6.134677
     87          1           0        1.914881    5.763469   -6.996626
     88          1           0        3.951980    4.582703   -6.251726
     89          1           0        2.104315    3.568216   -2.511557
     90          1           0       -0.372266    4.073722   -1.312497
     91          6           0        4.342564    3.383609   -3.960880
     92          6           0        5.398789    2.876295   -3.658166
     93          6           0        6.633761    2.318704   -3.290016
     94          6           0        7.798557    2.556773   -4.036602
     95          6           0        8.994432    2.008721   -3.612872
     96          6           0        9.017663    1.236577   -2.460243
     97          7           0        7.906369    1.003047   -1.757830
     98          6           0        6.743299    1.517908   -2.148865
     99          1           0        7.750099    3.166148   -4.925523
    100          1           0        9.904202    2.178837   -4.165378
    101          1           0        9.936110    0.791659   -2.085830
    102          1           0        5.869334    1.294323   -1.539030
    103          6           0       -2.691600    0.818555    4.600026
    104          6           0       -3.243192   -0.258134    4.618977
    105          6           0       -3.989705   -1.451248    4.707856
    106          6           0       -3.850717   -2.301561    5.787061
    107          6           0       -4.694198   -3.407770    5.941622
    108          6           0       -5.699099   -3.669192    5.043794
    109          6           0       -5.870620   -2.837420    3.922988
    110          6           0       -6.902016   -3.013086    2.972710
    111          6           0       -7.001264   -2.166323    1.906180
    112          7           0       -6.104325   -1.169891    1.692532
    113          6           0       -5.137146   -0.965114    2.567696
    114          6           0       -4.986248   -1.738149    3.727539
    115          1           0       -3.099616   -2.091352    6.532521
    116          1           0       -4.566939   -4.044426    6.803895
    117          1           0       -6.369766   -4.501286    5.189662
    118          1           0       -7.612636   -3.813751    3.102427
    119          1           0       -7.799497   -2.252987    1.175879
    120          1           0       -4.432451   -0.161776    2.362586
    121          6           0       -2.123048    2.110985    4.647296
    122          6           0       -2.929145    3.156603    5.133768
    123          6           0       -2.438318    4.436497    5.266392
    124          6           0       -1.120713    4.669119    4.895455
    125          7           0       -0.394353    5.829771    4.943463
    126          6           0        0.874261    5.587381    4.496295
    127          6           0        1.955244    6.455919    4.392506
    128          6           0        3.143033    5.952906    3.912432
    129          6           0        3.260974    4.603608    3.526839
    130          6           0        2.176416    3.731388    3.625937
    131          6           0        0.980537    4.223648    4.118779
    132          6           0       -0.304896    3.630604    4.381464
    133          6           0       -0.806859    2.343869    4.260054
    134          1           0       -3.945088    2.938565    5.425471
    135          1           0       -3.055256    5.228116    5.661551
    136          1           0       -0.724114    6.709706    5.304498
    137          1           0        1.869888    7.490975    4.686155
    138          1           0        4.004209    6.597872    3.824674
    139          1           0        2.277824    2.697869    3.336499
    140          1           0       -0.193957    1.538027    3.889688
    141          6           0        4.496524    4.137298    3.044609
    142          6           0        5.565498    3.746082    2.634116
    143          6           0        6.797408    3.273155    2.153623
    144          6           0        7.994849    3.974966    2.361306
    145          6           0        9.175466    3.452577    1.867231
    146          6           0        9.150142    2.252082    1.171943
    147          7           0        8.008323    1.590072    0.970161
    148          6           0        6.861083    2.070715    1.442455
    149          1           0        7.983057    4.907670    2.903394
    150          1           0       10.110130    3.968563    2.016089
    151          1           0       10.053117    1.805907    0.763872
    152          1           0        5.961173    1.486628    1.254256
    153          6           0       -2.715608   -4.702414    0.802142
    154          6           0       -3.283628   -4.695437   -0.266137
    155          6           0       -4.055636   -4.763536   -1.444216
    156          6           0       -3.944811   -5.834826   -2.308575
    157          6           0       -4.819455   -5.975432   -3.392067
    158          6           0       -5.830094   -5.073601   -3.613965
    159          6           0       -5.973000   -3.959917   -2.767428
    160          6           0       -7.009138   -3.007773   -2.899942
    161          6           0       -7.076415   -1.946179   -2.044041
    162          7           0       -6.141449   -1.736468   -1.081708
    163          6           0       -5.171398   -2.616601   -0.914463
    164          6           0       -5.053433   -3.774716   -1.695756
    165          1           0       -3.192025   -6.585769   -2.125874
    166          1           0       -4.713017   -6.831358   -4.040945
    167          1           0       -6.526891   -5.210871   -4.425811
    168          1           0       -7.748610   -3.132226   -3.674794
    169          1           0       -7.878743   -1.216987   -2.096274
    170          1           0       -4.436835   -2.416674   -0.137429
    171          6           0       -2.136129   -4.781375    2.088296
    172          6           0       -2.935974   -5.294507    3.126094
    173          6           0       -2.438934   -5.456880    4.400112
    174          6           0       -1.120559   -5.089823    4.634687
    175          7           0       -0.388543   -5.163312    5.790534
    176          6           0        0.878462   -4.709098    5.552307
    177          6           0        1.963505   -4.623694    6.417736
    178          6           0        3.148654   -4.131949    5.919713
    179          6           0        3.259614   -3.716510    4.578743
    180          6           0        2.170594   -3.795773    3.710188
    181          6           0        0.977480   -4.300343    4.197038
    182          6           0       -0.310549   -4.550713    3.604480
    183          6           0       -0.819168   -4.398503    2.323470
    184          1           0       -3.952325   -5.582740    2.905705
    185          1           0       -3.051353   -5.871748    5.185131
    186          1           0       -0.713594   -5.544937    6.663495
    187          1           0        1.883392   -4.940545    7.446399
    188          1           0        4.012937   -4.058552    6.562112
    189          1           0        2.266763   -3.482973    2.682922
    190          1           0       -0.210834   -4.007814    1.523873
    191          6           0        4.494006   -3.228523    4.115079
    192          6           0        5.562126   -2.817041    3.722720
    193          6           0        6.795729   -2.346142    3.244399
    194          6           0        7.999620   -2.600456    3.919266
    195          6           0        9.182933   -2.123050    3.387505
    196          6           0        9.154070   -1.400856    2.203185
    197          7           0        8.006045   -1.152798    1.568087
    198          6           0        6.855438   -1.604609    2.060079
    199          1           0        7.990545   -3.165755    4.838017
    200          1           0       10.122382   -2.307556    3.882725
    201          1           0       10.059829   -1.008252    1.748497
    202          1           0        5.949822   -1.375788    1.499912
 ---------------------------------------------------------------------
 Rotational constants (GHZ):           0.0104447           0.0065655           0.0064304
 Leave Link  202 at Fri Feb 26 10:27:02 2021, MaxMem=  7864320000 cpu:               2.0 elap:               0.1
 (Enter /apps/gaussian/g16-c01-avx/g16/l301.exe)
 Standard basis: def2SVP (5D, 7F)
 Ernie: Thresh=  0.10000D-02 Tol=  0.10000D-05 Strict=F.
 There are  2392 symmetry adapted cartesian basis functions of A   symmetry.
 There are  2250 symmetry adapted basis functions of A   symmetry.
  2250 basis functions,  3906 primitive gaussians,  2392 cartesian basis functions
   452 alpha electrons      452 beta electrons
       nuclear repulsion energy     28601.0626774490 Hartrees.
 IExCor= 1009 DFT=T Ex+Corr=PBE1PBE ExCW=0 ScaHFX=  0.250000
 ScaDFX=  0.750000  0.750000  1.000000  1.000000 ScalE2=  1.000000  1.000000
 IRadAn=      7 IRanWt=     -1 IRanGd=            0 ICorTp=0 IEmpDi=141
 NAtoms=  202 NActive=  202 NUniq=  202 SFac= 1.00D+00 NAtFMM=   60 NAOKFM=T Big=T
 Integral buffers will be    131072 words long.
 Raffenetti 2 integral format.
 Two-electron integral symmetry is turned on.
 R6Disp:  Grimme-D3(BJ) Dispersion energy=       -0.3354025172 Hartrees.
 Nuclear repulsion after empirical dispersion term =    28600.7272749318 Hartrees.
 ------------------------------------------------------------------------------
 Polarizable Continuum Model (PCM)
 =================================
 Model                : PCM.
 Atomic radii         : UFF (Universal Force Field).
 Polarization charges : Total charges.
 Charge compensation  : None.
 Solution method      : On-the-fly selection.
 Cavity type          : Scaled VdW (van der Waals Surface) (Alpha=1.100).
 Cavity algorithm     : GePol (No added spheres)
                        Default sphere list used, NSphG=  202.
                        Lebedev-Laikov grids with approx.  5.0 points / Ang**2.
                        Smoothing algorithm: York/Karplus (Gamma=1.0000).
                        Polarization charges: spherical gaussians, with
                                              point-specific exponents (IZeta= 3).
                        Self-potential: point-specific (ISelfS= 7).
                        Self-field    : sphere-specific E.n sum rule (ISelfD= 2).
 Solvent              : DiMethylSulfoxide, Eps=  46.826000 Eps(inf)=   2.007889
 ------------------------------------------------------------------------------
 GePol: Number of generator spheres                  =     202
 GePol: Total number of spheres                      =     202
 GePol: Number of exposed spheres                    =     202 (100.00%)
 GePol: Number of points                             =   14535
 GePol: Average weight of points                     =       0.13
 GePol: Minimum weight of points                     =   0.17D-10
 GePol: Maximum weight of points                     =    0.20577
 GePol: Number of points with low weight             =    1203
 GePol: Fraction of low-weight points (<1% of avg)   =       8.28%
 GePol: Cavity surface area                          =   1827.868 Ang**2
 GePol: Cavity volume                                =   2237.258 Ang**3
 Leave Link  301 at Fri Feb 26 10:27:02 2021, MaxMem=  7864320000 cpu:               6.4 elap:               0.2
 (Enter /apps/gaussian/g16-c01-avx/g16/l302.exe)
 NPDir=0 NMtPBC=     1 NCelOv=     1 NCel=       1 NClECP=     1 NCelD=      1
         NCelK=      1 NCelE2=     1 NClLst=     1 CellRange=     0.0.
 One-electron integrals computed using PRISM.
 One-electron integral symmetry used in STVInt
   1 Symmetry operations used in ECPInt.
 ECPInt:  NShTT=  518671 NPrTT= 1927653 LenC2=  257663 LenP2D=  523763.
 LDataN:  DoStor=T MaxTD1= 7 Len=  274
 NBasis=  2250 RedAO= T EigKep=  2.03D-04  NBF=  2250
 NBsUse=  2250 1.00D-06 EigRej= -1.00D+00 NBFU=  2250
 Precomputing XC quadrature grid using
 IXCGrd= 4 IRadAn=           7 IRanWt=          -1 IRanGd=           0 AccXCQ= 0.00D+00.
 Generated NRdTot=       0 NPtTot=           0 NUsed=           0 NTot=          32
 NSgBfM=  1602  1557  1568  1580  1602 MxSgAt=   202 MxSgA2=   202.
 Leave Link  302 at Fri Feb 26 10:27:26 2021, MaxMem=  7864320000 cpu:             755.5 elap:              23.9
 (Enter /apps/gaussian/g16-c01-avx/g16/l303.exe)
 DipDrv:  MaxL=1.
 Leave Link  303 at Fri Feb 26 10:27:27 2021, MaxMem=  7864320000 cpu:              31.0 elap:               1.1
 (Enter /apps/gaussian/g16-c01-avx/g16/l401.exe)
 ExpMin= 3.70D-02 ExpMax= 1.71D+03 ExpMxC= 2.58D+02 IAcc=3 IRadAn=         7 AccDes= 0.00D+00
 Harris functional with IExCor= 1009 and IRadAn=       7 diagonalized for initial guess.
 HarFok:  IExCor= 1009 AccDes= 0.00D+00 IRadAn=         7 IDoV= 1 UseB2=F ITyADJ=14
 ICtDFT=  3500011 ScaDFX=  1.000000  1.000000  1.000000  1.000000
 FoFCou: FMM=F IPFlag=           0 FMFlag=      100000 FMFlg1=        2001
         NFxFlg=           0 DoJE=T BraDBF=F KetDBF=T FulRan=T
         wScrn=  0.000000 ICntrl=       500 IOpCl=  0 I1Cent=   200000004 NGrid=           0
         NMat0=    1 NMatS0=      1 NMatT0=    0 NMatD0=    1 NMtDS0=    0 NMtDT0=    0
 Petite list used in FoFCou.
 Harris En= -5518.37564869608    
 JPrj=0 DoOrth=F DoCkMO=F.
 Leave Link  401 at Fri Feb 26 10:28:05 2021, MaxMem=  7864320000 cpu:            1181.1 elap:              37.4
 (Enter /apps/gaussian/g16-c01-avx/g16/l508.exe)
 Integral symmetry usage will be decided dynamically.
 Tight linear equation convergence will be used.
 RPBE1PBE wavefunction.
 Linear searches until partial convergence.
 Full line searches.
 Fock matrices will be formed incrementally for  20 cycles.
 Inv3:  Mode=1 IEnd=   633798675.
 Iteration    1 A*A^-1 deviation from unit magnitude is 1.44D-14 for  14515.
 Iteration    1 A*A^-1 deviation from orthogonality  is 1.27D-14 for   5408   1769.
 Iteration    1 A^-1*A deviation from unit magnitude is 1.44D-14 for  14515.
 Iteration    1 A^-1*A deviation from orthogonality  is 2.27D-14 for  12639  12631.
 FoFJK:  IHMeth= 1 ICntrl=       0 DoSepK=F KAlg= 0 I1Cent=           0 FoldK=F
 IRaf= 450000000 NMat=       1 IRICut=       1 DoRegI=T DoRafI=F ISym2E= 1 IDoP0=0 IntGTp=1.
 Iteration   1 EE= -5489.30000850045                                    Grad=5.665D+00 Max rot=   48.2660 deg.
 Gradient too large for Newton-Raphson -- use scaled steepest descent instead.
 Alpha Gap=     0.210 HL deriv= 1.53D-02
     ILin= 1 X=0.000D+00 Y=-5.489300008500D+03 DE= 0.00D+00 F= -8.88D+01
 RMSU=  1.31D-03    CP:  9.70D-01
     ILin= 2 X=2.000D-01 Y=-5.502660216003D+03 DE=-1.34D+01 F= -3.42D+01 OKLS=F
 RMSU=  4.92D-04    CP:  9.55D-01  1.40D+00
     ILin= 3 X=3.000D-01 Y=-5.504501711186D+03 DE=-1.52D+01 F= -4.68D+00
     Note:  rotation exceeds Pi/2.
 RMSU=  2.38D-04    CP:  9.41D-01  1.64D+00  2.30D+00
     ILin= 4 X=4.000D-01 Y=-5.504105155452D+03 DE=-1.48D+01 F=  9.80D+00
     An  expanding polynomial of degree  4 produced  0.3281
     Minimum is close to point  3 DX=  2.81D-02 DF= -8.27D-02 DXR=  8.56D-02 DFR=  5.44D-03 which will be used.
 Iteration   2 EE= -5504.50171118627     Delta-E=      -15.201702685816 Grad=3.832D+00 Max rot=   32.2584 deg.
 Gradient too large for Newton-Raphson -- use scaled steepest descent instead.
 Alpha Gap=     0.470 HL deriv= 5.00D-03
     ILin= 1 X=0.000D+00 Y=-5.504501711186D+03 DE= 0.00D+00 F= -5.69D+01
 RMSU=  1.71D-03    CP:  9.33D-01  1.37D+00  1.16D+00  1.93D+00
     ILin= 2 X=3.000D-01 Y=-5.510827570970D+03 DE=-6.33D+00 F=  6.17D+00 OKLS=F
 RMSU=  6.12D-04    CP:  9.27D-01  1.32D+00  1.38D+00  2.52D+00  1.21D+00
     ILin= 3 X=4.000D-01 Y=-5.509784339507D+03 DE=-5.28D+00 F=  1.42D+01
     An  expanding polynomial of degree  3 produced  0.2838
     Minimum is close to point  2 DX= -1.62D-02 DF= -2.07D-02 DXR=  5.71D-02 DFR=  3.27D-03 which will be used.
 Iteration   3 EE= -5510.82757097016     Delta-E=       -6.325859783887 Grad=1.603D+00 Max rot=   16.2186 deg.
 Gradient too large for Newton-Raphson -- use scaled steepest descent instead.
 Alpha Gap=     0.269 HL deriv= 2.76D-03
     ILin= 1 X=0.000D+00 Y=-5.510827570970D+03 DE= 0.00D+00 F= -1.64D+01
 RMSU=  1.06D-03    CP:  9.23D-01  1.39D+00  9.57D-01  1.54D+00  6.04D-01
                    CP: -2.40D-01
     ILin= 2 X=3.000D-01 Y=-5.513184962039D+03 DE=-2.36D+00 F= -1.55D+00 OKLS=F
 RMSU=  5.83D-04    CP:  9.16D-01  1.38D+00  8.74D-01  1.24D+00  4.67D-01
                    CP:  5.62D-01  1.28D+00
     ILin= 3 X=5.000D-01 Y=-5.513135176502D+03 DE=-2.31D+00 F=  1.82D+00
     An  expanding polynomial of degree  3 produced  0.3923
 RMSU=  1.53D-05    CP:  9.20D-01  1.39D+00  9.13D-01  1.40D+00  5.17D-01
                    CP:  5.76D-02  1.19D+00  3.86D-01
 Iteration   4 EE= -5513.24143966331     Delta-E=       -2.413868693155 Grad=1.292D+00 Max rot=    9.2624 deg.
 Gradient too large for Newton-Raphson -- use scaled steepest descent instead.
 Alpha Gap=     0.039 HL deriv= 7.32D-03
     ILin= 1 X=0.000D+00 Y=-5.513241439663D+03 DE= 0.00D+00 F= -6.48D+00
 RMSU=  5.21D-04    CP:  9.17D-01  1.18D+00  4.50D-01  8.97D-01  4.65D-01
                    CP: -2.19D-02  1.06D+00  3.06D-01 -3.00D+00
     ILin= 2 X=3.000D-01 Y=-5.514562402711D+03 DE=-1.32D+00 F= -1.81D+00 OKLS=F
 RMSU=  1.52D-04    CP:  9.16D-01  1.02D+00  2.17D-01  6.31D-01  4.22D-01
                    CP: -5.68D-02  9.54D-01  2.92D-01 -3.00D+00  1.56D+00
     ILin= 3 X=5.000D-01 Y=-5.514502404402D+03 DE=-1.26D+00 F=  2.48D+00
     An  expanding polynomial of degree  3 produced  0.3841
 RMSU=  4.30D-06    CP:  9.17D-01  1.12D+00  3.43D-01  7.78D-01  4.47D-01
                    CP: -3.82D-02  1.02D+00  2.96D-01 -3.00D+00  1.25D+00
                    CP:  3.38D-01
 Iteration   5 EE= -5514.64192773515     Delta-E=       -1.400488071842 Grad=8.039D-01 Max rot=    5.4025 deg.
 Gradient too large for Newton-Raphson -- use scaled steepest descent instead.
 Alpha Gap=     0.119 HL deriv= 2.59D-03
     ILin= 1 X=0.000D+00 Y=-5.514641927735D+03 DE= 0.00D+00 F= -2.16D+00
 RMSU=  3.78D-04    CP:  9.12D-01  1.07D+00  2.92D-01  7.32D-01  4.48D-01
                    CP: -1.06D-01  1.01D+00  3.08D-01 -3.00D+00  1.26D+00
                    CP:  7.02D-01  3.00D+00
     ILin= 2 X=4.000D-01 Y=-5.515104106715D+03 DE=-4.62D-01 F= -2.30D-01 OKLS=F
 RMSU=  1.41D-05    CP:  9.11D-01  1.06D+00  2.86D-01  7.27D-01  4.49D-01
                    CP: -1.16D-01  1.00D+00  3.14D-01 -3.00D+00  1.25D+00
                    CP:  8.43D-01  3.00D+00  1.24D+00
     ILin= 3 X=5.000D-01 Y=-5.515107182806D+03 DE=-4.65D-01 F=  1.61D-01
     Accept linear search using points  2 and  3.
     An  expanding polynomial of degree  3 produced  0.4467
 RMSU=  1.13D-07    CP:  9.11D-01  1.07D+00  2.89D-01  7.30D-01  4.48D-01
                    CP: -1.11D-01  1.00D+00  3.11D-01 -3.00D+00  1.25D+00
                    CP:  7.66D-01  3.00D+00  1.11D+00  4.19D-01
 Iteration   6 EE= -5515.11041846953     Delta-E=       -0.468490734376 Grad=5.051D-01 Max rot=    4.0650 deg.
 Gradient too large for Newton-Raphson -- use scaled steepest descent instead.
 Alpha Gap=     0.127 HL deriv= 4.73D-04
     ILin= 1 X=0.000D+00 Y=-5.515110418470D+03 DE= 0.00D+00 F= -8.82D-01
 RMSU=  1.80D-04    CP:  9.10D-01  9.68D-01  1.52D-01  5.75D-01  4.21D-01
                    CP: -1.09D-01  9.55D-01  3.31D-01 -3.00D+00  1.50D+00
                    CP:  1.21D+00  3.00D+00  1.09D+00 -2.77D-01 -3.00D+00
     ILin= 2 X=4.000D-01 Y=-5.515336080647D+03 DE=-2.26D-01 F= -2.32D-01 OKLS=F
 RMSU=  1.40D-05    CP:  9.09D-01  9.16D-01  9.92D-02  5.07D-01  4.08D-01
                    CP: -1.04D-01  9.28D-01  3.43D-01 -3.00D+00  1.61D+00
                    CP:  1.49D+00  3.00D+00  1.08D+00  7.45D-02 -3.00D+00
                    CP:  1.48D+00
     ILin= 3 X=6.000D-01 Y=-5.515347908424D+03 DE=-2.37D-01 F=  1.14D-01
     Accept linear search using points  2 and  3.
     An  expanding polynomial of degree  3 produced  0.4930
 RMSU=  1.18D-07    CP:  9.09D-01  9.44D-01  1.26D-01  5.43D-01  4.15D-01
                    CP: -1.07D-01  9.43D-01  3.36D-01 -3.00D+00  1.55D+00
                    CP:  1.33D+00  3.00D+00  1.09D+00 -1.71D-01 -3.00D+00
                    CP:  1.23D+00  3.82D-01
 Iteration   7 EE= -5515.35017676841     Delta-E=       -0.239758298878 Grad=3.471D-01 Max rot=    3.6544 deg.
 Gradient too large for Newton-Raphson -- use scaled steepest descent instead.
 Alpha Gap=     0.145 HL deriv= 2.17D-03
     ILin= 1 X=0.000D+00 Y=-5.515350176768D+03 DE= 0.00D+00 F= -3.94D-01
 RMSU=  1.15D-04    CP:  9.07D-01  9.13D-01  1.27D-01  5.57D-01  4.20D-01
                    CP: -1.01D-01  9.27D-01  3.60D-01 -3.00D+00  1.52D+00
                    CP:  1.54D+00  3.00D+00  1.51D+00  1.15D+00 -3.00D+00
                    CP:  1.47D+00  4.89D-01  3.00D+00
     ILin= 2 X=5.000D-01 Y=-5.515461327045D+03 DE=-1.11D-01 F= -5.36D-02 OKLS=F
 RMSU=  8.21D-06    CP:  9.07D-01  9.00D-01  1.31D-01  5.64D-01  4.22D-01
                    CP: -9.69D-02  9.19D-01  3.69D-01 -3.00D+00  1.51D+00
                    CP:  1.64D+00  3.00D+00  1.68D+00  2.03D+00 -3.00D+00
                    CP:  1.56D+00  6.65D-01  3.00D+00  1.40D+00
     ILin= 3 X=7.000D-01 Y=-5.515459065460D+03 DE=-1.09D-01 F=  7.52D-02
     An  expanding polynomial of degree  3 produced  0.5831
 Restarting incremental Fock formation.
 Iteration   8 EE= -5515.46351900786     Delta-E=       -0.113342239449 Grad=2.901D-01 Max rot=    3.6543 deg.
 Gradient too large for Newton-Raphson -- use scaled steepest descent instead.
 Alpha Gap=     0.137 HL deriv= 1.47D-03
     ILin= 1 X=0.000D+00 Y=-5.515463519008D+03 DE= 0.00D+00 F= -2.85D-01
 RMSU=  1.86D-04    CP:  9.98D-01
     ILin= 2 X=5.000D-01 Y=-5.515539022838D+03 DE=-7.55D-02 F= -1.57D-02 OKLS=T
     Reject lnstep IMin12=  1  2 Big=T Turn=F Min= 6.125D-01 FVal=-5.515541315884D+03 Lims=  0.00D+00  5.00D-01
 RMSU=  1.58D-05    CP:  9.97D-01  1.59D+00
     ILin= 3 X=8.000D-01 Y=-5.515519632100D+03 DE=-5.61D-02 F=  1.44D-01
     An  expanding polynomial of degree  3 produced  0.5301
     Minimum is close to point  2 DX=  3.01D-02 DF= -2.44D-04 DXR=  5.68D-02 DFR=  3.24D-03 which will be used.
 Iteration   9 EE= -5515.53902283824     Delta-E=       -0.075503830383 Grad=2.204D-01 Max rot=    4.8797 deg.
 Gradient too large for Newton-Raphson -- use scaled steepest descent instead.
 Alpha Gap=     0.150 HL deriv= 1.81D-03
     ILin= 1 X=0.000D+00 Y=-5.515539022838D+03 DE= 0.00D+00 F= -1.74D-01
 RMSU=  1.82D-04    CP:  9.98D-01  1.17D+00  1.22D+00
     ILin= 2 X=6.000D-01 Y=-5.515598244113D+03 DE=-5.92D-02 F= -2.14D-02 OKLS=T
     Reject lnstep IMin12=  1  2 Big=T Turn=F Min= 9.040D-01 FVal=-5.515606334054D+03 Lims=  0.00D+00  6.00D-01
 RMSU=  9.98D-06    CP:  9.97D-01  1.22D+00  1.93D+00  1.33D+00
     ILin= 3 X=8.000D-01 Y=-5.515597314616D+03 DE=-5.83D-02 F=  3.06D-02
     An  expanding polynomial of degree  3 produced  0.6820
 RMSU=  5.48D-08    CP:  9.97D-01  1.19D+00  1.49D+00  1.13D+00  3.50D-01
 Iteration  10 EE= -5515.59912226284     Delta-E=       -0.060099424598 Grad=2.595D-01 Max rot=    4.7578 deg.
 Gradient too large for Newton-Raphson -- use scaled steepest descent instead.
 Alpha Gap=     0.133 HL deriv= 1.44D-03
     ILin= 1 X=0.000D+00 Y=-5.515599122263D+03 DE= 0.00D+00 F= -4.56D-01
 RMSU=  3.23D-04    CP:  9.95D-01  2.08D+00  3.00D+00  9.47D-01  3.00D+00
                    CP:  3.00D+00
     ILin= 2 X=6.000D-01 Y=-5.515806253721D+03 DE=-2.07D-01 F= -1.99D-01 OKLS=F
 RMSU=  1.29D-04    CP:  9.93D-01  2.39D+00  3.00D+00  7.67D-01  3.00D+00
                    CP:  3.00D+00  1.38D+00
     ILin= 3 X=9.000D-01 Y=-5.515838017873D+03 DE=-2.39D-01 F= -7.44D-03
 RMSU=  1.70D-05    CP:  9.91D-01  2.59D+00  3.00D+00  5.58D-01  3.00D+00
                    CP:  3.00D+00  1.54D+00  2.36D+00
     ILin= 4 X=1.200D+00 Y=-5.515807504657D+03 DE=-2.08D-01 F=  2.16D-01
     An  expanding polynomial of degree  4 produced  0.9117
     Minimum is close to point  3 DX=  1.17D-02 DF= -4.72D-05 DXR=  1.28D-02 DFR=  1.97D-04 which will be used.
 Iteration  11 EE= -5515.83801787335     Delta-E=       -0.238895610513 Grad=2.865D-01 Max rot=    3.2818 deg.
 Gradient too large for Newton-Raphson -- use scaled steepest descent instead.
 Alpha Gap=     0.166 HL deriv= 2.55D-03
     ILin= 1 X=0.000D+00 Y=-5.515838017873D+03 DE= 0.00D+00 F= -3.28D-01
 RMSU=  2.53D-04    CP:  9.92D-01  2.16D+00  3.00D+00  1.61D+00  3.00D+00
                    CP:  3.00D+00  1.35D+00  1.50D+00 -2.88D+00
     ILin= 2 X=8.000D-01 Y=-5.515855374647D+03 DE=-1.74D-02 F=  2.78D-01 OKLS=T
     Accept linear search using points  1 and  2.
     An  expanding polynomial of degree  2 produced  0.4180
 RMSU=  1.10D-05    CP:  9.92D-01  2.28D+00  3.00D+00  1.23D+00  3.00D+00
                    CP:  3.00D+00  1.38D+00  1.25D+00 -1.30D+00  5.18D-01
 Iteration  12 EE= -5515.90782047730     Delta-E=       -0.069802603946 Grad=1.567D-01 Max rot=    1.6964 deg.
 Gradient too large for Newton-Raphson -- use scaled steepest descent instead.
 Alpha Gap=     0.120 HL deriv= 3.56D-03
     ILin= 1 X=0.000D+00 Y=-5.515907820477D+03 DE= 0.00D+00 F= -1.01D-01
 RMSU=  1.05D-04    CP:  9.91D-01  2.47D+00  3.00D+00  1.24D+00  3.00D+00
                    CP:  3.00D+00  1.39D+00  1.57D+00  9.87D-01  6.31D-01
                    CP: -8.78D-01
     ILin= 2 X=6.000D-01 Y=-5.515939535131D+03 DE=-3.17D-02 F= -4.30D-03 OKLS=T
     Reject lnstep IMin12=  1  2 Big=T Turn=F Min= 9.243D-01 FVal=-5.515941353375D+03 Lims=  0.00D+00  6.00D-01
 RMSU=  5.83D-06    CP:  9.91D-01  2.56D+00  3.00D+00  1.23D+00  3.00D+00
                    CP:  3.00D+00  1.39D+00  1.73D+00  2.04D+00  6.88D-01
                    CP: -2.26D+00  1.49D+00
     ILin= 3 X=9.000D-01 Y=-5.515933469366D+03 DE=-2.56D-02 F=  4.47D-02
     An  expanding polynomial of degree  3 produced  0.6255
     Minimum is close to point  2 DX=  2.55D-02 DF= -5.28D-05 DXR=  4.08D-02 DFR=  1.66D-03 which will be used.
 Iteration  13 EE= -5515.93953513118     Delta-E=       -0.031714653880 Grad=1.490D-01 Max rot=    2.4293 deg.
 Gradient too large for Newton-Raphson -- use scaled steepest descent instead.
 Alpha Gap=     0.165 HL deriv= 1.86D-03
     ILin= 1 X=0.000D+00 Y=-5.515939535131D+03 DE= 0.00D+00 F= -9.58D-02
 RMSU=  6.73D-05    CP:  9.91D-01  2.43D+00  3.00D+00  1.43D+00  3.00D+00
                    CP:  3.00D+00  1.38D+00  1.75D+00  1.61D-01  9.24D-01
                    CP: -2.15D+00  8.60D-01  5.48D-01
     ILin= 2 X=5.000D-01 Y=-5.515958401732D+03 DE=-1.89D-02 F=  2.04D-02 OKLS=T
     Accept linear search using points  1 and  2.
     An  expanding polynomial of degree  2 produced  0.2996
 RMSU=  1.87D-06    CP:  9.91D-01  2.45D+00  3.00D+00  1.36D+00  3.00D+00
                    CP:  3.00D+00  1.38D+00  1.67D+00  5.23D-01  8.07D-01
                    CP: -1.52D+00  9.18D-01  2.88D-01  6.01D-01
 Iteration  14 EE= -5515.95783293385     Delta-E=       -0.018297802671 Grad=9.364D-02 Max rot=    2.2755 deg.
 Gradient too large for Newton-Raphson -- use scaled steepest descent instead.
 Alpha Gap=     0.133 HL deriv= 4.04D-03
     ILin= 1 X=0.000D+00 Y=-5.515957832934D+03 DE= 0.00D+00 F= -4.27D-02
 RMSU=  3.87D-05    CP:  9.90D-01  2.48D+00  3.00D+00  1.41D+00  3.00D+00
                    CP:  3.00D+00  1.39D+00  1.86D+00  1.66D+00  9.30D-01
                    CP: -3.00D+00  1.45D+00  2.72D+00  1.10D+00 -5.31D-01
     ILin= 2 X=6.000D-01 Y=-5.515982180375D+03 DE=-2.43D-02 F= -3.82D-02 OKLS=F
 RMSU=  1.41D-05    CP:  9.90D-01  2.50D+00  3.00D+00  1.43D+00  3.00D+00
                    CP:  3.00D+00  1.39D+00  1.95D+00  2.13D+00  9.90D-01
                    CP: -3.00D+00  1.71D+00  3.00D+00  1.34D+00 -2.90D+00
                    CP:  1.57D+00
     ILin= 3 X=9.000D-01 Y=-5.515993246837D+03 DE=-3.54D-02 F= -3.55D-02
 RMSU=  1.30D-05    CP:  9.89D-01  2.51D+00  3.00D+00  1.44D+00  3.00D+00
                    CP:  3.00D+00  1.38D+00  2.10D+00  2.75D+00  1.09D+00
                    CP: -3.00D+00  2.12D+00  3.00D+00  1.71D+00 -3.00D+00
                    CP:  2.49D+00  3.00D+00
     ILin= 4 X=1.400D+00 Y=-5.516009662079D+03 DE=-5.18D-02 F= -3.00D-02
 RMSU=  4.59D-05    CP:  9.89D-01  2.51D+00  3.00D+00  1.43D+00  3.00D+00
                    CP:  3.00D+00  1.36D+00  2.27D+00  3.00D+00  1.20D+00
                    CP: -3.00D+00  2.56D+00  3.00D+00  2.08D+00 -3.00D+00
                    CP:  3.00D+00  3.00D+00  3.00D+00
     ILin= 5 X=2.000D+00 Y=-5.516025237000D+03 DE=-6.74D-02 F= -2.16D-02
 RMSU=  6.53D-05    CP:  9.87D-01  2.47D+00  3.00D+00  1.38D+00  3.00D+00
                    CP:  3.00D+00  1.32D+00  2.50D+00  3.00D+00  1.35D+00
                    CP: -3.00D+00  3.00D+00  3.00D+00  2.48D+00 -3.00D+00
                    CP:  3.00D+00  3.00D+00  3.00D+00  3.00D+00
     ILin= 6 X=3.000D+00 Y=-5.516037928181D+03 DE=-8.01D-02 F= -2.72D-03
     Reject lnstep IMin12=  5  6 Big=T Turn=F Min= 3.120D+00 FVal=-5.516038093094D+03 Lims=  2.00D+00  3.00D+00
 Restarting incremental Fock formation.
     ILin= 7 X=4.500D+00 Y=-5.516013687503D+03 DE=-5.59D-02 F=  3.72D-02
     An  expanding polynomial of degree  7 produced  3.1208
     Minimum is close to point  6 DX=  1.21D-01 DF= -1.65D-04 DXR=  3.87D-02 DFR=  2.06D-03 which will be used.
 Iteration  15 EE= -5516.03792818113     Delta-E=       -0.080095247285 Grad=2.753D-01 Max rot=    5.7953 deg.
 Gradient too large for Newton-Raphson -- use scaled steepest descent instead.
 Alpha Gap=     0.209 HL deriv= 6.43D-03
     ILin= 1 X=0.000D+00 Y=-5.516037928181D+03 DE= 0.00D+00 F= -6.17D-01
 RMSU=  6.25D-04    CP:  9.96D-01
     ILin= 2 X=8.000D-01 Y=-5.516162047830D+03 DE=-1.24D-01 F=  1.16D-01 OKLS=T
     Accept linear search using points  1 and  2.
     An  expanding polynomial of degree  2 produced  0.4834
 RMSU=  1.48D-04    CP:  9.98D-01  6.54D-01
 Iteration  16 EE= -5516.17678083823     Delta-E=       -0.138852657095 Grad=2.742D-01 Max rot=    2.6412 deg.
 Gradient too large for Newton-Raphson -- use scaled steepest descent instead.
 Alpha Gap=     0.127 HL deriv= 1.96D-02
     ILin= 1 X=0.000D+00 Y=-5.516176780838D+03 DE= 0.00D+00 F= -3.56D-01
 RMSU=  4.67D-04    CP:  9.95D-01  7.47D-01 -6.30D-01
     ILin= 2 X=1.200D+00 Y=-5.516072323216D+03 DE= 1.04D-01 F=  4.81D-01 OKLS=T
     Reject lnstep IMin12=  1  2 Big=F Turn=F Min= 4.263D-01 FVal=-5.516238006357D+03 Lims=  0.00D+00  1.20D+00
 RMSU=  6.56D-05    CP:  9.97D-01  7.19D-01  5.90D-01  3.48D-01
     ILin= 3 X=4.000D-01 Y=-5.516259654074D+03 DE=-8.29D-02 F= -5.30D-02
     A contracting polynomial of degree  3 produced  0.4817
 RMSU=  1.07D-06    CP:  9.97D-01  7.29D-01  4.82D-01  4.20D-01  1.08D+00
 Iteration  17 EE= -5516.26139023431     Delta-E=       -0.084609396086 Grad=1.921D-01 Max rot=    1.3084 deg.
 Gradient too large for Newton-Raphson -- use scaled steepest descent instead.
 Alpha Gap=     0.278 HL deriv= 1.56D-04
     ILin= 1 X=0.000D+00 Y=-5.516261390234D+03 DE= 0.00D+00 F= -1.14D-01
 RMSU=  1.01D-04    CP:  9.97D-01  7.97D-01  2.81D-01  3.78D-01  9.21D-01
                    CP:  3.00D+00
     ILin= 2 X=5.000D-01 Y=-5.516290002922D+03 DE=-2.86D-02 F= -1.81D-03 OKLS=T
     Reject lnstep IMin12=  1  2 Big=T Turn=F Min= 5.984D-01 FVal=-5.516290250903D+03 Lims=  0.00D+00  5.00D-01
 RMSU=  7.97D-06    CP:  9.96D-01  8.34D-01  1.55D-01  3.51D-01  7.60D-01
                    CP:  3.00D+00  1.60D+00
     ILin= 3 X=8.000D-01 Y=-5.516281036114D+03 DE=-1.96D-02 F=  6.09D-02
     An  expanding polynomial of degree  3 produced  0.5128
     Minimum is close to point  2 DX=  1.28D-02 DF= -1.77D-05 DXR=  2.49D-02 DFR=  6.20D-04 which will be used.
 Iteration  18 EE= -5516.29000292235     Delta-E=       -0.028612688031 Grad=1.033D-01 Max rot=    1.2732 deg.
 Gradient too large for Newton-Raphson -- use scaled steepest descent instead.
 Alpha Gap=     0.213 HL deriv= 3.58D-03
     ILin= 1 X=0.000D+00 Y=-5.516290002922D+03 DE= 0.00D+00 F= -4.57D-02
 RMSU=  2.67D-05    CP:  9.96D-01  8.06D-01  5.66D-02  4.98D-01  8.38D-01
                    CP:  3.00D+00  1.13D+00  4.09D-01
     ILin= 2 X=5.000D-01 Y=-5.516304275609D+03 DE=-1.43D-02 F= -1.13D-02 OKLS=F
 RMSU=  1.55D-06    CP:  9.96D-01  8.08D-01 -7.86D-02  5.67D-01  7.20D-01
                    CP:  3.00D+00  1.20D+00  7.96D-01  1.60D+00
     ILin= 3 X=8.000D-01 Y=-5.516304566201D+03 DE=-1.46D-02 F=  9.36D-03
     Accept linear search using points  2 and  3.
     An  expanding polynomial of degree  3 produced  0.6492
 RMSU=  1.32D-08    CP:  9.96D-01  8.07D-01 -1.07D-02  5.33D-01  7.86D-01
                    CP:  3.00D+00  1.16D+00  5.89D-01  1.30D+00  4.03D-01
 Iteration  19 EE= -5516.30519561122     Delta-E=       -0.015192688872 Grad=9.051D-02 Max rot=    0.6261 deg.
 Gradient too large for Newton-Raphson -- use scaled steepest descent instead.
 Alpha Gap=     0.264 HL deriv= 1.23D-03
     ILin= 1 X=0.000D+00 Y=-5.516305195611D+03 DE= 0.00D+00 F= -2.57D-02
 RMSU=  1.42D-05    CP:  9.96D-01  8.40D-01 -1.12D-01  5.00D-01  5.63D-01
                    CP:  3.00D+00  1.68D+00  1.99D+00  1.42D+00  5.99D-01
                    CP:  3.00D+00
     ILin= 2 X=6.000D-01 Y=-5.516311134936D+03 DE=-5.94D-03 F=  5.71D-03 OKLS=T
     Accept linear search using points  1 and  2.
     An  expanding polynomial of degree  2 produced  0.3894
 RMSU=  1.62D-07    CP:  9.96D-01  8.28D-01 -7.70D-02  5.12D-01  6.46D-01
                    CP:  3.00D+00  1.50D+00  1.43D+00  1.38D+00  5.11D-01
                    CP:  3.00D+00  6.52D-01
 Iteration  20 EE= -5516.31119272668     Delta-E=       -0.005997115462 Grad=3.827D-02 Max rot=    0.5878 deg.
 Gradient too large for Newton-Raphson -- use scaled steepest descent instead.
 Alpha Gap=     0.239 HL deriv= 5.40D-04
     ILin= 1 X=0.000D+00 Y=-5.516311192727D+03 DE= 0.00D+00 F= -6.84D-03
 RMSU=  3.26D-06    CP:  9.96D-01  8.34D-01 -1.70D-01  5.42D-01  5.17D-01
                    CP:  3.00D+00  1.62D+00  2.05D+00  1.87D+00  1.40D+00
                    CP:  3.00D+00  9.09D-01 -6.02D-01
     ILin= 2 X=5.000D-01 Y=-5.516313994782D+03 DE=-2.80D-03 F= -4.36D-03 OKLS=F
 RMSU=  2.21D-07    CP:  9.95D-01  8.38D-01 -2.43D-01  5.66D-01  4.00D-01
                    CP:  3.00D+00  1.71D+00  2.63D+00  2.26D+00  2.45D+00
                    CP:  3.00D+00  1.11D+00 -2.62D+00  1.80D+00
     ILin= 3 X=9.000D-01 Y=-5.516315336436D+03 DE=-4.14D-03 F= -2.35D-03
 RMSU=  8.89D-06    CP:  9.95D-01  8.44D-01 -3.84D-01  6.11D-01  1.28D-01
                    CP:  3.00D+00  1.88D+00  3.00D+00  3.00D+00  3.00D+00
                    CP:  3.00D+00  1.52D+00 -3.00D+00  3.00D+00  3.00D+00
     ILin= 4 X=1.700D+00 Y=-5.516315590404D+03 DE=-4.40D-03 F=  1.72D-03
     Accept linear search using points  3 and  4.
     An  expanding polynomial of degree  4 produced  1.3443
 RMSU=  5.95D-07    CP:  9.95D-01  8.42D-01 -3.22D-01  5.91D-01  2.55D-01
                    CP:  3.00D+00  1.80D+00  3.00D+00  2.69D+00  3.00D+00
                    CP:  3.00D+00  1.34D+00 -3.00D+00  2.68D+00  3.00D+00
                    CP:  3.52D-01
 Iteration  21 EE= -5516.31587927967     Delta-E=       -0.004686552995 Grad=3.964D-02 Max rot=    0.2085 deg.
 Gradient too large for Newton-Raphson -- use scaled steepest descent instead.
 Alpha Gap=     0.254 HL deriv= 9.15D-04
     ILin= 1 X=0.000D+00 Y=-5.516315879280D+03 DE= 0.00D+00 F= -4.64D-03
 RMSU=  6.09D-06    CP:  9.95D-01  8.53D-01 -3.27D-01  5.61D-01  1.85D-01
                    CP:  3.00D+00  1.99D+00  3.00D+00  2.55D+00  3.00D+00
                    CP:  3.00D+00  2.18D+00 -3.00D+00  2.14D+00  2.80D-01
[...]
 Alpha virt. eigenvalues --    2.54191   2.54547   2.54808   2.54856   2.55078
 Alpha virt. eigenvalues --    2.55954   2.56391   2.56546   2.56670   2.56900
 Alpha virt. eigenvalues --    2.56982   2.57147   2.57171   2.57272   2.57986
 Alpha virt. eigenvalues --    2.58442   2.58552   2.58830   2.59249   2.59390
 Alpha virt. eigenvalues --    2.59518   2.59951   2.60370   2.60603   2.60690
 Alpha virt. eigenvalues --    2.60814   2.61076   2.61491   2.61651   2.61932
 Alpha virt. eigenvalues --    2.62243   2.62464   2.62620   2.62965   2.63276
 Alpha virt. eigenvalues --    2.63778   2.64063   2.64092   2.64298   2.64556
 Alpha virt. eigenvalues --    2.64751   2.64813   2.64913   2.65732   2.65754
 Alpha virt. eigenvalues --    2.65971   2.66127   2.66760   2.67050   2.67652
 Alpha virt. eigenvalues --    2.67905   2.68258   2.68320   2.68625   2.68881
 Alpha virt. eigenvalues --    2.68999   2.69019   2.69032   2.69084   2.69913
 Alpha virt. eigenvalues --    2.70302   2.70372   2.70469   2.70551   2.70846
 Alpha virt. eigenvalues --    2.71225   2.71617   2.71840   2.71883   2.71944
 Alpha virt. eigenvalues --    2.72260   2.72279   2.72654   2.72783   2.72983
 Alpha virt. eigenvalues --    2.73067   2.73145   2.73207   2.73270   2.73279
 Alpha virt. eigenvalues --    2.73724   2.73864   2.74073   2.74096   2.74332
 Alpha virt. eigenvalues --    2.74782   2.74850   2.75071   2.75123   2.75658
 Alpha virt. eigenvalues --    2.75865   2.75950   2.75997   2.76124   2.76423
 Alpha virt. eigenvalues --    2.76661   2.76772   2.76959   2.77074   2.77124
 Alpha virt. eigenvalues --    2.77198   2.77216   2.77339   2.77392   2.77912
 Alpha virt. eigenvalues --    2.77975   2.78003   2.78031   2.78044   2.78111
 Alpha virt. eigenvalues --    2.78138   2.79435   2.81325   2.81530   2.81551
 Alpha virt. eigenvalues --    2.81562   2.81752   2.82019   2.82160   2.82330
 Alpha virt. eigenvalues --    2.82393   2.82568   2.82797   2.82827   2.83175
 Alpha virt. eigenvalues --    2.84063   2.84338   2.84447   2.86076   2.86319
 Alpha virt. eigenvalues --    2.86430   2.86602   2.88117   2.88449   2.88806
 Alpha virt. eigenvalues --    2.88845   2.89074   2.90524   2.90558   2.90608
 Alpha virt. eigenvalues --    2.91024   2.91230   2.92296   2.92626   2.92635
 Alpha virt. eigenvalues --    2.93601   2.93638   2.93735   2.93908   2.94600
 Alpha virt. eigenvalues --    2.94726   2.95244   2.95297   2.95358   2.95433
 Alpha virt. eigenvalues --    2.95645   2.95945   2.97155   2.97375   2.97633
 Alpha virt. eigenvalues --    2.97773   2.97916   2.98001   2.98581   2.98830
 Alpha virt. eigenvalues --    2.99088   2.99160   2.99284   3.00447   3.00679
 Alpha virt. eigenvalues --    3.01061   3.01179   3.02176   3.02936   3.03212
 Alpha virt. eigenvalues --    3.03258   3.03391   3.03528   3.03625   3.04158
 Alpha virt. eigenvalues --    3.04877   3.04921   3.05022   3.05628   3.06400
 Alpha virt. eigenvalues --    3.06565   3.06622   3.06854   3.07770   3.09488
 Alpha virt. eigenvalues --    3.09603   3.10049   3.10141   3.11042   3.11127
 Alpha virt. eigenvalues --    3.11300   3.11669   3.12722   3.12818   3.12833
 Alpha virt. eigenvalues --    3.14031   3.14212   3.14308   3.14384   3.15522
 Alpha virt. eigenvalues --    3.19168   3.19921   3.20243   3.20330   3.20659
 Alpha virt. eigenvalues --    3.21078   3.21302   3.21503   3.22588   3.24614
 Alpha virt. eigenvalues --    3.24796   3.24844   3.25742   3.28561   3.28691
 Alpha virt. eigenvalues --    3.28739   3.28754   3.32225   3.32498   3.32571
 Alpha virt. eigenvalues --    3.33052   3.36319   3.36416   3.36455   3.37288
 Alpha virt. eigenvalues --    3.44172   3.44294   3.44360   3.44366   3.45084
 Alpha virt. eigenvalues --    3.45108   3.45150   3.45207   3.51694   3.51799
 Alpha virt. eigenvalues --    3.51834   3.51945   3.55586   3.55588   3.55655
 Alpha virt. eigenvalues --    3.55818   3.59216   3.59317   3.59426   3.59525
 Alpha virt. eigenvalues --    3.63984   3.64043   3.64212   3.64257   3.68361
 Alpha virt. eigenvalues --    3.68395   3.68600   3.68639   3.79083   3.79137
 Alpha virt. eigenvalues --    3.79264   3.79478   3.82298   3.82345   3.82484
 Alpha virt. eigenvalues --    3.82610  51.72037  51.74496
          Condensed to atoms (all electrons):
 Mulliken charges:
               1
     1  Pd   0.465631
     2  Pd   0.491577
     3  C    0.031399
     4  C   -0.100321
     5  C   -0.010031
     6  C    0.007115
     7  C    0.013207
     8  C    0.005511
     9  C    0.038273
    10  C   -0.018952
    11  C    0.141954
    12  N   -0.337727
    13  C    0.176389
    14  C   -0.018929
    15  H    0.040100
    16  H    0.055179
    17  H    0.040395
    18  H    0.053341
    19  H    0.105288
    20  H    0.095844
    21  C   -0.088581
    22  C   -0.000390
    23  C   -0.033995
    24  C    0.115249
    25  N   -0.121822
    26  C    0.118778
    27  C   -0.045847
    28  C    0.003881
    29  C   -0.083883
    30  C   -0.032255
    31  C    0.020208
    32  C    0.023350
    33  C   -0.031247
    34  H    0.031320
    35  H    0.022622
    36  H    0.166637
    37  H    0.026569
    38  H    0.033669
    39  H    0.021918
    40  H    0.019542
    41  C    0.012553
    42  C   -0.030291
    43  C   -0.117381
    44  C    0.102197
    45  C   -0.034657
    46  C    0.148808
    47  N   -0.309647
    48  C    0.176572
    49  H    0.061344
    50  H    0.070044
    51  H    0.106742
    52  H    0.092483
    53  C    0.025325
    54  C   -0.095524
    55  C   -0.013040
    56  C    0.018369
    57  C    0.006693
    58  C    0.002378
    59  C    0.035856
    60  C   -0.016383
    61  C    0.140282
    62  N   -0.338163
    63  C    0.172713
    64  C   -0.011557
    65  H    0.038031
    66  H    0.057215
    67  H    0.039788
    68  H    0.053016
    69  H    0.108642
    70  H    0.095354
    71  C   -0.089336
    72  C    0.001103
    73  C   -0.049136
    74  C    0.118497
    75  N   -0.120178
    76  C    0.118051
    77  C   -0.044919
    78  C    0.003584
    79  C   -0.083693
    80  C   -0.031256
    81  C    0.020551
    82  C    0.020640
    83  C   -0.025974
    84  H    0.032327
    85  H    0.025356
    86  H    0.166961
    87  H    0.026701
    88  H    0.033812
    89  H    0.021943
    90  H    0.019993
    91  C    0.012292
    92  C   -0.029763
    93  C   -0.116826
    94  C    0.101710
    95  C   -0.034501
    96  C    0.148804
    97  N   -0.310428
    98  C    0.175937
    99  H    0.061364
   100  H    0.069914
   101  H    0.106837
   102  H    0.091089
   103  C    0.026559
   104  C   -0.095818
   105  C   -0.011153
   106  C    0.010889
   107  C    0.016435
   108  C    0.001443
   109  C    0.039003
   110  C   -0.018629
   111  C    0.140634
   112  N   -0.338781
   113  C    0.173156
   114  C   -0.016038
   115  H    0.037789
   116  H    0.056062
   117  H    0.039149
   118  H    0.052988
   119  H    0.106200
   120  H    0.096142
   121  C   -0.087282
   122  C   -0.004215
   123  C   -0.039032
   124  C    0.120107
   125  N   -0.121811
   126  C    0.119987
   127  C   -0.046279
   128  C    0.004868
   129  C   -0.083787
   130  C   -0.033834
   131  C    0.020094
   132  C    0.025044
   133  C   -0.032403
   134  H    0.031948
   135  H    0.023482
   136  H    0.166905
   137  H    0.026679
   138  H    0.033675
   139  H    0.022052
   140  H    0.019903
   141  C    0.012569
   142  C   -0.029694
   143  C   -0.116401
   144  C    0.103146
   145  C   -0.034984
   146  C    0.149143
   147  N   -0.309686
   148  C    0.173203
   149  H    0.061351
   150  H    0.070069
   151  H    0.106706
   152  H    0.092360
   153  C    0.029286
   154  C   -0.098147
   155  C   -0.011617
   156  C    0.010208
   157  C    0.019867
   158  C    0.000188
   159  C    0.039542
   160  C   -0.018594
   161  C    0.141184
   162  N   -0.339055
   163  C    0.173624
   164  C   -0.016746
   165  H    0.037585
   166  H    0.055576
   167  H    0.038931
   168  H    0.052715
   169  H    0.106075
   170  H    0.095067
   171  C   -0.088389
   172  C   -0.000792
   173  C   -0.035197
   174  C    0.116836
   175  N   -0.122045
   176  C    0.119964
   177  C   -0.046479
   178  C    0.004861
   179  C   -0.083782
   180  C   -0.034034
   181  C    0.020518
   182  C    0.023198
   183  C   -0.031518
   184  H    0.031337
   185  H    0.022611
   186  H    0.166712
   187  H    0.026652
   188  H    0.033560
   189  H    0.022052
   190  H    0.019728
   191  C    0.012686
   192  C   -0.030084
   193  C   -0.117154
   194  C    0.103224
   195  C   -0.035353
   196  C    0.149284
   197  N   -0.309360
   198  C    0.175357
   199  H    0.061262
   200  H    0.070067
   201  H    0.105930
   202  H    0.092560
 Sum of Mulliken charges =   4.00000
 Mulliken charges with hydrogens summed into heavy atoms:
               1
     1  Pd   0.465631
     2  Pd   0.491577
     3  C    0.031399
     4  C   -0.100321
     5  C   -0.010031
     6  C    0.047215
     7  C    0.068386
     8  C    0.045906
     9  C    0.038273
    10  C    0.034390
    11  C    0.247242
    12  N   -0.337727
    13  C    0.272233
    14  C   -0.018929
    21  C   -0.088581
    22  C    0.030931
    23  C   -0.011373
    24  C    0.115249
    25  N    0.044815
    26  C    0.118778
    27  C   -0.019278
    28  C    0.037551
    29  C   -0.083883
    30  C   -0.010337
    31  C    0.020208
    32  C    0.023350
    33  C   -0.011705
    41  C    0.012553
    42  C   -0.030291
    43  C   -0.117381
    44  C    0.163540
    45  C    0.035388
    46  C    0.255550
    47  N   -0.309647
    48  C    0.269055
    53  C    0.025325
    54  C   -0.095524
    55  C   -0.013040
    56  C    0.056399
    57  C    0.063908
    58  C    0.042166
    59  C    0.035856
    60  C    0.036633
    61  C    0.248924
    62  N   -0.338163
    63  C    0.268067
    64  C   -0.011557
    71  C   -0.089336
    72  C    0.033430
    73  C   -0.023780
    74  C    0.118497
    75  N    0.046783
    76  C    0.118051
    77  C   -0.018218
    78  C    0.037396
    79  C   -0.083693
    80  C   -0.009313
    81  C    0.020551
    82  C    0.020640
    83  C   -0.005981
    91  C    0.012292
    92  C   -0.029763
    93  C   -0.116826
    94  C    0.163074
    95  C    0.035414
    96  C    0.255641
    97  N   -0.310428
    98  C    0.267025
   103  C    0.026559
   104  C   -0.095818
   105  C   -0.011153
   106  C    0.048678
   107  C    0.072497
   108  C    0.040592
   109  C    0.039003
   110  C    0.034360
   111  C    0.246834
   112  N   -0.338781
   113  C    0.269298
   114  C   -0.016038
   121  C   -0.087282
   122  C    0.027733
   123  C   -0.015550
   124  C    0.120107
   125  N    0.045094
   126  C    0.119987
   127  C   -0.019600
   128  C    0.038543
   129  C   -0.083787
   130  C   -0.011782
   131  C    0.020094
   132  C    0.025044
   133  C   -0.012499
   141  C    0.012569
   142  C   -0.029694
   143  C   -0.116401
   144  C    0.164497
   145  C    0.035085
   146  C    0.255849
   147  N   -0.309686
   148  C    0.265563
   153  C    0.029286
   154  C   -0.098147
   155  C   -0.011617
   156  C    0.047793
   157  C    0.075443
   158  C    0.039120
   159  C    0.039542
   160  C    0.034120
   161  C    0.247259
   162  N   -0.339055
   163  C    0.268690
   164  C   -0.016746
   171  C   -0.088389
   172  C    0.030545
   173  C   -0.012587
   174  C    0.116836
   175  N    0.044667
   176  C    0.119964
   177  C   -0.019828
   178  C    0.038421
   179  C   -0.083782
   180  C   -0.011982
   181  C    0.020518
   182  C    0.023198
   183  C   -0.011790
   191  C    0.012686
   192  C   -0.030084
   193  C   -0.117154
   194  C    0.164485
   195  C    0.034714
   196  C    0.255214
   197  N   -0.309360
   198  C    0.267916
 Electronic spatial extent (au):  <R**2>=         178232.1579
 Charge=              4.0000 electrons
 Dipole moment (field-independent basis, Debye):
    X=              9.9102    Y=             -0.4272    Z=             -0.4197  Tot=              9.9283
 Quadrupole moment (field-independent basis, Debye-Ang):
   XX=            210.6959   YY=           -420.6655   ZZ=           -444.1139
   XY=             -2.6783   XZ=             -7.3108   YZ=             -4.5935
 Traceless Quadrupole moment (field-independent basis, Debye-Ang):
   XX=            428.7237   YY=           -202.6377   ZZ=           -226.0860
   XY=             -2.6783   XZ=             -7.3108   YZ=             -4.5935
 Octapole moment (field-independent basis, Debye-Ang**2):
  XXX=           3203.7062  YYY=             89.1232  ZZZ=             36.6637  XYY=           -325.9712
  XXY=            -31.2679  XXZ=            -70.4148  XZZ=           -341.6251  YZZ=            -38.5322
  YYZ=           -111.6817  XYZ=            -26.4357
 Hexadecapole moment (field-independent basis, Debye-Ang**3):
 XXXX=         -51803.7759 YYYY=         -53285.4117 ZZZZ=         -51229.1302 XXXY=           -576.6575
 XXXZ=           -361.9423 YYYX=            -62.4006 YYYZ=           3194.3068 ZZZX=            -66.1520
 ZZZY=          -3938.2409 XXYY=         -22784.2770 XXZZ=         -22034.6637 YYZZ=         -10334.5698
 XXYZ=            -10.2216 YYXZ=            -78.3051 ZZXY=            -13.1765
 N-N= 2.860072727493D+04 E-N=-6.970633411243D+04  KE= 5.305410972798D+03
 Leave Link  601 at Fri Feb 26 12:53:45 2021, MaxMem=  7864320000 cpu:              69.8 elap:               2.5
 (Enter /apps/gaussian/g16-c01-avx/g16/l9999.exe)
 Unable to Open any file for archive entry.
 1\1\GINC-CX3-2-28\SP\RPBE1PBE\def2SVP\C120H68N12Pd2(4+)\ATARZIA\26-Feb
 -2021\0\\#P PBE1PBE/Def2SVP SP SCF=(YQC,MaxCycle=900) int=(Grid=Superf
 inegrid) EmpiricalDispersion=GD3BJ SCRF=(PCM,Solvent=DiMethylSulfoxide
 )\\_s_4c3_a\\4,1\Pd,0,-0.5266,6.8358,-1.6022\Pd,0,0.2374,-7.0854,0.885
 5\C,0,4.2383,4.1237,0.3952\C,0,3.7176,4.8519,1.2093\C,0,3.2034,5.8106,
 2.1074\C,0,3.8179,6.0485,3.3213\C,0,3.4093,7.1106,4.1371\C,0,2.407,7.9
 634,3.7465\C,0,1.7401,7.7487,2.5267\C,0,0.7198,8.5955,2.0374\C,0,0.118
 6,8.3229,0.8419\N,0,0.4331,7.2221,0.1121\C,0,1.3867,6.4118,0.5341\C,0,
 2.1099,6.639,1.7136\H,0,4.6415,5.4233,3.6301\H,0,3.9157,7.2714,5.0767\
 H,0,2.1247,8.8041,4.3605\H,0,0.43,9.4624,2.6095\H,0,-0.6427,8.9727,0.4
 22\H,0,1.6063,5.5329,-0.0687\C,0,4.9311,3.3746,-0.5825\C,0,5.8551,4.07
 05,-1.3839\C,0,6.612,3.4208,-2.333\C,0,6.433,2.0519,-2.4801\N,0,7.064,
 1.179,-3.3267\C,0,6.5878,-0.0835,-3.11\C,0,6.9549,-1.28,-3.7157\C,0,6.
 3247,-2.4312,-3.3021\C,0,5.3304,-2.4009,-2.3048\C,0,4.9542,-1.2001,-1.
 7023\C,0,5.5902,-0.0371,-2.1016\C,0,5.4934,1.3405,-1.693\C,0,4.7386,2.
 0053,-0.7379\H,0,5.9788,5.1319,-1.2325\H,0,7.3328,3.9573,-2.9297\H,0,7
 .8043,1.4184,-3.9654\H,0,7.7168,-1.3081,-4.4796\H,0,6.5908,-3.3791,-3.
 7447\H,0,4.1973,-1.1872,-0.9346\H,0,4.0315,1.4773,-0.1187\C,0,4.7347,-
 3.6127,-1.9127\C,0,4.2498,-4.6727,-1.5875\C,0,3.7004,-5.905,-1.1977\C,
 0,4.3343,-7.1201,-1.5014\C,0,3.7587,-8.304,-1.0803\C,0,2.5662,-8.2656,
 -0.3721\N,0,1.9608,-7.1087,-0.0925\C,0,2.4984,-5.9565,-0.4849\H,0,5.26
 12,-7.1177,-2.0533\H,0,4.2267,-9.2508,-1.296\H,0,2.0785,-9.1713,-0.020
 3\H,0,1.9636,-5.0439,-0.2259\C,0,-2.2117,4.2481,3.5323\C,0,-3.0786,4.7
 32,2.8403\C,0,-4.1154,5.3945,2.1508\C,0,-5.399,5.3941,2.6623\C,0,-6.41
 05,6.159,2.0714\C,0,-6.1548,6.9532,0.9817\C,0,-4.8642,6.9819,0.4239\C,
 0,-4.5124,7.809,-0.6667\C,0,-3.2401,7.7843,-1.1601\N,0,-2.2919,6.9481,
 -0.6637\C,0,-2.5771,6.1758,0.3684\C,0,-3.8372,6.1691,0.9854\H,0,-5.612
 9,4.814,3.5465\H,0,-7.3997,6.1422,2.5031\H,0,-6.9287,7.5685,0.5505\H,0
 ,-5.2533,8.4641,-1.0964\H,0,-2.9272,8.4314,-1.9744\H,0,-1.791,5.5221,0
 .7398\C,0,-1.2036,3.8074,4.4193\C,0,-0.7709,4.728,5.3923\C,0,0.1868,4.
 3902,6.3222\C,0,0.713,3.1061,6.2734\N,0,1.6547,2.5237,7.0801\C,0,1.845
 ,1.2288,6.6891\C,0,2.6803,0.2589,7.2323\C,0,2.67,-0.9928,6.6614\C,0,1.
 8467,-1.2838,5.5559\C,0,1.0187,-0.3077,5.0002\C,0,1.0139,0.9534,5.5716
 \C,0,0.2854,2.1667,5.3022\C,0,-0.6763,2.5208,4.3666\H,0,-1.2107,5.7136
 ,5.4074\H,0,0.5097,5.0984,7.0696\H,0,2.1029,2.9664,7.8652\H,0,3.3094,0
 .4769,8.0818\H,0,3.2985,-1.7729,7.0634\H,0,0.3889,-0.5409,4.1568\H,0,-
 1.0193,1.8173,3.6252\C,0,1.8567,-2.5921,5.0414\C,0,1.8756,-3.7347,4.64
 3\C,0,1.8685,-5.0677,4.2018\C,0,2.4691,-6.0921,4.9506\C,0,2.4067,-7.39
 21,4.4857\C,0,1.7524,-7.656,3.2909\N,0,1.1911,-6.6783,2.5754\C,0,1.241
 7,-5.4189,3.0021\H,0,2.9658,-5.8567,5.8789\H,0,2.8562,-8.198,5.0428\H,
 0,1.6725,-8.6635,2.8906\H,0,0.7683,-4.6622,2.3784\C,0,-4.8178,2.9557,-
 2.3085\C,0,-4.3555,3.3544,-3.3531\C,0,-3.9093,3.9211,-4.5649\C,0,-4.45
 69,3.5419,-5.7746\C,0,-4.1138,4.2075,-6.9571\C,0,-3.2452,5.2704,-6.950
 8\C,0,-2.6537,5.6842,-5.744\C,0,-1.7802,6.7908,-5.6435\C,0,-1.2403,7.1
 289,-4.4358\N,0,-1.4774,6.4034,-3.3131\C,0,-2.3012,5.3729,-3.3651\C,0,
 -2.9556,4.9824,-4.5419\H,0,-5.1787,2.7404,-5.8002\H,0,-4.5706,3.8942,-
 7.8835\H,0,-3.0149,5.8031,-7.86\H,0,-1.5522,7.3689,-6.5248\H,0,-0.5919
 ,7.9912,-4.3173\H,0,-2.4642,4.8101,-2.4482\C,0,-5.4388,2.5607,-1.1026\
 C,0,-6.3947,3.4326,-0.5496\C,0,-7.0887,3.1021,0.5931\C,0,-6.81,1.8812,
 1.1927\N,0,-7.3627,1.3135,2.3104\C,0,-6.7965,0.0875,2.5212\C,0,-7.0622
 ,-0.8492,3.514\C,0,-6.3486,-2.026,3.4981\C,0,-5.371,-2.273,2.515\C,0,-
 5.0996,-1.3327,1.5205\C,0,-5.8198,-0.1509,1.5198\C,0,-5.8327,1.004,0.6
 601\C,0,-5.1459,1.3432,-0.4956\H,0,-6.5965,4.3682,-1.0483\H,0,-7.8364,
 3.7655,0.9984\H,0,-8.1085,1.7101,2.858\H,0,-7.81,-0.6645,4.27\H,0,-6.5
 338,-2.7778,4.2503\H,0,-4.3555,-1.5335,0.7667\H,0,-4.4136,0.6789,-0.92
 53\C,0,-4.6705,-3.4917,2.5404\C,0,-4.0761,-4.5453,2.57\C,0,-3.3742,-5.
 7615,2.5882\C,0,-3.8313,-6.8724,3.3138\C,0,-3.0966,-8.043,3.2861\C,0,-
 1.922,-8.092,2.5491\N,0,-1.4862,-7.0313,1.8652\C,0,-2.1806,-5.8964,1.8
 721\H,0,-4.747,-6.8036,3.8801\H,0,-3.4268,-8.9127,3.8307\H,0,-1.3116,-
 8.9898,2.5009\H,0,-1.7822,-5.0651,1.2919\C,0,1.118,2.712,-5.4089\C,0,2
 .0313,3.401,-5.0151\C,0,3.0673,4.2941,-4.6722\C,0,4.3368,4.1486,-5.195
 9\C,0,5.3186,5.1217,-4.9771\C,0,5.0457,6.2616,-4.2629\C,0,3.7706,6.446
 4,-3.6996\C,0,3.3941,7.6072,-2.9865\C,0,2.1386,7.7096,-2.4599\N,0,1.23
 41,6.7009,-2.5528\C,0,1.5432,5.6104,-3.2302\C,0,2.7804,5.4364,-3.8663\
 H,0,4.5618,3.287,-5.805\H,0,6.2969,4.9828,-5.4114\H,0,5.7944,7.0273,-4
 .134\H,0,4.1022,8.4121,-2.8706\H,0,1.8064,8.6013,-1.9377\H,0,0.7976,4.
 82,-3.282\C,0,0.0467,1.9759,-5.9627\C,0,-0.6653,2.5698,-7.0212\C,0,-1.
 6906,1.9053,-7.6566\C,0,-2.0091,0.6281,-7.2148\N,0,-2.961,-0.2416,-7.6
 782\C,0,-2.9055,-1.3996,-6.9541\C,0,-3.6594,-2.5606,-7.0856\C,0,-3.396
 ,-3.6017,-6.2247\C,0,-2.4023,-3.494,-5.2327\C,0,-1.6487,-2.3279,-5.095
 1\C,0,-1.8966,-1.2793,-5.9635\C,0,-1.3155,0.0267,-6.1353\C,0,-0.2798,0
 .7021,-5.5076\H,0,-0.3824,3.5585,-7.3484\H,0,-2.217,2.3583,-8.4819\H,0
 ,-3.5674,-0.0776,-8.4648\H,0,-4.4223,-2.6479,-7.8441\H,0,-3.9576,-4.52
 01,-6.3034\H,0,-0.8844,-2.2571,-4.338\H,0,0.2706,0.2517,-4.6975\C,0,-2
 .1652,-4.5882,-4.3822\C,0,-1.9628,-5.5375,-3.6597\C,0,-1.7048,-6.6314,
 -2.8176\C,0,-2.126,-7.931,-3.1387\C,0,-1.8262,-8.9681,-2.2753\C,0,-1.1
 208,-8.7014,-1.1107\N,0,-0.7292,-7.4624,-0.8035\C,0,-1.0044,-6.4493,-1
 .6208\H,0,-2.6723,-8.1076,-4.052\H,0,-2.1337,-9.9766,-2.4994\H,0,-0.86
 2,-9.4859,-0.4044\H,0,-0.6588,-5.4604,-1.3226\\Version=ES64L-G16RevC.0
 1\State=1-A\HF=-5516.31697\RMSD=3.388e-09\Dipole=0.4030174,-3.8383413,
 0.6019421\Quadrupole=-165.5412458,302.8223332,-137.2810874,-28.4326643
 ,-0.3517093,-80.8454141\PG=C01 [X(C120H68N12Pd2)]\\@
 The archive entry for this job was punched.


 I do not feel obliged to believe that the same God who
 has endowed us with sense, reason, and intellect has
 intended us to forgo their use.
                   --Galileo Galilei
 Job cpu time:       3 days  4 hours 38 minutes 13.6 seconds.
 Elapsed time:       0 days  2 hours 26 minutes 44.3 seconds.
 File lengths (MBytes):  RWF=   6396 Int=      0 D2E=      0 Chk=    298 Scr=      2
 Normal termination of Gaussian 16 at Fri Feb 26 12:53:46 2021.
