 Entering Gaussian System, Link 0=g16
 Initial command:
 /apps/gaussian/g16-c01-avx/g16/l1.exe "/rds/general/ephemeral/user/atarzia/ephemeral/unsymm/single_point_dft/s_4b3_d/Gau-875375.inp" -scrdir="/rds/general/ephemeral/user/atarzia/ephemeral/unsymm/single_point_dft/s_4b3_d/"
 Entering Link 1 = /apps/gaussian/g16-c01-avx/g16/l1.exe PID=    875386.
  
 Copyright (c) 1988-2019, Gaussian, Inc.  All Rights Reserved.
  
 This is part of the Gaussian(R) 16 program.  It is based on
 the Gaussian(R) 09 system (copyright 2009, Gaussian, Inc.),
 the Gaussian(R) 03 system (copyright 2003, Gaussian, Inc.),
 the Gaussian(R) 98 system (copyright 1998, Gaussian, Inc.),
 the Gaussian(R) 94 system (copyright 1995, Gaussian, Inc.),
 the Gaussian 92(TM) system (copyright 1992, Gaussian, Inc.),
 the Gaussian 90(TM) system (copyright 1990, Gaussian, Inc.),
 the Gaussian 88(TM) system (copyright 1988, Gaussian, Inc.),
 the Gaussian 86(TM) system (copyright 1986, Carnegie Mellon
 University), and the Gaussian 82(TM) system (copyright 1983,
 Carnegie Mellon University). Gaussian is a federally registered
 trademark of Gaussian, Inc.
  
 This software contains proprietary and confidential information,
 including trade secrets, belonging to Gaussian, Inc.
  
 This software is provided under written license and may be
 used, copied, transmitted, or stored only in accord with that
 written license.
  
 The following legend is applicable only to US Government
 contracts under FAR:
  
                    RESTRICTED RIGHTS LEGEND
  
 Use, reproduction and disclosure by the US Government is
 subject to restrictions as set forth in subparagraphs (a)
 and (c) of the Commercial Computer Software - Restricted
 Rights clause in FAR 52.227-19.
  
 Gaussian, Inc.
 340 Quinnipiac St., Bldg. 40, Wallingford CT 06492
  
  
 ---------------------------------------------------------------
 Warning -- This program may not be used in any manner that
 competes with the business of Gaussian, Inc. or will provide
 assistance to any competitor of Gaussian, Inc.  The licensee
 of this program is prohibited from giving any competitor of
 Gaussian, Inc. access to this program.  By using this program,
 the user acknowledges that Gaussian, Inc. is engaged in the
 business of creating and licensing software in the field of
 computational chemistry and represents and warrants to the
 licensee that it is not a competitor of Gaussian, Inc. and that
 it will not use this program in any manner prohibited above.
 ---------------------------------------------------------------
  

 Cite this work as:
 Gaussian 16, Revision C.01,
 M. J. Frisch, G. W. Trucks, H. B. Schlegel, G. E. Scuseria, 
 M. A. Robb, J. R. Cheeseman, G. Scalmani, V. Barone, 
 G. A. Petersson, H. Nakatsuji, X. Li, M. Caricato, A. V. Marenich, 
 J. Bloino, B. G. Janesko, R. Gomperts, B. Mennucci, H. P. Hratchian, 
 J. V. Ortiz, A. F. Izmaylov, J. L. Sonnenberg, D. Williams-Young, 
 F. Ding, F. Lipparini, F. Egidi, J. Goings, B. Peng, A. Petrone, 
 T. Henderson, D. Ranasinghe, V. G. Zakrzewski, J. Gao, N. Rega, 
 G. Zheng, W. Liang, M. Hada, M. Ehara, K. Toyota, R. Fukuda, 
 J. Hasegawa, M. Ishida, T. Nakajima, Y. Honda, O. Kitao, H. Nakai, 
 T. Vreven, K. Throssell, J. A. Montgomery, Jr., J. E. Peralta, 
 F. Ogliaro, M. J. Bearpark, J. J. Heyd, E. N. Brothers, K. N. Kudin, 
 V. N. Staroverov, T. A. Keith, R. Kobayashi, J. Normand, 
 K. Raghavachari, A. P. Rendell, J. C. Burant, S. S. Iyengar, 
 J. Tomasi, M. Cossi, J. M. Millam, M. Klene, C. Adamo, R. Cammi, 
 J. W. Ochterski, R. L. Martin, K. Morokuma, O. Farkas, 
 J. B. Foresman, and D. J. Fox, Gaussian, Inc., Wallingford CT, 2019.
 
 ******************************************
 Gaussian 16:  ES64L-G16RevC.01  3-Jul-2019
                26-Feb-2021 
 ******************************************
 %chk=_s_4b3_d.chk
 %mem=60000mb
 %nprocshared=32
 Will use up to   32 processors via shared memory.
 ----------------------------------------------------------------------
 #P PBE1PBE/Def2SVP SP SCF=(YQC,MaxCycle=900) int=(Grid=Superfinegrid) 
 EmpiricalDispersion=GD3BJ SCRF=(PCM,Solvent=DiMethylSulfoxide)
 ----------------------------------------------------------------------
 1/38=1,172=1/1;
 2/12=2,17=6,18=5,40=1/2;
 3/5=43,7=101,11=2,25=1,30=1,70=2201,72=21,74=-13,75=-7,124=41/1,2,3;
 4//1;
 5/5=2,7=900,8=4,13=1,38=1,53=21/8,2,8;
 6/7=2,8=2,9=2,10=2,28=1/1;
 99/5=1,9=1/99;
 Leave Link    1 at Fri Feb 26 10:27:02 2021, MaxMem=  7864320000 cpu:               4.4 elap:               0.2
 (Enter /apps/gaussian/g16-c01-avx/g16/l101.exe)
 --------
 _s_4b3_d
 --------
 Symbolic Z-matrix:
 Charge =  4 Multiplicity = 1
 Pd                   -0.5669    6.9392    0.0269 
 Pd                    0.5147   -6.9501   -0.0293 
 C                     5.0753   -2.6151   -0.171 
 C                     5.3142   -3.8013   -0.1525 
 C                     5.7042   -5.1532   -0.1397 
 C                     7.0526   -5.4676   -0.1391 
 C                     7.4851   -6.7967   -0.1387 
 C                     6.5829   -7.8318   -0.1374 
 C                     5.2033   -7.5602   -0.1309 
 C                     4.226    -8.5818   -0.1226 
 C                     2.9015   -8.2551   -0.1068 
 N                     2.4819   -6.9637   -0.0968 
 C                     3.3596   -5.9833   -0.1089 
 C                     4.7458   -6.2102   -0.1298 
 H                     7.7802   -4.6705   -0.144 
 H                     8.5443   -7.0036   -0.1412 
 H                     6.9182   -8.8569   -0.1396 
 H                     4.5408   -9.6133   -0.127 
 H                     2.1256   -9.0263   -0.1008 
 H                     2.9736   -4.9692   -0.0981 
 C                     4.7916   -1.2356   -0.1825 
 C                     5.7476   -0.3266    0.2869 
 C                     5.4769    1.0245    0.2913 
 C                     4.2432    1.4934   -0.1729 
 C                     3.2933    0.5858   -0.6573 
 C                     3.5648   -0.7638   -0.6626 
 H                     6.6967   -0.692     0.6491 
 H                     6.2124    1.7246    0.6576 
 H                     2.3517    0.955    -1.0316 
 H                     2.8412   -1.4663   -1.0438 
 C                     3.9372    2.8675   -0.1447 
 C                     3.639     4.0391   -0.1133 
 C                     3.2195    5.3825   -0.0735 
 C                     4.1196    6.4578   -0.0386 
 C                     3.6217    7.7472   -0.0029 
 C                     2.248     7.95      0.0018 
 N                     1.3979    6.9261   -0.0271 
 C                     1.8524    5.6737   -0.0651 
 H                     5.1824    6.2719   -0.0421 
 H                     4.2885    8.5938    0.022 
 H                     1.817     8.944     0.0291 
 H                     1.1128    4.8666   -0.0874 
 C                    -0.1559    2.9485    4.8713 
 C                    -0.2513    4.1442    5.0327 
 C                    -0.3579    5.5149    5.3288 
 C                    -0.3779    5.9221    6.6523 
 C                    -0.48      7.2739    6.9916 
 C                    -0.5648    8.2405    6.0199 
 C                    -0.5506    7.874     4.6626 
 C                    -0.6376    8.8216    3.6168 
 C                    -0.6222    8.4036    2.3184 
 N                    -0.5244    7.0897    1.9893 
 C                    -0.4398    6.1764    2.9329 
 C                    -0.4465    6.4995    4.2996 
 H                    -0.3118    5.1803    7.4335 
 H                    -0.4915    7.5537    8.0339 
 H                    -0.6433    9.2834    6.2835 
 H                    -0.7166    9.8694    3.8593 
 H                    -0.6886    9.116     1.4907 
 H                    -0.3639    5.141     2.6178 
 C                    -0.0467    1.5566    4.6913 
 C                    -0.1098    0.7097    5.8053 
 C                    -0.0051   -0.655     5.6476 
 C                     0.1644   -1.2001    4.3703 
 C                     0.2306   -0.3531    3.2566 
 C                     0.1268    1.0101    3.4145 
 H                    -0.2417    1.1341    6.7892 
 H                    -0.0544   -1.3068    6.5067 
 H                     0.3674   -0.7832    2.278 
 H                     0.1834    1.6658    2.5606 
 C                     0.2677   -2.5907    4.1802 
 C                     0.3573   -3.7787    3.9713 
 C                     0.458    -5.1441    3.646 
 C                     0.5412   -6.155     4.615 
 C                     0.6377   -7.4714    4.2031 
 C                     0.6475   -7.7646    2.8459 
 N                     0.5671   -6.8016    1.9302 
 C                     0.4758   -5.5249    2.3008 
 H                     0.5299   -5.8998    5.6632 
 H                     0.7043   -8.2699    4.9242 
 H                     0.7207   -8.7823    2.4809 
 H                     0.4144   -4.7697    1.5102 
 C                    -4.649    -3.3772    0.2491 
 C                    -4.7056   -4.586     0.2691 
 C                    -4.8816   -5.9813    0.2926 
 C                    -6.1611   -6.501     0.3944 
 C                    -6.3818   -7.881     0.4111 
 C                    -5.3335   -8.7639    0.3273 
 C                    -4.0164   -8.282     0.227 
 C                    -2.8958   -9.1399    0.1414 
 C                    -1.641    -8.6119    0.0537 
 N                    -1.4264   -7.271     0.0472 
 C                    -2.4429   -6.4386    0.121 
 C                    -3.7741   -6.8775    0.2107 
 H                    -7.0011   -5.8263    0.4583 
 H                    -7.3931   -8.2495    0.4897 
 H                    -5.5058   -9.8286    0.3381 
 H                    -3.0468   -10.2077   0.1481 
 H                    -0.7574   -9.2531   -0.0153 
 H                    -2.2185   -5.377     0.1134 
 C                    -4.5793   -1.9713    0.2267 
 C                    -5.7054   -1.2143    0.5731 
 C                    -5.6481    0.1624    0.5569 
 C                    -4.462     0.81      0.1943 
 C                    -3.3383    0.0529   -0.1598 
 C                    -3.3962   -1.322    -0.1439 
 H                    -6.6185   -1.7168    0.8547 
 H                    -6.5159    0.7453    0.8263 
 H                    -2.4316    0.559    -0.4498 
 H                    -2.5368   -1.9101   -0.4227 
 C                    -4.3776    2.215     0.1881 
 C                    -4.2676    3.4194    0.1826 
 C                    -4.0629    4.8121    0.1752 
 C                    -5.1168    5.7354    0.2428 
 C                    -4.8254    7.087     0.2294 
 C                    -3.502     7.5006    0.1527 
 N                    -2.5053    6.6204    0.0913 
 C                    -2.7596    5.3121    0.0999 
 H                    -6.1362    5.387     0.303 
 H                    -5.614     7.8202    0.2787 
 H                    -3.2303    8.5496    0.1399 
 H                    -1.9054    4.629     0.0486 
 C                    -0.4323    3.0189   -4.8566 
 C                    -0.5243    4.2155   -5.0123 
 C                    -0.6329    5.5896   -5.2917 
 C                    -0.7045    6.0122   -6.6083 
 C                    -0.8127    7.3689   -6.9267 
 C                    -0.8513    8.3242   -5.941 
 C                    -0.7816    7.9417   -4.5897 
 C                    -0.8166    8.8766   -3.5295 
 C                    -0.745     8.4425   -2.238 
 N                    -0.6397    7.1245   -1.9298 
 C                    -0.6043    6.2227   -2.8873 
 C                    -0.6711    6.5624   -4.2483 
 H                    -0.676     5.2798   -7.4004 
 H                    -0.8661    7.6614   -7.9642 
 H                    -0.9348    9.3705   -6.189 
 H                    -0.9       9.9278   -3.7554 
 H                    -0.7699    9.1446   -1.3996 
 H                    -0.5203    5.1828   -2.5892 
 C                    -0.324     1.6273   -4.6752 
 C                    -0.3055    0.7807   -5.7906 
 C                    -0.199    -0.5831   -5.6254 
 C                    -0.1079   -1.1287   -4.3402 
 C                    -0.1262   -0.282    -3.2247 
 C                    -0.2336    1.0798   -3.3904 
 H                    -0.3754    1.2043   -6.781 
 H                    -0.1851   -1.2348   -6.4858 
 H                    -0.0553   -0.7086   -2.2365 
 H                    -0.2493    1.7365   -2.5351 
 C                     0.0033   -2.5192   -4.1529 
 C                     0.104    -3.7083   -3.9563 
 C                     0.2243   -5.0787   -3.6586 
 C                     0.2622   -6.0698   -4.6507 
 C                     0.3836   -7.3936   -4.2707 
 C                     0.4649   -7.7134   -2.9217 
 N                     0.4283   -6.7692   -1.9841 
 C                     0.312    -5.4858   -2.3242 
 H                     0.197    -5.7938   -5.6917 
 H                     0.4157   -8.1774   -5.0101 
 H                     0.5611   -8.738    -2.5819 
 H                     0.2872   -4.7489   -1.5147 
 
 ITRead=  0  0  0  0  0  0  0  0  0  0  0  0  0  0  0  0  0  0  0  0
 ITRead=  0  0  0  0  0  0  0  0  0  0  0  0  0  0  0  0  0  0  0  0
 ITRead=  0  0  0  0  0  0  0  0  0  0  0  0  0  0  0  0  0  0  0  0
 ITRead=  0  0  0  0  0  0  0  0  0  0  0  0  0  0  0  0  0  0  0  0
 ITRead=  0  0  0  0  0  0  0  0  0  0  0  0  0  0  0  0  0  0  0  0
 ITRead=  0  0  0  0  0  0  0  0  0  0  0  0  0  0  0  0  0  0  0  0
 ITRead=  0  0  0  0  0  0  0  0  0  0  0  0  0  0  0  0  0  0  0  0
 ITRead=  0  0  0  0  0  0  0  0  0  0  0  0  0  0  0  0  0  0  0  0
 ITRead=  0  0
 MicOpt= -1 -1 -1 -1 -1 -1 -1 -1 -1 -1 -1 -1 -1 -1 -1 -1 -1 -1 -1 -1
 MicOpt= -1 -1 -1 -1 -1 -1 -1 -1 -1 -1 -1 -1 -1 -1 -1 -1 -1 -1 -1 -1
 MicOpt= -1 -1 -1 -1 -1 -1 -1 -1 -1 -1 -1 -1 -1 -1 -1 -1 -1 -1 -1 -1
 MicOpt= -1 -1 -1 -1 -1 -1 -1 -1 -1 -1 -1 -1 -1 -1 -1 -1 -1 -1 -1 -1
 MicOpt= -1 -1 -1 -1 -1 -1 -1 -1 -1 -1 -1 -1 -1 -1 -1 -1 -1 -1 -1 -1
 MicOpt= -1 -1 -1 -1 -1 -1 -1 -1 -1 -1 -1 -1 -1 -1 -1 -1 -1 -1 -1 -1
 MicOpt= -1 -1 -1 -1 -1 -1 -1 -1 -1 -1 -1 -1 -1 -1 -1 -1 -1 -1 -1 -1
 MicOpt= -1 -1 -1 -1 -1 -1 -1 -1 -1 -1 -1 -1 -1 -1 -1 -1 -1 -1 -1 -1
 MicOpt= -1 -1
 NAtoms=    162 NQM=      162 NQMF=       0 NMMI=      0 NMMIF=      0
                NMic=       0 NMicF=      0.
                    Isotopes and Nuclear Properties:
 (Nuclear quadrupole moments (NQMom) in fm**2, nuclear magnetic moments (NMagM)
  in nuclear magnetons)

  Atom         1           2           3           4           5           6           7           8           9          10
 IAtWgt=         106         106          12          12          12          12          12          12          12          12
 AtmWgt= 105.9032000 105.9032000  12.0000000  12.0000000  12.0000000  12.0000000  12.0000000  12.0000000  12.0000000  12.0000000
 NucSpn=           0           0           0           0           0           0           0           0           0           0
 AtZEff=  -0.0000000  -0.0000000  -0.0000000  -0.0000000  -0.0000000  -0.0000000  -0.0000000  -0.0000000  -0.0000000  -0.0000000
 NQMom=    0.0000000   0.0000000   0.0000000   0.0000000   0.0000000   0.0000000   0.0000000   0.0000000   0.0000000   0.0000000
 NMagM=    0.0000000   0.0000000   0.0000000   0.0000000   0.0000000   0.0000000   0.0000000   0.0000000   0.0000000   0.0000000
 AtZNuc=  46.0000000  46.0000000   6.0000000   6.0000000   6.0000000   6.0000000   6.0000000   6.0000000   6.0000000   6.0000000

  Atom        11          12          13          14          15          16          17          18          19          20
 IAtWgt=          12          14          12          12           1           1           1           1           1           1
 AtmWgt=  12.0000000  14.0030740  12.0000000  12.0000000   1.0078250   1.0078250   1.0078250   1.0078250   1.0078250   1.0078250
 NucSpn=           0           2           0           0           1           1           1           1           1           1
 AtZEff=  -0.0000000  -0.0000000  -0.0000000  -0.0000000  -0.0000000  -0.0000000  -0.0000000  -0.0000000  -0.0000000  -0.0000000
 NQMom=    0.0000000   2.0440000   0.0000000   0.0000000   0.0000000   0.0000000   0.0000000   0.0000000   0.0000000   0.0000000
 NMagM=    0.0000000   0.4037610   0.0000000   0.0000000   2.7928460   2.7928460   2.7928460   2.7928460   2.7928460   2.7928460
 AtZNuc=   6.0000000   7.0000000   6.0000000   6.0000000   1.0000000   1.0000000   1.0000000   1.0000000   1.0000000   1.0000000

  Atom        21          22          23          24          25          26          27          28          29          30
 IAtWgt=          12          12          12          12          12          12           1           1           1           1
 AtmWgt=  12.0000000  12.0000000  12.0000000  12.0000000  12.0000000  12.0000000   1.0078250   1.0078250   1.0078250   1.0078250
 NucSpn=           0           0           0           0           0           0           1           1           1           1
 AtZEff=  -0.0000000  -0.0000000  -0.0000000  -0.0000000  -0.0000000  -0.0000000  -0.0000000  -0.0000000  -0.0000000  -0.0000000
 NQMom=    0.0000000   0.0000000   0.0000000   0.0000000   0.0000000   0.0000000   0.0000000   0.0000000   0.0000000   0.0000000
 NMagM=    0.0000000   0.0000000   0.0000000   0.0000000   0.0000000   0.0000000   2.7928460   2.7928460   2.7928460   2.7928460
 AtZNuc=   6.0000000   6.0000000   6.0000000   6.0000000   6.0000000   6.0000000   1.0000000   1.0000000   1.0000000   1.0000000

  Atom        31          32          33          34          35          36          37          38          39          40
 IAtWgt=          12          12          12          12          12          12          14          12           1           1
 AtmWgt=  12.0000000  12.0000000  12.0000000  12.0000000  12.0000000  12.0000000  14.0030740  12.0000000   1.0078250   1.0078250
 NucSpn=           0           0           0           0           0           0           2           0           1           1
 AtZEff=  -0.0000000  -0.0000000  -0.0000000  -0.0000000  -0.0000000  -0.0000000  -0.0000000  -0.0000000  -0.0000000  -0.0000000
 NQMom=    0.0000000   0.0000000   0.0000000   0.0000000   0.0000000   0.0000000   2.0440000   0.0000000   0.0000000   0.0000000
 NMagM=    0.0000000   0.0000000   0.0000000   0.0000000   0.0000000   0.0000000   0.4037610   0.0000000   2.7928460   2.7928460
 AtZNuc=   6.0000000   6.0000000   6.0000000   6.0000000   6.0000000   6.0000000   7.0000000   6.0000000   1.0000000   1.0000000

  Atom        41          42          43          44          45          46          47          48          49          50
 IAtWgt=           1           1          12          12          12          12          12          12          12          12
 AtmWgt=   1.0078250   1.0078250  12.0000000  12.0000000  12.0000000  12.0000000  12.0000000  12.0000000  12.0000000  12.0000000
 NucSpn=           1           1           0           0           0           0           0           0           0           0
 AtZEff=  -0.0000000  -0.0000000  -0.0000000  -0.0000000  -0.0000000  -0.0000000  -0.0000000  -0.0000000  -0.0000000  -0.0000000
 NQMom=    0.0000000   0.0000000   0.0000000   0.0000000   0.0000000   0.0000000   0.0000000   0.0000000   0.0000000   0.0000000
 NMagM=    2.7928460   2.7928460   0.0000000   0.0000000   0.0000000   0.0000000   0.0000000   0.0000000   0.0000000   0.0000000
 AtZNuc=   1.0000000   1.0000000   6.0000000   6.0000000   6.0000000   6.0000000   6.0000000   6.0000000   6.0000000   6.0000000

  Atom        51          52          53          54          55          56          57          58          59          60
 IAtWgt=          12          14          12          12           1           1           1           1           1           1
 AtmWgt=  12.0000000  14.0030740  12.0000000  12.0000000   1.0078250   1.0078250   1.0078250   1.0078250   1.0078250   1.0078250
 NucSpn=           0           2           0           0           1           1           1           1           1           1
 AtZEff=  -0.0000000  -0.0000000  -0.0000000  -0.0000000  -0.0000000  -0.0000000  -0.0000000  -0.0000000  -0.0000000  -0.0000000
 NQMom=    0.0000000   2.0440000   0.0000000   0.0000000   0.0000000   0.0000000   0.0000000   0.0000000   0.0000000   0.0000000
 NMagM=    0.0000000   0.4037610   0.0000000   0.0000000   2.7928460   2.7928460   2.7928460   2.7928460   2.7928460   2.7928460
 AtZNuc=   6.0000000   7.0000000   6.0000000   6.0000000   1.0000000   1.0000000   1.0000000   1.0000000   1.0000000   1.0000000

  Atom        61          62          63          64          65          66          67          68          69          70
 IAtWgt=          12          12          12          12          12          12           1           1           1           1
 AtmWgt=  12.0000000  12.0000000  12.0000000  12.0000000  12.0000000  12.0000000   1.0078250   1.0078250   1.0078250   1.0078250
 NucSpn=           0           0           0           0           0           0           1           1           1           1
 AtZEff=  -0.0000000  -0.0000000  -0.0000000  -0.0000000  -0.0000000  -0.0000000  -0.0000000  -0.0000000  -0.0000000  -0.0000000
 NQMom=    0.0000000   0.0000000   0.0000000   0.0000000   0.0000000   0.0000000   0.0000000   0.0000000   0.0000000   0.0000000
 NMagM=    0.0000000   0.0000000   0.0000000   0.0000000   0.0000000   0.0000000   2.7928460   2.7928460   2.7928460   2.7928460
 AtZNuc=   6.0000000   6.0000000   6.0000000   6.0000000   6.0000000   6.0000000   1.0000000   1.0000000   1.0000000   1.0000000

  Atom        71          72          73          74          75          76          77          78          79          80
 IAtWgt=          12          12          12          12          12          12          14          12           1           1
 AtmWgt=  12.0000000  12.0000000  12.0000000  12.0000000  12.0000000  12.0000000  14.0030740  12.0000000   1.0078250   1.0078250
 NucSpn=           0           0           0           0           0           0           2           0           1           1
 AtZEff=  -0.0000000  -0.0000000  -0.0000000  -0.0000000  -0.0000000  -0.0000000  -0.0000000  -0.0000000  -0.0000000  -0.0000000
 NQMom=    0.0000000   0.0000000   0.0000000   0.0000000   0.0000000   0.0000000   2.0440000   0.0000000   0.0000000   0.0000000
 NMagM=    0.0000000   0.0000000   0.0000000   0.0000000   0.0000000   0.0000000   0.4037610   0.0000000   2.7928460   2.7928460
 AtZNuc=   6.0000000   6.0000000   6.0000000   6.0000000   6.0000000   6.0000000   7.0000000   6.0000000   1.0000000   1.0000000

  Atom        81          82          83          84          85          86          87          88          89          90
 IAtWgt=           1           1          12          12          12          12          12          12          12          12
 AtmWgt=   1.0078250   1.0078250  12.0000000  12.0000000  12.0000000  12.0000000  12.0000000  12.0000000  12.0000000  12.0000000
 NucSpn=           1           1           0           0           0           0           0           0           0           0
 AtZEff=  -0.0000000  -0.0000000  -0.0000000  -0.0000000  -0.0000000  -0.0000000  -0.0000000  -0.0000000  -0.0000000  -0.0000000
 NQMom=    0.0000000   0.0000000   0.0000000   0.0000000   0.0000000   0.0000000   0.0000000   0.0000000   0.0000000   0.0000000
 NMagM=    2.7928460   2.7928460   0.0000000   0.0000000   0.0000000   0.0000000   0.0000000   0.0000000   0.0000000   0.0000000
 AtZNuc=   1.0000000   1.0000000   6.0000000   6.0000000   6.0000000   6.0000000   6.0000000   6.0000000   6.0000000   6.0000000

  Atom        91          92          93          94          95          96          97          98          99         100
 IAtWgt=          12          14          12          12           1           1           1           1           1           1
 AtmWgt=  12.0000000  14.0030740  12.0000000  12.0000000   1.0078250   1.0078250   1.0078250   1.0078250   1.0078250   1.0078250
 NucSpn=           0           2           0           0           1           1           1           1           1           1
 AtZEff=  -0.0000000  -0.0000000  -0.0000000  -0.0000000  -0.0000000  -0.0000000  -0.0000000  -0.0000000  -0.0000000  -0.0000000
 NQMom=    0.0000000   2.0440000   0.0000000   0.0000000   0.0000000   0.0000000   0.0000000   0.0000000   0.0000000   0.0000000
 NMagM=    0.0000000   0.4037610   0.0000000   0.0000000   2.7928460   2.7928460   2.7928460   2.7928460   2.7928460   2.7928460
 AtZNuc=   6.0000000   7.0000000   6.0000000   6.0000000   1.0000000   1.0000000   1.0000000   1.0000000   1.0000000   1.0000000

  Atom       101         102         103         104         105         106         107         108         109         110
 IAtWgt=          12          12          12          12          12          12           1           1           1           1
 AtmWgt=  12.0000000  12.0000000  12.0000000  12.0000000  12.0000000  12.0000000   1.0078250   1.0078250   1.0078250   1.0078250
 NucSpn=           0           0           0           0           0           0           1           1           1           1
 AtZEff=  -0.0000000  -0.0000000  -0.0000000  -0.0000000  -0.0000000  -0.0000000  -0.0000000  -0.0000000  -0.0000000  -0.0000000
 NQMom=    0.0000000   0.0000000   0.0000000   0.0000000   0.0000000   0.0000000   0.0000000   0.0000000   0.0000000   0.0000000
 NMagM=    0.0000000   0.0000000   0.0000000   0.0000000   0.0000000   0.0000000   2.7928460   2.7928460   2.7928460   2.7928460
 AtZNuc=   6.0000000   6.0000000   6.0000000   6.0000000   6.0000000   6.0000000   1.0000000   1.0000000   1.0000000   1.0000000

  Atom       111         112         113         114         115         116         117         118         119         120
 IAtWgt=          12          12          12          12          12          12          14          12           1           1
 AtmWgt=  12.0000000  12.0000000  12.0000000  12.0000000  12.0000000  12.0000000  14.0030740  12.0000000   1.0078250   1.0078250
 NucSpn=           0           0           0           0           0           0           2           0           1           1
 AtZEff=  -0.0000000  -0.0000000  -0.0000000  -0.0000000  -0.0000000  -0.0000000  -0.0000000  -0.0000000  -0.0000000  -0.0000000
 NQMom=    0.0000000   0.0000000   0.0000000   0.0000000   0.0000000   0.0000000   2.0440000   0.0000000   0.0000000   0.0000000
 NMagM=    0.0000000   0.0000000   0.0000000   0.0000000   0.0000000   0.0000000   0.4037610   0.0000000   2.7928460   2.7928460
 AtZNuc=   6.0000000   6.0000000   6.0000000   6.0000000   6.0000000   6.0000000   7.0000000   6.0000000   1.0000000   1.0000000

  Atom       121         122         123         124         125         126         127         128         129         130
 IAtWgt=           1           1          12          12          12          12          12          12          12          12
 AtmWgt=   1.0078250   1.0078250  12.0000000  12.0000000  12.0000000  12.0000000  12.0000000  12.0000000  12.0000000  12.0000000
 NucSpn=           1           1           0           0           0           0           0           0           0           0
 AtZEff=  -0.0000000  -0.0000000  -0.0000000  -0.0000000  -0.0000000  -0.0000000  -0.0000000  -0.0000000  -0.0000000  -0.0000000
 NQMom=    0.0000000   0.0000000   0.0000000   0.0000000   0.0000000   0.0000000   0.0000000   0.0000000   0.0000000   0.0000000
 NMagM=    2.7928460   2.7928460   0.0000000   0.0000000   0.0000000   0.0000000   0.0000000   0.0000000   0.0000000   0.0000000
 AtZNuc=   1.0000000   1.0000000   6.0000000   6.0000000   6.0000000   6.0000000   6.0000000   6.0000000   6.0000000   6.0000000

  Atom       131         132         133         134         135         136         137         138         139         140
 IAtWgt=          12          14          12          12           1           1           1           1           1           1
 AtmWgt=  12.0000000  14.0030740  12.0000000  12.0000000   1.0078250   1.0078250   1.0078250   1.0078250   1.0078250   1.0078250
 NucSpn=           0           2           0           0           1           1           1           1           1           1
 AtZEff=  -0.0000000  -0.0000000  -0.0000000  -0.0000000  -0.0000000  -0.0000000  -0.0000000  -0.0000000  -0.0000000  -0.0000000
 NQMom=    0.0000000   2.0440000   0.0000000   0.0000000   0.0000000   0.0000000   0.0000000   0.0000000   0.0000000   0.0000000
 NMagM=    0.0000000   0.4037610   0.0000000   0.0000000   2.7928460   2.7928460   2.7928460   2.7928460   2.7928460   2.7928460
 AtZNuc=   6.0000000   7.0000000   6.0000000   6.0000000   1.0000000   1.0000000   1.0000000   1.0000000   1.0000000   1.0000000

  Atom       141         142         143         144         145         146         147         148         149         150
 IAtWgt=          12          12          12          12          12          12           1           1           1           1
 AtmWgt=  12.0000000  12.0000000  12.0000000  12.0000000  12.0000000  12.0000000   1.0078250   1.0078250   1.0078250   1.0078250
 NucSpn=           0           0           0           0           0           0           1           1           1           1
 AtZEff=  -0.0000000  -0.0000000  -0.0000000  -0.0000000  -0.0000000  -0.0000000  -0.0000000  -0.0000000  -0.0000000  -0.0000000
 NQMom=    0.0000000   0.0000000   0.0000000   0.0000000   0.0000000   0.0000000   0.0000000   0.0000000   0.0000000   0.0000000
 NMagM=    0.0000000   0.0000000   0.0000000   0.0000000   0.0000000   0.0000000   2.7928460   2.7928460   2.7928460   2.7928460
 AtZNuc=   6.0000000   6.0000000   6.0000000   6.0000000   6.0000000   6.0000000   1.0000000   1.0000000   1.0000000   1.0000000

  Atom       151         152         153         154         155         156         157         158         159         160
 IAtWgt=          12          12          12          12          12          12          14          12           1           1
 AtmWgt=  12.0000000  12.0000000  12.0000000  12.0000000  12.0000000  12.0000000  14.0030740  12.0000000   1.0078250   1.0078250
 NucSpn=           0           0           0           0           0           0           2           0           1           1
 AtZEff=  -0.0000000  -0.0000000  -0.0000000  -0.0000000  -0.0000000  -0.0000000  -0.0000000  -0.0000000  -0.0000000  -0.0000000
 NQMom=    0.0000000   0.0000000   0.0000000   0.0000000   0.0000000   0.0000000   2.0440000   0.0000000   0.0000000   0.0000000
 NMagM=    0.0000000   0.0000000   0.0000000   0.0000000   0.0000000   0.0000000   0.4037610   0.0000000   2.7928460   2.7928460
 AtZNuc=   6.0000000   6.0000000   6.0000000   6.0000000   6.0000000   6.0000000   7.0000000   6.0000000   1.0000000   1.0000000

  Atom       161         162
 IAtWgt=           1           1
 AtmWgt=   1.0078250   1.0078250
 NucSpn=           1           1
 AtZEff=  -0.0000000  -0.0000000
 NQMom=    0.0000000   0.0000000
 NMagM=    2.7928460   2.7928460
 AtZNuc=   1.0000000   1.0000000
 Leave Link  101 at Fri Feb 26 10:27:02 2021, MaxMem=  7864320000 cpu:              10.6 elap:               0.4
 (Enter /apps/gaussian/g16-c01-avx/g16/l202.exe)
 Stoichiometry    C96H56N8Pd2(4+)
 Framework group  C1[X(C96H56N8Pd2)]
 Deg. of freedom   480
 Full point group                 C1      NOp   1
 Largest Abelian subgroup         C1      NOp   1
 Largest concise Abelian subgroup C1      NOp   1
                         Standard orientation:                         
 ---------------------------------------------------------------------
 Center     Atomic      Atomic             Coordinates (Angstroms)
 Number     Number       Type             X           Y           Z
 ---------------------------------------------------------------------
      1         46           0        6.965859   -0.005191    0.014942
      2         46           0       -6.965466   -0.046467   -0.031512
      3          6           0       -3.000222   -3.381688    3.541234
      4          6           0       -4.201475   -3.464316    3.662264
      5          6           0       -5.579733   -3.642302    3.882777
      6          6           0       -5.998587   -4.514491    4.873170
      7          6           0       -7.357432   -4.730966    5.118615
      8          6           0       -8.318831   -4.082108    4.383704
      9          6           0       -7.940209   -3.181827    3.372149
     10          6           0       -8.882281   -2.478909    2.586492
     11          6           0       -8.453039   -1.610801    1.625542
     12          7           0       -7.132792   -1.393090    1.394400
     13          6           0       -6.224005   -2.031090    2.100623
     14          6           0       -6.558574   -2.948822    3.110228
     15          1           0       -5.260808   -5.038731    5.461089
     16          1           0       -7.646505   -5.420379    5.896988
     17          1           0       -9.367006   -4.252087    4.572641
     18          1           0       -9.935233   -2.636697    2.758264
     19          1           0       -9.161222   -1.055231    1.003751
     20          1           0       -5.182836   -1.820674    1.878804
     21          6           0       -1.602760   -3.274213    3.402712
     22          6           0       -0.771466   -3.598908    4.481636
     23          6           0        0.596660   -3.486613    4.361676
     24          6           0        1.160757   -3.045787    3.159665
     25          6           0        0.330387   -2.736438    2.075469
     26          6           0       -1.036305   -2.850013    2.195520
     27          1           0       -1.210090   -3.933986    5.409444
     28          1           0        1.236972   -3.732581    5.195209
     29          1           0        0.772218   -2.415577    1.145494
     30          1           0       -1.679935   -2.622944    1.360896
     31          6           0        2.554563   -2.893550    3.030394
     32          6           0        3.745877   -2.733647    2.897142
     33          6           0        5.117946   -2.496316    2.688841
     34          6           0        6.119572   -3.118696    3.448482
     35          6           0        7.443937   -2.829989    3.175651
     36          6           0        7.753509   -1.931411    2.163265
     37          7           0        6.799214   -1.340128    1.448015
     38          6           0        5.515130   -1.603856    1.689045
     39          1           0        5.851154   -3.812312    4.230124
     40          1           0        8.235806   -3.294338    3.740714
     41          1           0        8.778151   -1.677921    1.917513
     42          1           0        4.768330   -1.091599    1.073578
     43          6           0        2.953336    3.563524    3.290114
     44          6           0        4.152771    3.686047    3.395913
     45          6           0        5.527493    3.908017    3.592702
     46          6           0        5.934489    4.893233    4.476765
     47          6           0        7.290000    5.145619    4.704368
     48          6           0        8.260654    4.422816    4.055449
     49          6           0        7.894699    3.413973    3.147099
     50          6           0        8.846612    2.638003    2.446424
     51          6           0        8.429198    1.675205    1.574879
     52          7           0        7.111803    1.431358    1.353037
     53          6           0        6.194314    2.130471    1.986368
     54          6           0        6.516411    3.143654    2.903986
     55          1           0        5.189485    5.473885    4.998992
     56          1           0        7.569433    5.920808    5.401368
     57          1           0        9.306395    4.618727    4.232456
     58          1           0        9.897286    2.818162    2.609396
     59          1           0        9.144935    1.061375    1.019952
     60          1           0        5.156273    1.897250    1.773809
     61          6           0        1.557230    3.428035    3.170780
     62          6           0        0.717417    4.348935    3.810213
     63          6           0       -0.651230    4.231744    3.703859
     64          6           0       -1.207410    3.189734    2.954034
     65          6           0       -0.367740    2.267010    2.317124
     66          6           0        0.999341    2.383835    2.424194
     67          1           0        1.150442    5.152240    4.387068
     68          1           0       -1.297519    4.942281    4.196580
     69          1           0       -0.806833    1.464745    1.747101
     70          1           0        1.648945    1.672187    1.940601
     71          6           0       -2.601755    3.050489    2.823686
     72          6           0       -3.793041    2.895757    2.682598
     73          6           0       -5.162007    2.655496    2.462402
     74          6           0       -6.176699    3.379605    3.105730
     75          6           0       -7.496452    3.074622    2.828024
     76          6           0       -7.788986    2.064987    1.920767
     77          7           0       -6.822288    1.381483    1.311952
     78          6           0       -5.542504    1.654093    1.563902
     79          1           0       -5.921809    4.160353    3.805330
     80          1           0       -8.297998    3.612768    3.307550
     81          1           0       -8.809151    1.795198    1.674240
     82          1           0       -4.784504    1.062602    1.039765
     83          6           0       -2.999918    3.382430   -3.499079
     84          6           0       -4.200601    3.496868   -3.599403
     85          6           0       -5.577880    3.702219   -3.797705
     86          6           0       -5.996000    4.648686   -4.718003
     87          6           0       -7.354528    4.877613   -4.953332
     88          6           0       -8.316648    4.169131   -4.276689
     89          6           0       -7.939153    3.200947   -3.329504
     90          6           0       -8.882001    2.442173   -2.598502
     91          6           0       -8.453682    1.522139   -1.686867
     92          7           0       -7.133661    1.306895   -1.451660
     93          6           0       -6.224368    1.989509   -2.114106
     94          6           0       -6.557888    2.956824   -3.076311
     95          1           0       -5.257719    5.215637   -5.264273
     96          1           0       -7.642869    5.622119   -5.679464
     97          1           0       -9.364623    4.345524   -4.461143
     98          1           0       -9.934730    2.601610   -2.769918
     99          1           0       -9.161971    0.920901   -1.109385
    100          1           0       -5.183558    1.781334   -1.888751
    101          6           0       -1.603762    3.247427   -3.378931
    102          6           0       -0.761177    4.210678   -3.947563
    103          6           0        0.606836    4.090001   -3.834310
    104          6           0        1.159868    3.002859   -3.148763
    105          6           0        0.317375    2.035418   -2.587023
    106          6           0       -1.048797    2.156173   -2.700816
    107          1           0       -1.190865    5.049644   -4.473928
    108          1           0        1.255689    4.834172   -4.270916
    109          1           0        0.751155    1.194183   -2.070786
    110          1           0       -1.702174    1.410754   -2.277015
    111          6           0        2.553972    2.870367   -3.006963
    112          6           0        3.746088    2.731835   -2.857371
    113          6           0        5.118525    2.519779   -2.627112
    114          6           0        6.121365    3.217722   -3.316274
    115          6           0        7.446052    2.946129   -3.027557
    116          6           0        7.754954    1.995009   -2.064081
    117          7           0        6.799551    1.337206   -1.411063
    118          6           0        5.515133    1.578518   -1.672653
    119          1           0        5.853704    3.952730   -4.059445
    120          1           0        8.238641    3.465240   -3.541590
    121          1           0        8.779507    1.752403   -1.807529
    122          1           0        4.767364    1.012092   -1.107926
    123          6           0        3.048956   -3.556296   -3.344071
    124          6           0        4.249148   -3.673967   -3.445326
    125          6           0        5.627642   -3.882624   -3.630324
    126          6           0        6.055064   -4.844932   -4.529450
    127          6           0        7.416196   -5.082218   -4.740959
    128          6           0        8.371202   -4.366347   -4.061854
    129          6           0        7.983892   -3.378814   -3.138845
    130          6           0        8.918249   -2.608373   -2.408993
    131          6           0        8.479372   -1.664306   -1.527140
    132          7           0        7.157053   -1.434749   -1.322264
    133          6           0        6.255622   -2.130104   -1.981966
    134          6           0        6.600040   -3.124626   -2.911741
    135          1           0        5.322989   -5.420353   -5.074979
    136          1           0        7.712384   -5.840441   -5.449610
    137          1           0        9.420925   -4.551144   -4.226631
    138          1           0        9.972841   -2.776907   -2.558795
    139          1           0        9.180940   -1.054964   -0.950092
    140          1           0        5.212221   -1.908377   -1.783314
    141          6           0        1.653077   -3.420066   -3.225120
    142          6           0        0.808061   -4.225584   -3.998606
    143          6           0       -0.559956   -4.101750   -3.890075
    144          6           0       -1.111513   -3.169532   -3.004371
    145          6           0       -0.266413   -2.364077   -2.230664
    146          6           0        1.099680   -2.487590   -2.340316
    147          1           0        1.236219   -4.944330   -4.680735
    148          1           0       -1.210409   -4.722937   -4.486926
    149          1           0       -0.697639   -1.647486   -1.549419
    150          1           0        1.755261   -1.869300   -1.747889
    151          6           0       -2.506525   -3.030844   -2.879286
    152          6           0       -3.699935   -2.888608   -2.744041
    153          6           0       -5.075663   -2.674124   -2.537975
    154          6           0       -6.066302   -3.392496   -3.223944
    155          6           0       -7.395691   -3.119385   -2.959897
    156          6           0       -7.721398   -2.144446   -2.026039
    157          7           0       -6.777596   -1.465409   -1.377893
    158          6           0       -5.488898   -1.709870   -1.614126
    159          1           0       -5.785640   -4.144718   -3.944707
    160          1           0       -8.179310   -3.654999   -3.470919
    161          1           0       -8.750517   -1.900262   -1.789791
    162          1           0       -4.752633   -1.124065   -1.054060
 ---------------------------------------------------------------------
 Rotational constants (GHZ):           0.0195555           0.0075659           0.0075315
 Leave Link  202 at Fri Feb 26 10:27:03 2021, MaxMem=  7864320000 cpu:               1.8 elap:               0.1
 (Enter /apps/gaussian/g16-c01-avx/g16/l301.exe)
 Standard basis: def2SVP (5D, 7F)
 Ernie: Thresh=  0.10000D-02 Tol=  0.10000D-05 Strict=F.
 There are  1912 symmetry adapted cartesian basis functions of A   symmetry.
 There are  1798 symmetry adapted basis functions of A   symmetry.
  1798 basis functions,  3122 primitive gaussians,  1912 cartesian basis functions
   360 alpha electrons      360 beta electrons
       nuclear repulsion energy     19422.4129884722 Hartrees.
 IExCor= 1009 DFT=T Ex+Corr=PBE1PBE ExCW=0 ScaHFX=  0.250000
 ScaDFX=  0.750000  0.750000  1.000000  1.000000 ScalE2=  1.000000  1.000000
 IRadAn=      7 IRanWt=     -1 IRanGd=            0 ICorTp=0 IEmpDi=141
 NAtoms=  162 NActive=  162 NUniq=  162 SFac= 1.00D+00 NAtFMM=   60 NAOKFM=T Big=T
 Integral buffers will be    131072 words long.
 Raffenetti 2 integral format.
 Two-electron integral symmetry is turned on.
 R6Disp:  Grimme-D3(BJ) Dispersion energy=       -0.2568867540 Hartrees.
 Nuclear repulsion after empirical dispersion term =    19422.1561017181 Hartrees.
 ------------------------------------------------------------------------------
 Polarizable Continuum Model (PCM)
 =================================
 Model                : PCM.
 Atomic radii         : UFF (Universal Force Field).
 Polarization charges : Total charges.
 Charge compensation  : None.
 Solution method      : On-the-fly selection.
 Cavity type          : Scaled VdW (van der Waals Surface) (Alpha=1.100).
 Cavity algorithm     : GePol (No added spheres)
                        Default sphere list used, NSphG=  162.
                        Lebedev-Laikov grids with approx.  5.0 points / Ang**2.
                        Smoothing algorithm: York/Karplus (Gamma=1.0000).
                        Polarization charges: spherical gaussians, with
                                              point-specific exponents (IZeta= 3).
                        Self-potential: point-specific (ISelfS= 7).
                        Self-field    : sphere-specific E.n sum rule (ISelfD= 2).
 Solvent              : DiMethylSulfoxide, Eps=  46.826000 Eps(inf)=   2.007889
 ------------------------------------------------------------------------------
 GePol: Number of generator spheres                  =     162
 GePol: Total number of spheres                      =     162
 GePol: Number of exposed spheres                    =     162 (100.00%)
 GePol: Number of points                             =   12289
 GePol: Average weight of points                     =       0.13
 GePol: Minimum weight of points                     =   0.17D-11
 GePol: Maximum weight of points                     =    0.20577
 GePol: Number of points with low weight             =     953
 GePol: Fraction of low-weight points (<1% of avg)   =       7.75%
 GePol: Cavity surface area                          =   1539.916 Ang**2
 GePol: Cavity volume                                =   1822.842 Ang**3
 Leave Link  301 at Fri Feb 26 10:27:03 2021, MaxMem=  7864320000 cpu:               7.7 elap:               0.3
 (Enter /apps/gaussian/g16-c01-avx/g16/l302.exe)
 NPDir=0 NMtPBC=     1 NCelOv=     1 NCel=       1 NClECP=     1 NCelD=      1
         NCelK=      1 NCelE2=     1 NClLst=     1 CellRange=     0.0.
 One-electron integrals computed using PRISM.
 One-electron integral symmetry used in STVInt
   1 Symmetry operations used in ECPInt.
 ECPInt:  NShTT=  331705 NPrTT= 1228511 LenC2=  178051 LenP2D=  373665.
 LDataN:  DoStor=T MaxTD1= 7 Len=  274
 NBasis=  1798 RedAO= T EigKep=  2.45D-04  NBF=  1798
 NBsUse=  1798 1.00D-06 EigRej= -1.00D+00 NBFU=  1798
 Precomputing XC quadrature grid using
 IXCGrd= 4 IRadAn=           7 IRanWt=          -1 IRanGd=           0 AccXCQ= 0.00D+00.
 Generated NRdTot=       0 NPtTot=           0 NUsed=           0 NTot=          32
 NSgBfM=  1692  1692  1692  1692  1692 MxSgAt=   162 MxSgA2=   162.
 Leave Link  302 at Fri Feb 26 10:27:22 2021, MaxMem=  7864320000 cpu:             563.0 elap:              18.3
 (Enter /apps/gaussian/g16-c01-avx/g16/l303.exe)
 DipDrv:  MaxL=1.
 Leave Link  303 at Fri Feb 26 10:27:23 2021, MaxMem=  7864320000 cpu:              22.1 elap:               0.8
 (Enter /apps/gaussian/g16-c01-avx/g16/l401.exe)
 ExpMin= 3.70D-02 ExpMax= 1.71D+03 ExpMxC= 2.58D+02 IAcc=3 IRadAn=         7 AccDes= 0.00D+00
 Harris functional with IExCor= 1009 and IRadAn=       7 diagonalized for initial guess.
 HarFok:  IExCor= 1009 AccDes= 0.00D+00 IRadAn=         7 IDoV= 1 UseB2=F ITyADJ=14
 ICtDFT=  3500011 ScaDFX=  1.000000  1.000000  1.000000  1.000000
 FoFCou: FMM=F IPFlag=           0 FMFlag=      100000 FMFlg1=        2001
         NFxFlg=           0 DoJE=T BraDBF=F KetDBF=T FulRan=T
         wScrn=  0.000000 ICntrl=       500 IOpCl=  0 I1Cent=   200000004 NGrid=           0
         NMat0=    1 NMatS0=      1 NMatT0=    0 NMatD0=    1 NMtDS0=    0 NMtDT0=    0
 Petite list used in FoFCou.
 Harris En= -4379.35292751684    
 JPrj=0 DoOrth=F DoCkMO=F.
 Leave Link  401 at Fri Feb 26 10:28:00 2021, MaxMem=  7864320000 cpu:            1156.6 elap:              37.3
 (Enter /apps/gaussian/g16-c01-avx/g16/l508.exe)
 Integral symmetry usage will be decided dynamically.
 Tight linear equation convergence will be used.
 RPBE1PBE wavefunction.
 Linear searches until partial convergence.
 Full line searches.
 Fock matrices will be formed incrementally for  20 cycles.
 Inv3:  Mode=1 IEnd=   453058563.
 Iteration    1 A*A^-1 deviation from unit magnitude is 1.67D-14 for  12281.
 Iteration    1 A*A^-1 deviation from orthogonality  is 4.27D-15 for  12280  12244.
 Iteration    1 A^-1*A deviation from unit magnitude is 1.69D-14 for  12281.
 Iteration    1 A^-1*A deviation from orthogonality  is 8.95D-14 for  11982  11951.
 FoFJK:  IHMeth= 1 ICntrl=       0 DoSepK=F KAlg= 0 I1Cent=           0 FoldK=F
 IRaf= 530000000 NMat=       1 IRICut=       1 DoRegI=T DoRafI=F ISym2E= 1 IDoP0=0 IntGTp=1.
 Iteration   1 EE= -4349.76158377756                                    Grad=5.822D+00 Max rot=   44.8204 deg.
 Gradient too large for Newton-Raphson -- use scaled steepest descent instead.
 Alpha Gap=     0.000 HL deriv= 5.17D-02
     ILin= 1 X=0.000D+00 Y=-4.349761583778D+03 DE= 0.00D+00 F= -9.03D+01
 RMSU=  2.50D-03    CP:  9.57D-01
     ILin= 2 X=3.000D-01 Y=-4.365179342985D+03 DE=-1.54D+01 F= -6.91D+00 OKLS=F
 RMSU=  7.01D-04    CP:  9.43D-01  1.30D+00
     ILin= 3 X=4.000D-01 Y=-4.364911872000D+03 DE=-1.52D+01 F=  1.03D+01
     An  expanding polynomial of degree  3 produced  0.3401
 RMSU=  2.64D-05    CP:  9.51D-01  1.13D+00  3.53D-01
 Iteration   2 EE= -4365.28306118388     Delta-E=      -15.521477406313 Grad=3.595D+00 Max rot=   40.1548 deg.
 Gradient too large for Newton-Raphson -- use scaled steepest descent instead.
 Alpha Gap=     0.211 HL deriv= 5.24D-02
     ILin= 1 X=0.000D+00 Y=-4.365283061184D+03 DE= 0.00D+00 F= -5.25D+01
 RMSU=  1.68D-03    CP:  9.38D-01  9.30D-01  5.91D-01 -3.00D+00
     ILin= 2 X=3.000D-01 Y=-4.370596783057D+03 DE=-5.31D+00 F=  8.80D+00 OKLS=T
     Accept linear search using points  1 and  2.
     An  expanding polynomial of degree  2 produced  0.1315
 RMSU=  3.40D-04    CP:  9.46D-01  1.06D+00  1.89D-01 -3.00D+00  4.42D-01
 Iteration   3 EE= -4370.05717246947     Delta-E=       -4.774111285598 Grad=2.103D+00 Max rot=   31.3883 deg.
 Gradient too large for Newton-Raphson -- use scaled steepest descent instead.
 Alpha Gap=     0.425 HL deriv= 1.01D-02
     ILin= 1 X=0.000D+00 Y=-4.370057172469D+03 DE= 0.00D+00 F= -1.44D+01
 RMSU=  7.89D-04    CP:  9.34D-01  9.44D-01  1.06D-01 -3.00D+00  7.66D-01
                    CP:  8.82D-01
     ILin= 2 X=3.000D-01 Y=-4.372831193553D+03 DE=-2.77D+00 F= -3.30D+00 OKLS=F
 RMSU=  3.40D-04    CP:  9.26D-01  8.60D-01  1.23D-01 -3.00D+00  9.31D-01
                    CP:  6.26D-01  1.56D+00
     ILin= 3 X=5.000D-01 Y=-4.372817209128D+03 DE=-2.76D+00 F=  2.74D+00
     An  expanding polynomial of degree  3 produced  0.3981
 RMSU=  1.18D-05    CP:  9.30D-01  9.03D-01  1.08D-01 -3.00D+00  8.53D-01
                    CP:  7.72D-01  1.30D+00  4.04D-01
 Iteration   4 EE= -4372.97701228914     Delta-E=       -2.919839819660 Grad=1.121D+00 Max rot=   10.6769 deg.
 Gradient too large for Newton-Raphson -- use scaled steepest descent instead.
 Alpha Gap=     0.243 HL deriv= 9.98D-04
     ILin= 1 X=0.000D+00 Y=-4.372977012289D+03 DE= 0.00D+00 F= -5.66D+00
 RMSU=  4.21D-04    CP:  9.26D-01  8.22D-01  9.27D-03 -3.00D+00  8.33D-01
                    CP:  6.67D-01  1.29D+00  4.31D-01 -1.71D+00
     ILin= 2 X=2.000D-01 Y=-4.373954711266D+03 DE=-9.78D-01 F= -4.09D+00 OKLS=F
 RMSU=  5.72D-05    CP:  9.24D-01  7.80D-01 -3.18D-02 -3.00D+00  8.16D-01
                    CP:  6.07D-01  1.27D+00  4.88D-01 -3.00D+00  1.46D+00
     ILin= 3 X=3.000D-01 Y=-4.374322614881D+03 DE=-1.35D+00 F= -3.27D+00
 RMSU=  1.09D-04    CP:  9.20D-01  6.95D-01 -9.99D-02 -3.00D+00  7.71D-01
                    CP:  4.83D-01  1.20D+00  6.65D-01 -3.00D+00  2.24D+00
                    CP:  3.00D+00
     ILin= 4 X=5.000D-01 Y=-4.374804461923D+03 DE=-1.83D+00 F= -1.51D+00
 RMSU=  2.62D-05    CP:  9.18D-01  6.53D-01 -1.28D-01 -3.00D+00  7.43D-01
                    CP:  4.23D-01  1.16D+00  7.73D-01 -3.00D+00  2.52D+00
                    CP:  3.00D+00  2.35D+00
     ILin= 5 X=6.000D-01 Y=-4.374905824766D+03 DE=-1.93D+00 F= -4.97D-01
 RMSU=  4.61D-04    CP:  9.14D-01  5.35D-01 -1.86D-01 -3.00D+00  6.46D-01
                    CP:  2.75D-01  1.01D+00  1.11D+00 -3.00D+00  2.91D+00
                    CP:  3.00D+00  3.00D+00  3.00D+00
     ILin= 6 X=9.000D-01 Y=-4.374517003480D+03 DE=-1.54D+00 F=  3.22D+00
     An  expanding polynomial of degree  6 produced  0.6463
     Minimum is close to point  5 DX=  4.63D-02 DF= -1.18D-02 DXR=  7.17D-02 DFR=  6.10D-03 which will be used.
 Iteration   5 EE= -4374.90582476587     Delta-E=       -1.928812476734 Grad=7.073D-01 Max rot=    4.0666 deg.
 Gradient too large for Newton-Raphson -- use scaled steepest descent instead.
 Alpha Gap=     0.340 HL deriv= 7.01D-04
     ILin= 1 X=0.000D+00 Y=-4.374905824766D+03 DE= 0.00D+00 F= -2.35D+00
 RMSU=  6.34D-04    CP:  9.14D-01  5.38D-01 -2.51D-01 -3.00D+00  6.50D-01
                    CP:  3.38D-01  1.15D+00  9.36D-01 -3.00D+00  2.61D+00
                    CP:  3.00D+00  2.09D+00  2.08D+00  1.32D-01
     ILin= 2 X=5.000D-01 Y=-4.375829211347D+03 DE=-9.23D-01 F= -1.20D+00 OKLS=F
 RMSU=  1.43D-04    CP:  9.13D-01  4.94D-01 -2.85D-01 -3.00D+00  6.09D-01
                    CP:  3.16D-01  1.13D+00  1.10D+00 -3.00D+00  2.56D+00
                    CP:  3.00D+00  1.97D+00  2.18D+00  1.80D-01  1.32D+00
     ILin= 3 X=7.000D-01 Y=-4.376004862225D+03 DE=-1.10D+00 F= -5.46D-01
 RMSU=  7.35D-05    CP:  9.10D-01  4.33D-01 -3.17D-01 -3.00D+00  5.45D-01
                    CP:  2.99D-01  1.08D+00  1.36D+00 -3.00D+00  2.43D+00
                    CP:  3.00D+00  1.79D+00  1.61D+00  2.40D-01  1.61D+00
                    CP:  3.00D+00
     ILin= 4 X=1.000D+00 Y=-4.376000304090D+03 DE=-1.09D+00 F=  6.19D-01
     An  expanding polynomial of degree  4 produced  0.8484
 RMSU=  8.42D-06    CP:  9.11D-01  4.63D-01 -3.04D-01 -3.00D+00  5.77D-01
                    CP:  3.06D-01  1.10D+00  1.23D+00 -3.00D+00  2.50D+00
                    CP:  3.00D+00  1.88D+00  2.01D+00  2.12D-01  1.50D+00
                    CP:  2.02D+00  2.52D-01
 Iteration   6 EE= -4376.04621774446     Delta-E=       -1.140392978588 Grad=6.854D-01 Max rot=    2.7467 deg.
 Gradient too large for Newton-Raphson -- use scaled steepest descent instead.
 Alpha Gap=     0.320 HL deriv= 4.28D-04
     ILin= 1 X=0.000D+00 Y=-4.376046217744D+03 DE= 0.00D+00 F= -1.64D+00
 RMSU=  6.00D-04    CP:  9.10D-01  4.26D-01 -3.11D-01 -3.00D+00  5.29D-01
                    CP:  2.83D-01  9.96D-01  1.18D+00 -3.00D+00  2.68D+00
                    CP:  3.00D+00  2.13D+00  2.06D+00  2.69D-01  1.28D+00
                    CP:  2.35D+00 -1.22D+00 -3.00D+00
     ILin= 2 X=7.000D-01 Y=-4.376146314364D+03 DE=-1.00D-01 F=  1.32D+00 OKLS=T
     Accept linear search using points  1 and  2.
     An  expanding polynomial of degree  2 produced  0.3669
 RMSU=  4.00D-05    CP:  9.11D-01  4.45D-01 -3.15D-01 -3.00D+00  5.53D-01
                    CP:  2.93D-01  1.05D+00  1.19D+00 -3.00D+00  2.61D+00
                    CP:  3.00D+00  2.02D+00  2.11D+00  2.43D-01  1.40D+00
                    CP:  2.18D+00 -6.20D-01 -2.72D+00  5.27D-01
 Iteration   7 EE= -4376.36050144563     Delta-E=       -0.314283701173 Grad=2.888D-01 Max rot=    1.6729 deg.
 Gradient too large for Newton-Raphson -- use scaled steepest descent instead.
 Alpha Gap=     0.412 HL deriv= 2.06D-03
     ILin= 1 X=0.000D+00 Y=-4.376360501446D+03 DE= 0.00D+00 F= -3.38D-01
 Restarting incremental Fock formation.
     ILin= 2 X=6.000D-01 Y=-4.376470582420D+03 DE=-1.10D-01 F= -2.84D-02 OKLS=T
     Reject lnstep IMin12=  1  2 Big=T Turn=F Min= 9.189D-01 FVal=-4.376482280773D+03 Lims=  0.00D+00  6.00D-01
 RMSU=  1.35D-04    CP:  1.00D+00
     ILin= 3 X=9.000D-01 Y=-4.376456615951D+03 DE=-9.61D-02 F=  1.20D-01
     An  expanding polynomial of degree  3 produced  0.6589
     Minimum is close to point  2 DX=  5.89D-02 DF= -8.87D-04 DXR=  8.94D-02 DFR=  8.06D-03 which will be used.
 Iteration   8 EE= -4376.47058242043     Delta-E=       -0.110080974799 Grad=2.585D-01 Max rot=    1.2057 deg.
 Gradient too large for Newton-Raphson -- use scaled steepest descent instead.
 Alpha Gap=     0.350 HL deriv= 1.04D-03
     ILin= 1 X=0.000D+00 Y=-4.376470582420D+03 DE= 0.00D+00 F= -2.68D-01
 RMSU=  2.05D-04    CP:  9.99D-01 -1.47D-01
     ILin= 2 X=5.000D-01 Y=-4.376521984929D+03 DE=-5.14D-02 F=  6.53D-02 OKLS=T
     Accept linear search using points  1 and  2.
     An  expanding polynomial of degree  2 produced  0.2967
 RMSU=  4.99D-06    CP:  9.99D-01 -9.27D-02  5.94D-01
 Iteration   9 EE= -4376.52129090030     Delta-E=       -0.050708479870 Grad=1.331D-01 Max rot=    0.9219 deg.
 Gradient too large for Newton-Raphson -- use scaled steepest descent instead.
 Alpha Gap=     0.388 HL deriv= 8.34D-04
     ILin= 1 X=0.000D+00 Y=-4.376521290900D+03 DE= 0.00D+00 F= -8.47D-02
 RMSU=  5.89D-05    CP:  9.99D-01  8.51D-01  8.77D-01  3.36D-01
     ILin= 2 X=7.000D-01 Y=-4.376568378451D+03 DE=-4.71D-02 F= -4.89D-02 OKLS=F
 RMSU=  9.74D-06    CP:  9.98D-01  1.39D+00  1.04D+00 -1.45D+00  1.57D+00
     ILin= 3 X=1.100D+00 Y=-4.376583411980D+03 DE=-6.21D-02 F= -2.60D-02
 RMSU=  3.23D-05    CP:  9.97D-01  2.43D+00  1.35D+00 -3.00D+00  2.66D+00
                    CP:  3.00D+00
     ILin= 4 X=1.900D+00 Y=-4.376584803790D+03 DE=-6.35D-02 F=  2.31D-02
     Accept linear search using points  3 and  4.
     An  expanding polynomial of degree  4 produced  1.5219
 RMSU=  4.52D-06    CP:  9.98D-01  1.94D+00  1.21D+00 -3.00D+00  2.15D+00
                    CP:  2.83D+00  1.68D-01
 Iteration  10 EE= -4376.58905179533     Delta-E=       -0.067760895028 Grad=1.807D-01 Max rot=    0.6454 deg.
 Gradient too large for Newton-Raphson -- use scaled steepest descent instead.
 Alpha Gap=     0.330 HL deriv= 1.05D-04
     ILin= 1 X=0.000D+00 Y=-4.376589051795D+03 DE= 0.00D+00 F= -1.28D-01
 RMSU=  9.82D-05    CP:  9.97D-01  1.14D+00  2.00D+00 -3.00D+00  1.98D+00
                    CP:  1.12D+00  7.53D-01  3.00D+00
     ILin= 2 X=7.000D-01 Y=-4.376568231256D+03 DE= 2.08D-02 F=  1.90D-01 OKLS=T
     Reject lnstep IMin12=  1  2 Big=F Turn=F Min= 3.151D-01 FVal=-4.376618691653D+03 Lims=  0.00D+00  7.00D-01
 RMSU=  4.93D-06    CP:  9.97D-01  1.59D+00  1.55D+00 -3.00D+00  2.10D+00
                    CP:  1.94D+00  2.94D-01  1.75D+00  4.39D-01
     ILin= 3 X=3.000D-01 Y=-4.376607449787D+03 DE=-1.84D-02 F=  6.15D-03
     A contracting polynomial of degree  3 produced  0.2847
     Minimum is close to point  3 DX= -1.53D-02 DF= -5.34D-05 DXR=  5.38D-02 DFR=  2.90D-03 which will be used.
 Iteration  11 EE= -4376.60744978708     Delta-E=       -0.018397991753 Grad=6.456D-02 Max rot=    0.3472 deg.
 Gradient too large for Newton-Raphson -- use scaled steepest descent instead.
 Alpha Gap=     0.372 HL deriv= 1.12D-04
     ILin= 1 X=0.000D+00 Y=-4.376607449787D+03 DE= 0.00D+00 F= -2.50D-02
 RMSU=  1.38D-04    CP:  9.97D-01  2.36D+00  1.47D+00 -3.00D+00  3.00D+00
                    CP:  3.00D+00  2.10D+00  2.82D+00  8.24D-01 -3.00D+00
     ILin= 2 X=1.500D+00 Y=-4.376620606482D+03 DE=-1.32D-02 F=  7.91D-03 OKLS=T
     Accept linear search using points  1 and  2.
     An  expanding polynomial of degree  2 produced  1.3010
 RMSU=  6.45D-06    CP:  9.97D-01  2.27D+00  1.48D+00 -3.00D+00  3.00D+00
                    CP:  3.00D+00  1.75D+00  2.95D+00  7.75D-01 -3.00D+00
                    CP:  8.45D-01
 Iteration  12 EE= -4376.62174028223     Delta-E=       -0.014290495146 Grad=1.741D-01 Max rot=    0.8941 deg.
 Gradient too large for Newton-Raphson -- use scaled steepest descent instead.
 Alpha Gap=     0.315 HL deriv= 1.02D-04
     ILin= 1 X=0.000D+00 Y=-4.376621740282D+03 DE= 0.00D+00 F= -1.45D-01
 RMSU=  1.04D-04    CP:  9.96D-01  1.56D+00  2.08D+00 -3.00D+00  3.00D+00
                    CP:  2.74D+00  1.93D+00  3.00D+00  1.86D+00 -3.00D+00
                    CP:  1.04D+00  3.00D+00
     ILin= 2 X=6.000D-01 Y=-4.376633121642D+03 DE=-1.14D-02 F=  1.12D-01 OKLS=T
     Accept linear search using points  1 and  2.
     An  expanding polynomial of degree  2 produced  0.3205
 RMSU=  6.76D-06    CP:  9.96D-01  1.89D+00  1.80D+00 -3.00D+00  3.00D+00
                    CP:  3.00D+00  1.67D+00  3.00D+00  1.37D+00 -3.00D+00
                    CP:  9.62D-01  3.00D+00  5.17D-01
 Iteration  13 EE= -4376.64714592287     Delta-E=       -0.025405640641 Grad=9.097D-02 Max rot=    1.2292 deg.
 Gradient too large for Newton-Raphson -- use scaled steepest descent instead.
 Alpha Gap=     0.360 HL deriv= 2.12D-04
     ILin= 1 X=0.000D+00 Y=-4.376647145923D+03 DE= 0.00D+00 F= -9.01D-02
 RMSU=  9.49D-05    CP:  9.96D-01  2.24D+00  1.67D+00 -3.00D+00  3.00D+00
                    CP:  3.00D+00  3.00D+00  3.00D+00  1.64D+00 -3.00D+00
                    CP:  1.85D+00  2.09D+00  1.37D+00  9.05D-01
     ILin= 2 X=6.000D-01 Y=-4.376706790189D+03 DE=-5.96D-02 F= -1.05D-01 OKLS=F
 RMSU=  3.68D-05    CP:  9.95D-01  2.40D+00  1.60D+00 -3.00D+00  3.00D+00
                    CP:  3.00D+00  3.00D+00  3.00D+00  1.73D+00 -3.00D+00
                    CP:  2.18D+00 -2.49D-01  1.80D+00 -8.36D-01  1.57D+00
     ILin= 3 X=9.000D-01 Y=-4.376737841954D+03 DE=-9.07D-02 F= -1.01D-01
 RMSU=  1.92D-05    CP:  9.95D-01  2.61D+00  1.51D+00 -3.00D+00  3.00D+00
                    CP:  3.00D+00  3.00D+00  3.00D+00  1.78D+00 -3.00D+00
                    CP:  2.49D+00 -3.00D+00  2.29D+00 -3.00D+00  2.35D+00
                    CP:  2.84D+00
     ILin= 4 X=1.300D+00 Y=-4.376775533701D+03 DE=-1.28D-01 F= -8.52D-02
 RMSU=  1.08D-04    CP:  9.94D-01  2.83D+00  1.40D+00 -3.00D+00  3.00D+00
                    CP:  3.00D+00  3.00D+00  3.00D+00  1.73D+00 -3.00D+00
                    CP:  2.62D+00 -3.00D+00  2.66D+00 -3.00D+00  3.00D+00
                    CP:  3.00D+00  3.00D+00
     ILin= 5 X=1.800D+00 Y=-4.376809860416D+03 DE=-1.63D-01 F= -4.98D-02
 RMSU=  9.74D-05    CP:  9.93D-01  3.00D+00  1.24D+00 -3.00D+00  3.00D+00
                    CP:  3.00D+00  3.00D+00  3.00D+00  1.34D+00 -3.00D+00
                    CP:  2.25D+00 -3.00D+00  2.56D+00 -3.00D+00  3.00D+00
                    CP:  3.00D+00  3.00D+00  3.00D+00
     ILin= 6 X=2.600D+00 Y=-4.376820597465D+03 DE=-1.73D-01 F=  2.49D-02
     Accept linear search using points  5 and  6.
     An  expanding polynomial of degree  6 produced  2.3079
 RMSU=  1.26D-05    CP:  9.93D-01  3.00D+00  1.30D+00 -3.00D+00  3.00D+00
                    CP:  3.00D+00  3.00D+00  3.00D+00  1.52D+00 -3.00D+00
                    CP:  2.46D+00 -3.00D+00  2.70D+00 -3.00D+00  3.00D+00
                    CP:  3.00D+00  3.00D+00  2.35D+00  6.28D-01
 Iteration  14 EE= -4376.82369425046     Delta-E=       -0.176548327592 Grad=4.355D-01 Max rot=    1.8021 deg.
 Gradient too large for Newton-Raphson -- use scaled steepest descent instead.
 Alpha Gap=     0.186 HL deriv= 6.12D-04
     ILin= 1 X=0.000D+00 Y=-4.376823694250D+03 DE= 0.00D+00 F= -7.49D-01
 Restarting incremental Fock formation.
     ILin= 2 X=9.000D-01 Y=-4.376532366861D+03 DE= 2.91D-01 F=  1.47D+00 OKLS=T
     Reject lnstep IMin12=  1  2 Big=F Turn=F Min= 3.432D-01 FVal=-4.376970053638D+03 Lims=  0.00D+00  9.00D-01
 RMSU=  4.51D-04    CP:  1.00D+00
     ILin= 3 X=3.000D-01 Y=-4.376951554422D+03 DE=-1.28D-01 F= -7.76D-02
     A contracting polynomial of degree  3 produced  0.3205
     Minimum is close to point  3 DX=  2.05D-02 DF= -5.25D-04 DXR=  6.40D-02 DFR=  4.11D-03 which will be used.
 Iteration  15 EE= -4376.95155442156     Delta-E=       -0.127860171102 Grad=1.237D-01 Max rot=    1.1327 deg.
 Gradient too large for Newton-Raphson -- use scaled steepest descent instead.
 Alpha Gap=     0.314 HL deriv= 4.49D-04
     ILin= 1 X=0.000D+00 Y=-4.376951554422D+03 DE= 0.00D+00 F= -1.02D-01
 RMSU=  2.72D-04    CP:  1.00D+00  8.26D-01
     ILin= 2 X=9.000D-01 Y=-4.377009044499D+03 DE=-5.75D-02 F= -2.42D-02 OKLS=T
     Reject lnstep IMin12=  1  2 Big=T Turn=F Min= 1.721D+00 FVal=-4.377017610345D+03 Lims=  0.00D+00  9.00D-01
 RMSU=  2.80D-05    CP:  1.00D+00  7.70D-01  1.32D+00
     ILin= 3 X=1.200D+00 Y=-4.377012153004D+03 DE=-6.06D-02 F=  3.64D-03
     Accept linear search using points  2 and  3.
     An  expanding polynomial of degree  3 produced  1.0432
 RMSU=  1.68D-07    CP:  1.00D+00  7.99D-01  1.15D+00  4.17D-01
 Iteration  16 EE= -4377.01156994949     Delta-E=       -0.060015527928 Grad=1.507D-01 Max rot=    1.9876 deg.
 Gradient too large for Newton-Raphson -- use scaled steepest descent instead.
 Alpha Gap=     0.290 HL deriv= 3.24D-05
     ILin= 1 X=0.000D+00 Y=-4.377011569949D+03 DE= 0.00D+00 F= -1.71D-01
 RMSU=  2.40D-04    CP:  9.99D-01  6.72D-01  1.19D+00  1.91D+00  3.00D+00
     ILin= 2 X=6.000D-01 Y=-4.377105648885D+03 DE=-9.41D-02 F= -1.34D-01 OKLS=F
 RMSU=  2.31D-05    CP:  9.99D-01  6.35D-01  1.18D+00  2.86D+00  3.00D+00
                    CP:  1.31D+00
     ILin= 3 X=8.000D-01 Y=-4.377130168622D+03 DE=-1.19D-01 F= -1.10D-01
 RMSU=  7.03D-05    CP:  9.98D-01  5.70D-01  1.10D+00  3.00D+00  3.00D+00
                    CP:  1.84D+00  3.00D+00
     ILin= 4 X=1.200D+00 Y=-4.377161713801D+03 DE=-1.50D-01 F= -4.35D-02
 RMSU=  6.33D-05    CP:  9.98D-01  5.21D-01  9.37D-01  3.00D+00  3.00D+00
                    CP:  2.22D+00  3.00D+00  2.66D+00
     ILin= 5 X=1.600D+00 Y=-4.377161597370D+03 DE=-1.50D-01 F=  4.82D-02
     An  expanding polynomial of degree  5 produced  1.4034
 RMSU=  1.77D-06    CP:  9.98D-01  5.43D-01  1.02D+00  3.00D+00  3.00D+00
                    CP:  2.06D+00  3.00D+00  1.82D+00  4.68D-01
 Iteration  17 EE= -4377.16623858982     Delta-E=       -0.154668640331 Grad=3.759D-01 Max rot=    4.1828 deg.
 Gradient too large for Newton-Raphson -- use scaled steepest descent instead.
 Alpha Gap=     0.327 HL deriv= 3.59D-04
     ILin= 1 X=0.000D+00 Y=-4.377166238590D+03 DE= 0.00D+00 F= -6.48D-01
 RMSU=  5.27D-04    CP:  9.95D-01  1.07D+00  1.64D+00  3.00D+00 -3.00D+00
                    CP:  3.57D-01  3.00D+00  3.00D+00  2.74D+00  3.00D+00
     ILin= 2 X=1.200D+00 Y=-4.376986868944D+03 DE= 1.79D-01 F=  6.76D-01 OKLS=T
     Reject lnstep IMin12=  1  2 Big=F Turn=F Min= 3.827D-01 FVal=-4.377262687625D+03 Lims=  0.00D+00  1.20D+00
 RMSU=  8.11D-05    CP:  9.97D-01  7.55D-01  1.35D+00  3.00D+00 -3.00D+00
                    CP:  1.72D+00  3.00D+00  3.00D+00  1.39D+00  3.00D+00
                    CP:  3.20D-01
     ILin= 3 X=4.000D-01 Y=-4.377290715308D+03 DE=-1.24D-01 F= -1.19D-02
     A contracting polynomial of degree  3 produced  0.4702
 RMSU=  7.17D-06    CP:  9.97D-01  7.89D-01  1.40D+00  3.00D+00 -3.00D+00
                    CP:  1.63D+00  3.00D+00  3.00D+00  1.55D+00  3.00D+00
                    CP:  3.87D-01  1.00D+00
 Iteration  18 EE= -4377.28841804763     Delta-E=       -0.122179457809 Grad=2.283D-01 Max rot=    1.4343 deg.
 Gradient too large for Newton-Raphson -- use scaled steepest descent instead.
 Alpha Gap=     0.232 HL deriv= 1.55D-04
     ILin= 1 X=0.000D+00 Y=-4.377288418048D+03 DE= 0.00D+00 F= -1.94D-01
 RMSU=  1.88D-04    CP:  9.97D-01  5.08D-01  9.51D-01  3.00D+00  3.00D+00
                    CP:  1.66D+00  3.00D+00  3.00D+00  2.98D+00  3.00D+00
                    CP:  3.81D-01  7.51D-01  3.00D+00
     ILin= 2 X=8.000D-01 Y=-4.377313251834D+03 DE=-2.48D-02 F=  1.37D-01 OKLS=T
     Accept linear search using points  1 and  2.
     An  expanding polynomial of degree  2 produced  0.4559
 RMSU=  6.97D-06    CP:  9.97D-01  6.27D-01  1.15D+00  3.00D+00  3.00D+00
                    CP:  1.67D+00  3.00D+00  3.00D+00  2.37D+00  3.00D+00
                    CP:  3.90D-01  8.70D-01  3.00D+00  5.59D-01
 Iteration  19 EE= -4377.33505667319     Delta-E=       -0.046638625565 Grad=1.040D-01 Max rot=    1.0240 deg.
 Gradient too large for Newton-Raphson -- use scaled steepest descent instead.
 Alpha Gap=     0.285 HL deriv= 1.40D-04
     ILin= 1 X=0.000D+00 Y=-4.377335056673D+03 DE= 0.00D+00 F= -4.72D-02
 RMSU=  4.55D-05    CP:  9.96D-01  6.81D-01  1.12D+00  3.00D+00  3.00D+00
                    CP:  1.53D+00  3.00D+00  3.00D+00  2.85D+00  3.00D+00
                    CP:  4.77D-01  7.54D-01  3.00D+00  5.82D-01  6.29D-01
     ILin= 2 X=5.000D-01 Y=-4.377349954213D+03 DE=-1.49D-02 F= -1.26D-02 OKLS=F
 RMSU=  9.32D-06    CP:  9.96D-01  7.12D-01  1.10D+00  3.00D+00  3.00D+00
                    CP:  1.44D+00  3.00D+00  3.00D+00  3.00D+00  3.00D+00
                    CP:  5.25D-01  6.74D-01  3.00D+00  5.91D-01  3.43D-01
                    CP:  1.60D+00
     ILin= 3 X=8.000D-01 Y=-4.377350716481D+03 DE=-1.57D-02 F=  7.45D-03
     Accept linear search using points  2 and  3.
     An  expanding polynomial of degree  3 produced  0.6477
 RMSU=  1.57D-06    CP:  9.96D-01  6.96D-01  1.11D+00  3.00D+00  3.00D+00
                    CP:  1.49D+00  3.00D+00  3.00D+00  2.99D+00  3.00D+00
                    CP:  5.01D-01  7.15D-01  3.00D+00  5.87D-01  4.94D-01
                    CP:  1.30D+00  9.32D-02
 Iteration  20 EE= -4377.35108257832     Delta-E=       -0.016025905130 Grad=8.324D-02 Max rot=    0.5548 deg.
 Gradient too large for Newton-Raphson -- use scaled steepest descent instead.
 Alpha Gap=     0.261 HL deriv= 9.34D-05
     ILin= 1 X=0.000D+00 Y=-4.377351082578D+03 DE= 0.00D+00 F= -2.58D-02
 RMSU=  1.79D-05    CP:  9.96D-01  6.46D-01  1.01D+00  3.00D+00  3.00D+00
                    CP:  1.46D+00  3.00D+00  3.00D+00  3.00D+00  3.00D+00
                    CP:  4.95D-01  6.54D-01  3.00D+00  7.96D-01  1.22D-01
                    CP:  1.40D+00  1.97D+00 -1.67D+00
     ILin= 2 X=5.000D-01 Y=-4.377357202714D+03 DE=-6.12D-03 F=  1.44D-03 OKLS=T
     Accept linear search using points  1 and  2.
     An  expanding polynomial of degree  2 produced  0.3462
 RMSU=  1.44D-07    CP:  9.96D-01  6.61D-01  1.04D+00  3.00D+00  3.00D+00
                    CP:  1.47D+00  3.00D+00  3.00D+00  3.00D+00  3.00D+00
                    CP:  4.97D-01  6.73D-01  3.00D+00  7.32D-01  2.60D-01
                    CP:  1.37D+00  1.37D+00 -9.35D-01  6.92D-01
 Iteration  21 EE= -4377.35677397039     Delta-E=       -0.005691392067 Grad=3.376D-02 Max rot=    0.3916 deg.
 Gradient too large for Newton-Raphson -- use scaled steepest descent instead.
 Alpha Gap=     0.273 HL deriv= 1.54D-05
     ILin= 1 X=0.000D+00 Y=-4.377356773970D+03 DE= 0.00D+00 F= -6.07D-03
 Restarting incremental Fock formation.
     ILin= 2 X=5.000D-01 Y=-4.377359270857D+03 DE=-2.50D-03 F= -3.92D-03 OKLS=F
 RMSU=  2.42D-05    CP:  1.00D+00
     ILin= 3 X=9.000D-01 Y=-4.377360489822D+03 DE=-3.72D-03 F= -2.18D-03
 RMSU=  4.16D-06    CP:  1.00D+00  2.99D+00
     ILin= 4 X=1.700D+00 Y=-4.377360827731D+03 DE=-4.05D-03 F=  1.34D-03
     Accept linear search using points  3 and  4.
     An  expanding polynomial of degree  4 produced  1.3686
 RMSU=  7.98D-09    CP:  1.00D+00  2.17D+00  4.24D-01
 Iteration  22 EE= -4377.36102914043     Delta-E=       -0.004255170039 Grad=2.155D-02 Max rot=    0.1008 deg.
 Gradient too large for Newton-Raphson -- use scaled steepest descent instead.
 Alpha Gap=     0.273 HL deriv= 4.03D-05
     ILin= 1 X=0.000D+00 Y=-4.377361029140D+03 DE= 0.00D+00 F= -1.46D-03
 RMSU=  1.69D-05    CP:  1.00D+00  2.28D+00  5.00D-01  3.00D+00
     ILin= 2 X=7.000D-01 Y=-4.377361019668D+03 DE= 9.47D-06 F=  1.49D-03 OKLS=T
     Reject lnstep IMin12=  1  2 Big=F Turn=F Min= 3.482D-01 FVal=-4.377361392886D+03 Lims=  0.00D+00  7.00D-01
 RMSU=  2.04D-08    CP:  1.00D+00  2.22D+00  4.54D-01  3.00D+00  4.28D-01
     ILin= 3 X=3.000D-01 Y=-4.377361277750D+03 DE=-2.49D-04 F= -1.97D-04
     A contracting polynomial of degree  3 produced  0.3468
 RMSU=  1.06D-09    CP:  1.00D+00  2.22D+00  4.59D-01  3.00D+00  4.95D-01
                    CP:  9.98D-01
 Iteration  23 EE= -4377.36128235818     Delta-E=       -0.000253217750 Grad=5.988D-03 Max rot=    0.0358 deg.
 SCF Done:  E(RPBE1PBE) =  -4377.36128236     a.u. after   23 cycles
            Convg  =    0.5988D-02                    67 Fock formations.
              S**2 =  0.0000                  -V/T =  2.0478
 Leave Link  508 at Fri Feb 26 12:27:06 2021, MaxMem=  7864320000 cpu:          221549.8 elap:            7146.0
 (Enter /apps/gaussian/g16-c01-avx/g16/l502.exe)
 Integral symmetry usage will be decided dynamically.
 Closed shell SCF:
 Using DIIS extrapolation, IDIIS=  1040.
 NGot=  7864320000 LenX=  7856924330 LenY=  7853266674
 Requested convergence on RMS density matrix=1.00D-08 within 128 cycles.
 Requested convergence on MAX density matrix=1.00D-06.
 Requested convergence on             energy=1.00D-06.
 No special actions if energy rises.
 Fock matrices will be formed incrementally for  20 cycles.

 Cycle   1  Pass 1  IDiag  1:
 FoFJK:  IHMeth= 1 ICntrl=       0 DoSepK=F KAlg= 0 I1Cent=           0 FoldK=F
 IRaf= 530000000 NMat=       1 IRICut=       1 DoRegI=T DoRafI=F ISym2E= 0 IDoP0=0 IntGTp=1.
 FoFCou: FMM=T IPFlag=           0 FMFlag=      100000 FMFlg1=        2001
         NFxFlg=           0 DoJE=F BraDBF=F KetDBF=F FulRan=T
         wScrn=  0.000000 ICntrl=         0 IOpCl=  0 I1Cent=           0 NGrid=           0
         NMat0=    1 NMatS0=      1 NMatT0=    0 NMatD0=    1 NMtDS0=    0 NMtDT0=    0
 Symmetry not used in FoFCou.
 FMM levels:  10  Number of levels for PrismC:   9
 E= -4377.36128235824    
 DIIS: error= 3.01D-04 at cycle   1 NSaved=   1.
 NSaved= 1 IEnMin= 1 EnMin= -4377.36128235824     IErMin= 1 ErrMin= 3.01D-04
 ErrMax= 3.01D-04  0.00D+00 EMaxC= 1.00D-01 BMatC= 1.79D-05 BMatP= 1.79D-05
 IDIUse=3 WtCom= 9.97D-01 WtEn= 3.01D-03
 Coeff-Com:  0.100D+01
 Coeff-En:   0.100D+01
 Coeff:      0.100D+01
 Gap=     0.273 Goal=   None    Shift=    0.000
 RMSDP=1.45D-05 MaxDP=4.15D-03              OVMax= 1.03D-02

 Cycle   2  Pass 1  IDiag  1:
 RMSU=  1.45D-05    CP:  1.00D+00
 E= -4377.36136959228     Delta-E=       -0.000087234035 Rises=F Damp=F
 DIIS: error= 1.37D-04 at cycle   2 NSaved=   2.
 NSaved= 2 IEnMin= 2 EnMin= -4377.36136959228     IErMin= 2 ErrMin= 1.37D-04
 ErrMax= 1.37D-04  0.00D+00 EMaxC= 1.00D-01 BMatC= 1.73D-05 BMatP= 1.79D-05
 IDIUse=3 WtCom= 9.99D-01 WtEn= 1.37D-03
 Coeff-Com:  0.492D+00 0.508D+00
 Coeff-En:   0.000D+00 0.100D+01
 Coeff:      0.492D+00 0.508D+00
 Gap=     0.133 Goal=   None    Shift=    0.000
 RMSDP=3.83D-06 MaxDP=6.42D-04 DE=-8.72D-05 OVMax= 1.18D-03

 Cycle   3  Pass 1  IDiag  1:
 RMSU=  3.81D-06    CP:  1.00D+00  1.02D+00
 E= -4377.36138262986     Delta-E=       -0.000013037581 Rises=F Damp=F
 DIIS: error= 9.04D-05 at cycle   3 NSaved=   3.
 NSaved= 3 IEnMin= 3 EnMin= -4377.36138262986     IErMin= 3 ErrMin= 9.04D-05
 ErrMax= 9.04D-05  0.00D+00 EMaxC= 1.00D-01 BMatC= 7.16D-06 BMatP= 1.73D-05
 IDIUse=1 WtCom= 1.00D+00 WtEn= 0.00D+00
 Coeff-Com: -0.153D+00 0.406D+00 0.747D+00
 Coeff:     -0.153D+00 0.406D+00 0.747D+00
 Gap=     0.133 Goal=   None    Shift=    0.000
 RMSDP=2.88D-06 MaxDP=1.00D-03 DE=-1.30D-05 OVMax= 1.97D-03

 Cycle   4  Pass 1  IDiag  1:
 RMSU=  1.52D-06    CP:  1.00D+00  1.19D+00  8.41D-01
 E= -4377.36139190178     Delta-E=       -0.000009271920 Rises=F Damp=F
 DIIS: error= 1.40D-05 at cycle   4 NSaved=   4.
 NSaved= 4 IEnMin= 4 EnMin= -4377.36139190178     IErMin= 4 ErrMin= 1.40D-05
 ErrMax= 1.40D-05  0.00D+00 EMaxC= 1.00D-01 BMatC= 9.95D-08 BMatP= 7.16D-06
 IDIUse=1 WtCom= 1.00D+00 WtEn= 0.00D+00
 Coeff-Com: -0.362D-01 0.409D-01 0.129D+00 0.866D+00
 Coeff:     -0.362D-01 0.409D-01 0.129D+00 0.866D+00
 Gap=     0.133 Goal=   None    Shift=    0.000
 RMSDP=5.47D-07 MaxDP=2.32D-04 DE=-9.27D-06 OVMax= 4.12D-04

 Cycle   5  Pass 1  IDiag  1:
 RMSU=  4.23D-07    CP:  1.00D+00  1.20D+00  8.86D-01  1.10D+00
 E= -4377.36139199556     Delta-E=       -0.000000093783 Rises=F Damp=F
 DIIS: error= 8.64D-06 at cycle   5 NSaved=   5.
 NSaved= 5 IEnMin= 5 EnMin= -4377.36139199556     IErMin= 5 ErrMin= 8.64D-06
 ErrMax= 8.64D-06  0.00D+00 EMaxC= 1.00D-01 BMatC= 1.10D-07 BMatP= 9.95D-08
 IDIUse=1 WtCom= 1.00D+00 WtEn= 0.00D+00
 Coeff-Com: -0.372D-02-0.264D-01-0.146D-01 0.551D+00 0.493D+00
 Coeff:     -0.372D-02-0.264D-01-0.146D-01 0.551D+00 0.493D+00
 Gap=     0.133 Goal=   None    Shift=    0.000
 RMSDP=2.22D-07 MaxDP=5.86D-05 DE=-9.38D-08 OVMax= 7.40D-05

 Cycle   6  Pass 1  IDiag  1:
 RMSU=  1.35D-07    CP:  1.00D+00  1.21D+00  8.93D-01  1.17D+00  7.26D-01
 E= -4377.36139210161     Delta-E=       -0.000000106047 Rises=F Damp=F
 DIIS: error= 1.76D-06 at cycle   6 NSaved=   6.
 NSaved= 6 IEnMin= 6 EnMin= -4377.36139210161     IErMin= 6 ErrMin= 1.76D-06
 ErrMax= 1.76D-06  0.00D+00 EMaxC= 1.00D-01 BMatC= 6.98D-09 BMatP= 9.95D-08
 IDIUse=1 WtCom= 1.00D+00 WtEn= 0.00D+00
 Coeff-Com:  0.301D-02-0.227D-01-0.286D-01 0.208D+00 0.261D+00 0.579D+00
 Coeff:      0.301D-02-0.227D-01-0.286D-01 0.208D+00 0.261D+00 0.579D+00
 Gap=     0.133 Goal=   None    Shift=    0.000
 RMSDP=7.96D-08 MaxDP=2.64D-05 DE=-1.06D-07 OVMax= 4.22D-05

 Cycle   7  Pass 1  IDiag  1:
 RMSU=  5.57D-08    CP:  1.00D+00  1.21D+00  8.97D-01  1.20D+00  7.61D-01
                    CP:  8.00D-01
 E= -4377.36139210897     Delta-E=       -0.000000007360 Rises=F Damp=F
 DIIS: error= 6.80D-07 at cycle   7 NSaved=   7.
 NSaved= 7 IEnMin= 7 EnMin= -4377.36139210897     IErMin= 7 ErrMin= 6.80D-07
 ErrMax= 6.80D-07  0.00D+00 EMaxC= 1.00D-01 BMatC= 1.03D-09 BMatP= 6.98D-09
 IDIUse=1 WtCom= 1.00D+00 WtEn= 0.00D+00
 Coeff-Com:  0.274D-02-0.106D-01-0.166D-01 0.381D-01 0.695D-01 0.311D+00
 Coeff-Com:  0.605D+00
 Coeff:      0.274D-02-0.106D-01-0.166D-01 0.381D-01 0.695D-01 0.311D+00
 Coeff:      0.605D+00
 Gap=     0.133 Goal=   None    Shift=    0.000
 RMSDP=3.46D-08 MaxDP=1.20D-05 DE=-7.36D-09 OVMax= 2.11D-05

 Cycle   8  Pass 1  IDiag  1:
 RMSU=  2.24D-08    CP:  1.00D+00  1.21D+00  8.99D-01  1.21D+00  7.75D-01
                    CP:  9.00D-01  8.80D-01
 E= -4377.36139211038     Delta-E=       -0.000000001412 Rises=F Damp=F
 DIIS: error= 3.19D-07 at cycle   8 NSaved=   8.
 NSaved= 8 IEnMin= 8 EnMin= -4377.36139211038     IErMin= 8 ErrMin= 3.19D-07
 ErrMax= 3.19D-07  0.00D+00 EMaxC= 1.00D-01 BMatC= 2.97D-10 BMatP= 1.03D-09
 IDIUse=1 WtCom= 1.00D+00 WtEn= 0.00D+00
 Coeff-Com:  0.131D-02-0.283D-02-0.592D-02-0.189D-01-0.981D-02 0.854D-01
 Coeff-Com:  0.400D+00 0.551D+00
 Coeff:      0.131D-02-0.283D-02-0.592D-02-0.189D-01-0.981D-02 0.854D-01
 Coeff:      0.400D+00 0.551D+00
 Gap=     0.133 Goal=   None    Shift=    0.000
 RMSDP=1.54D-08 MaxDP=4.92D-06 DE=-1.41D-09 OVMax= 8.00D-06

 Cycle   9  Pass 1  IDiag  1:
 RMSU=  9.48D-09    CP:  1.00D+00  1.21D+00  9.00D-01  1.22D+00  7.85D-01
                    CP:  9.25D-01  9.55D-01  7.57D-01
 E= -4377.36139211047     Delta-E=       -0.000000000087 Rises=F Damp=F
 DIIS: error= 7.60D-08 at cycle   9 NSaved=   9.
 NSaved= 9 IEnMin= 9 EnMin= -4377.36139211047     IErMin= 9 ErrMin= 7.60D-08
 ErrMax= 7.60D-08  0.00D+00 EMaxC= 1.00D-01 BMatC= 1.96D-11 BMatP= 2.97D-10
 IDIUse=1 WtCom= 1.00D+00 WtEn= 0.00D+00
 Coeff-Com:  0.314D-03-0.186D-03-0.983D-03-0.118D-01-0.112D-01 0.716D-02
 Coeff-Com:  0.120D+00 0.269D+00 0.628D+00
 Coeff:      0.314D-03-0.186D-03-0.983D-03-0.118D-01-0.112D-01 0.716D-02
 Coeff:      0.120D+00 0.269D+00 0.628D+00
 Gap=     0.133 Goal=   None    Shift=    0.000
 RMSDP=4.07D-09 MaxDP=1.02D-06 DE=-8.73D-11 OVMax= 1.66D-06

 Cycle  10  Pass 1  IDiag  1:
 RMSU=  3.14D-09    CP:  1.00D+00  1.21D+00  9.00D-01  1.22D+00  7.86D-01
                    CP:  9.32D-01  9.75D-01  8.02D-01  8.19D-01
[...]
 Alpha virt. eigenvalues --    1.97823   1.97916   1.98010   1.98322   1.98888
 Alpha virt. eigenvalues --    1.99048   1.99171   1.99203   1.99330   1.99516
 Alpha virt. eigenvalues --    1.99971   2.00851   2.01041   2.01059   2.01647
 Alpha virt. eigenvalues --    2.02049   2.02132   2.02283   2.02346   2.02564
 Alpha virt. eigenvalues --    2.02892   2.03202   2.03230   2.03275   2.03742
 Alpha virt. eigenvalues --    2.03911   2.04330   2.04882   2.04937   2.05325
 Alpha virt. eigenvalues --    2.05595   2.05891   2.05932   2.06008   2.06068
 Alpha virt. eigenvalues --    2.06194   2.06747   2.07069   2.07220   2.07396
 Alpha virt. eigenvalues --    2.07787   2.08396   2.08697   2.08904   2.09029
 Alpha virt. eigenvalues --    2.09458   2.09473   2.09854   2.09874   2.09906
 Alpha virt. eigenvalues --    2.10070   2.10238   2.10390   2.10814   2.12294
 Alpha virt. eigenvalues --    2.12379   2.12431   2.12482   2.12505   2.12598
 Alpha virt. eigenvalues --    2.12625   2.12699   2.12779   2.12919   2.13150
 Alpha virt. eigenvalues --    2.13310   2.13558   2.13621   2.13775   2.13845
 Alpha virt. eigenvalues --    2.14046   2.14062   2.14544   2.14780   2.14818
 Alpha virt. eigenvalues --    2.15012   2.16140   2.16854   2.17015   2.17149
 Alpha virt. eigenvalues --    2.17293   2.17391   2.17557   2.17579   2.17880
 Alpha virt. eigenvalues --    2.18344   2.20572   2.20771   2.20875   2.20940
 Alpha virt. eigenvalues --    2.22131   2.22165   2.22218   2.22292   2.22718
 Alpha virt. eigenvalues --    2.22816   2.22887   2.23365   2.23483   2.23517
 Alpha virt. eigenvalues --    2.23531   2.23566   2.24586   2.24701   2.24962
 Alpha virt. eigenvalues --    2.24996   2.25124   2.25243   2.26315   2.26414
 Alpha virt. eigenvalues --    2.26770   2.26921   2.27030   2.27141   2.27274
 Alpha virt. eigenvalues --    2.27454   2.27570   2.27796   2.28295   2.28347
 Alpha virt. eigenvalues --    2.28469   2.28680   2.28750   2.28885   2.28910
 Alpha virt. eigenvalues --    2.29055   2.29343   2.29471   2.29652   2.29726
 Alpha virt. eigenvalues --    2.29795   2.29813   2.29961   2.30507   2.30633
 Alpha virt. eigenvalues --    2.30857   2.30950   2.31445   2.31803   2.31945
 Alpha virt. eigenvalues --    2.31957   2.32276   2.33200   2.33284   2.33356
 Alpha virt. eigenvalues --    2.33409   2.33429   2.33467   2.33805   2.33947
 Alpha virt. eigenvalues --    2.34530   2.34936   2.35268   2.35282   2.35289
 Alpha virt. eigenvalues --    2.35305   2.35405   2.35496   2.35822   2.35927
 Alpha virt. eigenvalues --    2.36535   2.36607   2.36783   2.36805   2.37176
 Alpha virt. eigenvalues --    2.37222   2.37386   2.37728   2.37767   2.37924
 Alpha virt. eigenvalues --    2.37973   2.38107   2.38549   2.38596   2.38774
 Alpha virt. eigenvalues --    2.38806   2.39025   2.39095   2.39188   2.39457
 Alpha virt. eigenvalues --    2.39713   2.39846   2.40159   2.40395   2.43127
 Alpha virt. eigenvalues --    2.43272   2.43359   2.45280   2.45390   2.45497
 Alpha virt. eigenvalues --    2.45940   2.45983   2.46051   2.46269   2.46493
 Alpha virt. eigenvalues --    2.46987   2.47293   2.47400   2.49494   2.49652
 Alpha virt. eigenvalues --    2.49858   2.50081   2.50328   2.50937   2.51067
 Alpha virt. eigenvalues --    2.51687   2.51809   2.52370   2.53356   2.54090
 Alpha virt. eigenvalues --    2.54150   2.54324   2.55183   2.55623   2.55728
 Alpha virt. eigenvalues --    2.57067   2.57422   2.57501   2.59091   2.59140
 Alpha virt. eigenvalues --    2.59175   2.59414   2.59604   2.59983   2.60146
 Alpha virt. eigenvalues --    2.60265   2.60602   2.60626   2.60806   2.60888
 Alpha virt. eigenvalues --    2.61220   2.61236   2.61526   2.62237   2.62372
 Alpha virt. eigenvalues --    2.62717   2.64164   2.64223   2.64358   2.64427
 Alpha virt. eigenvalues --    2.64601   2.64602   2.64966   2.64992   2.65414
 Alpha virt. eigenvalues --    2.65607   2.65699   2.65890   2.66290   2.66413
 Alpha virt. eigenvalues --    2.66550   2.66635   2.67323   2.67985   2.68061
 Alpha virt. eigenvalues --    2.68271   2.70104   2.70147   2.70352   2.70398
 Alpha virt. eigenvalues --    2.70530   2.71319   2.72103   2.72127   2.72300
 Alpha virt. eigenvalues --    2.72366   2.72403   2.72633   2.72949   2.72952
 Alpha virt. eigenvalues --    2.73410   2.73661   2.74485   2.74816   2.75275
 Alpha virt. eigenvalues --    2.75403   2.75625   2.75905   2.75925   2.76143
 Alpha virt. eigenvalues --    2.76218   2.76352   2.76397   2.76613   2.76626
 Alpha virt. eigenvalues --    2.76632   2.76752   2.76916   2.76932   2.77094
 Alpha virt. eigenvalues --    2.77184   2.77645   2.77699   2.78527   2.79885
 Alpha virt. eigenvalues --    2.80103   2.80281   2.80428   2.82401   2.82537
 Alpha virt. eigenvalues --    2.82646   2.82757   2.85614   2.87013   2.87190
 Alpha virt. eigenvalues --    2.87324   2.87473   2.87660   2.88001   2.88530
 Alpha virt. eigenvalues --    2.89726   2.90566   2.91003   2.91085   2.91128
 Alpha virt. eigenvalues --    2.91195   2.91222   2.91386   2.91588   2.92373
 Alpha virt. eigenvalues --    2.93028   2.93282   2.93553   2.93798   2.94036
 Alpha virt. eigenvalues --    2.94248   2.95348   2.95567   2.95759   2.96147
 Alpha virt. eigenvalues --    2.96437   2.96739   2.97066   2.97423   2.97544
 Alpha virt. eigenvalues --    2.97877   2.98544   2.98823   2.99569   2.99985
 Alpha virt. eigenvalues --    3.00025   3.00069   3.00378   3.00418   3.01626
 Alpha virt. eigenvalues --    3.01951   3.02071   3.02641   3.03706   3.04384
 Alpha virt. eigenvalues --    3.05958   3.06401   3.06438   3.07146   3.09641
 Alpha virt. eigenvalues --    3.09770   3.09870   3.09993   3.10842   3.11460
 Alpha virt. eigenvalues --    3.11577   3.11876   3.12404   3.12475   3.12656
 Alpha virt. eigenvalues --    3.12839   3.14794   3.14943   3.15214   3.15255
 Alpha virt. eigenvalues --    3.15630   3.15684   3.18017   3.18116   3.18160
 Alpha virt. eigenvalues --    3.18438   3.19893   3.20619   3.20683   3.22958
 Alpha virt. eigenvalues --    3.26138   3.27133   3.27376   3.28859   3.34731
 Alpha virt. eigenvalues --    3.35036   3.35258   3.35751   3.42200   3.42612
 Alpha virt. eigenvalues --    3.42771   3.42833   3.46364   3.46416   3.46457
 Alpha virt. eigenvalues --    3.46526   3.53525   3.53532   3.53578   3.53686
 Alpha virt. eigenvalues --    3.59519   3.59592   3.59670   3.59878   3.65439
 Alpha virt. eigenvalues --    3.65446   3.65490   3.65755   3.75754   3.75804
 Alpha virt. eigenvalues --    3.75982   3.76024   3.83838   3.83923   3.84018
 Alpha virt. eigenvalues --    3.84091  51.70401  51.70491
          Condensed to atoms (all electrons):
 Mulliken charges:
               1
     1  Pd   0.478806
     2  Pd   0.478901
     3  C    0.020534
     4  C   -0.068664
     5  C   -0.012672
     6  C    0.006797
     7  C    0.015595
     8  C    0.007505
     9  C    0.029400
    10  C   -0.011157
    11  C    0.139609
    12  N   -0.326139
    13  C    0.182814
    14  C   -0.013676
    15  H    0.042675
    16  H    0.056417
    17  H    0.042255
    18  H    0.054488
    19  H    0.114907
    20  H    0.078186
    21  C   -0.072396
    22  C    0.014514
    23  C    0.019701
    24  C   -0.075617
    25  C    0.016608
    26  C    0.014278
    27  H    0.040261
    28  H    0.040049
    29  H    0.031779
    30  H    0.035909
    31  C    0.011391
    32  C   -0.002388
    33  C   -0.118751
    34  C    0.113737
    35  C   -0.039260
    36  C    0.158617
    37  N   -0.318983
    38  C    0.179273
    39  H    0.064150
    40  H    0.072946
    41  H    0.100609
    42  H    0.112164
    43  C    0.021003
    44  C   -0.068944
    45  C   -0.011701
    46  C    0.005929
    47  C    0.015776
    48  C    0.007388
    49  C    0.029559
    50  C   -0.010468
    51  C    0.137846
    52  N   -0.327731
    53  C    0.183016
    54  C   -0.013653
    55  H    0.042744
    56  H    0.056432
    57  H    0.042274
    58  H    0.054500
    59  H    0.115403
    60  H    0.078696
    61  C   -0.071056
    62  C    0.013206
    63  C    0.020877
    64  C   -0.077083
    65  C    0.017612
    66  C    0.014045
    67  H    0.040558
    68  H    0.040203
    69  H    0.033398
    70  H    0.036769
    71  C    0.012263
    72  C   -0.003248
    73  C   -0.116742
    74  C    0.113120
    75  C   -0.038735
    76  C    0.158083
    77  N   -0.318847
    78  C    0.175312
    79  H    0.064037
    80  H    0.072829
    81  H    0.101079
    82  H    0.113778
    83  C    0.020126
    84  C   -0.068482
    85  C   -0.011806
    86  C    0.006181
    87  C    0.015754
    88  C    0.007490
    89  C    0.029455
    90  C   -0.010889
    91  C    0.138775
    92  N   -0.327148
    93  C    0.183224
    94  C   -0.013801
    95  H    0.042741
    96  H    0.056420
    97  H    0.042291
    98  H    0.054539
    99  H    0.114558
   100  H    0.078195
   101  C   -0.070641
   102  C    0.013697
   103  C    0.019916
   104  C   -0.075291
   105  C    0.016232
   106  C    0.012778
   107  H    0.040413
   108  H    0.040130
   109  H    0.033994
   110  H    0.036912
   111  C    0.011844
   112  C   -0.003227
   113  C   -0.117311
   114  C    0.113076
   115  C   -0.038896
   116  C    0.158272
   117  N   -0.319137
   118  C    0.177036
   119  H    0.064164
   120  H    0.072862
   121  H    0.101152
   122  H    0.112759
   123  C    0.018774
   124  C   -0.067478
   125  C   -0.010877
   126  C    0.005992
   127  C    0.015649
   128  C    0.007497
   129  C    0.029827
   130  C   -0.011419
   131  C    0.140192
   132  N   -0.326285
   133  C    0.183908
   134  C   -0.015256
   135  H    0.042726
   136  H    0.056437
   137  H    0.042231
   138  H    0.054450
   139  H    0.115643
   140  H    0.076811
   141  C   -0.069359
   142  C    0.014123
   143  C    0.020369
   144  C   -0.074914
   145  C    0.010422
   146  C    0.010369
   147  H    0.040476
   148  H    0.040204
   149  H    0.040458
   150  H    0.042629
   151  C    0.010508
   152  C   -0.001502
   153  C   -0.117431
   154  C    0.113296
   155  C   -0.039691
   156  C    0.158797
   157  N   -0.318438
   158  C    0.178998
   159  H    0.064196
   160  H    0.073042
   161  H    0.100141
   162  H    0.111427
 Sum of Mulliken charges =   4.00000
 Mulliken charges with hydrogens summed into heavy atoms:
               1
     1  Pd   0.478806
     2  Pd   0.478901
     3  C    0.020534
     4  C   -0.068664
     5  C   -0.012672
     6  C    0.049472
     7  C    0.072012
     8  C    0.049760
     9  C    0.029400
    10  C    0.043330
    11  C    0.254516
    12  N   -0.326139
    13  C    0.261000
    14  C   -0.013676
    21  C   -0.072396
    22  C    0.054775
    23  C    0.059750
    24  C   -0.075617
    25  C    0.048387
    26  C    0.050187
    31  C    0.011391
    32  C   -0.002388
    33  C   -0.118751
    34  C    0.177887
    35  C    0.033686
    36  C    0.259226
    37  N   -0.318983
    38  C    0.291437
    43  C    0.021003
    44  C   -0.068944
    45  C   -0.011701
    46  C    0.048672
    47  C    0.072207
    48  C    0.049662
    49  C    0.029559
    50  C    0.044032
    51  C    0.253249
    52  N   -0.327731
    53  C    0.261712
    54  C   -0.013653
    61  C   -0.071056
    62  C    0.053764
    63  C    0.061081
    64  C   -0.077083
    65  C    0.051010
    66  C    0.050814
    71  C    0.012263
    72  C   -0.003248
    73  C   -0.116742
    74  C    0.177157
    75  C    0.034094
    76  C    0.259162
    77  N   -0.318847
    78  C    0.289090
    83  C    0.020126
    84  C   -0.068482
    85  C   -0.011806
    86  C    0.048923
    87  C    0.072173
    88  C    0.049781
    89  C    0.029455
    90  C    0.043650
    91  C    0.253333
    92  N   -0.327148
    93  C    0.261419
    94  C   -0.013801
   101  C   -0.070641
   102  C    0.054110
   103  C    0.060045
   104  C   -0.075291
   105  C    0.050226
   106  C    0.049691
   111  C    0.011844
   112  C   -0.003227
   113  C   -0.117311
   114  C    0.177239
   115  C    0.033967
   116  C    0.259425
   117  N   -0.319137
   118  C    0.289795
   123  C    0.018774
   124  C   -0.067478
   125  C   -0.010877
   126  C    0.048718
   127  C    0.072086
   128  C    0.049727
   129  C    0.029827
   130  C    0.043031
   131  C    0.255834
   132  N   -0.326285
   133  C    0.260720
   134  C   -0.015256
   141  C   -0.069359
   142  C    0.054600
   143  C    0.060573
   144  C   -0.074914
   145  C    0.050880
   146  C    0.052998
   151  C    0.010508
   152  C   -0.001502
   153  C   -0.117431
   154  C    0.177492
   155  C    0.033351
   156  C    0.258938
   157  N   -0.318438
   158  C    0.290426
 Electronic spatial extent (au):  <R**2>=         137434.4887
 Charge=              4.0000 electrons
 Dipole moment (field-independent basis, Debye):
    X=              0.0615    Y=              0.0909    Z=              0.0319  Tot=              0.1143
 Quadrupole moment (field-independent basis, Debye-Ang):
   XX=            460.0771   YY=           -417.7433   ZZ=           -422.2975
   XY=              1.9033   XZ=              2.7309   YZ=              2.4471
 Traceless Quadrupole moment (field-independent basis, Debye-Ang):
   XX=            586.7317   YY=           -291.0887   ZZ=           -295.6430
   XY=              1.9033   XZ=              2.7309   YZ=              2.4471
 Octapole moment (field-independent basis, Debye-Ang**2):
  XXX=              2.5597  YYY=             99.8695  ZZZ=             65.3210  XYY=             25.0442
  XXY=              3.7843  XXZ=              4.2860  XZZ=            -26.9136  YZZ=            -36.6750
  YYZ=            -36.3933  XYZ=            461.3685
 Hexadecapole moment (field-independent basis, Debye-Ang**3):
 XXXX=         -46667.5596 YYYY=         -31365.8570 ZZZZ=         -30800.9830 XXXY=             11.0896
 XXXZ=             70.3778 YYYX=              6.4384 YYYZ=            553.2254 ZZZX=            -17.5219
 ZZZY=           -398.6842 XXYY=         -16502.4614 XXZZ=         -16586.4967 YYZZ=          -6310.6163
 XXYZ=              1.4686 YYXZ=             40.1529 ZZXY=             38.0894
 N-N= 1.942215610172D+04 E-N=-4.873277580713D+04  KE= 4.177534395335D+03
 Leave Link  601 at Fri Feb 26 12:43:48 2021, MaxMem=  7864320000 cpu:              69.1 elap:               2.7
 (Enter /apps/gaussian/g16-c01-avx/g16/l9999.exe)
 Unable to Open any file for archive entry.
 1\1\GINC-CX3-2-20\SP\RPBE1PBE\def2SVP\C96H56N8Pd2(4+)\ATARZIA\26-Feb-2
 021\0\\#P PBE1PBE/Def2SVP SP SCF=(YQC,MaxCycle=900) int=(Grid=Superfin
 egrid) EmpiricalDispersion=GD3BJ SCRF=(PCM,Solvent=DiMethylSulfoxide)\
 \_s_4b3_d\\4,1\Pd,0,-0.5669,6.9392,0.0269\Pd,0,0.5147,-6.9501,-0.0293\
 C,0,5.0753,-2.6151,-0.171\C,0,5.3142,-3.8013,-0.1525\C,0,5.7042,-5.153
 2,-0.1397\C,0,7.0526,-5.4676,-0.1391\C,0,7.4851,-6.7967,-0.1387\C,0,6.
 5829,-7.8318,-0.1374\C,0,5.2033,-7.5602,-0.1309\C,0,4.226,-8.5818,-0.1
 226\C,0,2.9015,-8.2551,-0.1068\N,0,2.4819,-6.9637,-0.0968\C,0,3.3596,-
 5.9833,-0.1089\C,0,4.7458,-6.2102,-0.1298\H,0,7.7802,-4.6705,-0.144\H,
 0,8.5443,-7.0036,-0.1412\H,0,6.9182,-8.8569,-0.1396\H,0,4.5408,-9.6133
 ,-0.127\H,0,2.1256,-9.0263,-0.1008\H,0,2.9736,-4.9692,-0.0981\C,0,4.79
 16,-1.2356,-0.1825\C,0,5.7476,-0.3266,0.2869\C,0,5.4769,1.0245,0.2913\
 C,0,4.2432,1.4934,-0.1729\C,0,3.2933,0.5858,-0.6573\C,0,3.5648,-0.7638
 ,-0.6626\H,0,6.6967,-0.692,0.6491\H,0,6.2124,1.7246,0.6576\H,0,2.3517,
 0.955,-1.0316\H,0,2.8412,-1.4663,-1.0438\C,0,3.9372,2.8675,-0.1447\C,0
 ,3.639,4.0391,-0.1133\C,0,3.2195,5.3825,-0.0735\C,0,4.1196,6.4578,-0.0
 386\C,0,3.6217,7.7472,-0.0029\C,0,2.248,7.95,0.0018\N,0,1.3979,6.9261,
 -0.0271\C,0,1.8524,5.6737,-0.0651\H,0,5.1824,6.2719,-0.0421\H,0,4.2885
 ,8.5938,0.022\H,0,1.817,8.944,0.0291\H,0,1.1128,4.8666,-0.0874\C,0,-0.
 1559,2.9485,4.8713\C,0,-0.2513,4.1442,5.0327\C,0,-0.3579,5.5149,5.3288
 \C,0,-0.3779,5.9221,6.6523\C,0,-0.48,7.2739,6.9916\C,0,-0.5648,8.2405,
 6.0199\C,0,-0.5506,7.874,4.6626\C,0,-0.6376,8.8216,3.6168\C,0,-0.6222,
 8.4036,2.3184\N,0,-0.5244,7.0897,1.9893\C,0,-0.4398,6.1764,2.9329\C,0,
 -0.4465,6.4995,4.2996\H,0,-0.3118,5.1803,7.4335\H,0,-0.4915,7.5537,8.0
 339\H,0,-0.6433,9.2834,6.2835\H,0,-0.7166,9.8694,3.8593\H,0,-0.6886,9.
 116,1.4907\H,0,-0.3639,5.141,2.6178\C,0,-0.0467,1.5566,4.6913\C,0,-0.1
 098,0.7097,5.8053\C,0,-0.0051,-0.655,5.6476\C,0,0.1644,-1.2001,4.3703\
 C,0,0.2306,-0.3531,3.2566\C,0,0.1268,1.0101,3.4145\H,0,-0.2417,1.1341,
 6.7892\H,0,-0.0544,-1.3068,6.5067\H,0,0.3674,-0.7832,2.278\H,0,0.1834,
 1.6658,2.5606\C,0,0.2677,-2.5907,4.1802\C,0,0.3573,-3.7787,3.9713\C,0,
 0.458,-5.1441,3.646\C,0,0.5412,-6.155,4.615\C,0,0.6377,-7.4714,4.2031\
 C,0,0.6475,-7.7646,2.8459\N,0,0.5671,-6.8016,1.9302\C,0,0.4758,-5.5249
 ,2.3008\H,0,0.5299,-5.8998,5.6632\H,0,0.7043,-8.2699,4.9242\H,0,0.7207
 ,-8.7823,2.4809\H,0,0.4144,-4.7697,1.5102\C,0,-4.649,-3.3772,0.2491\C,
 0,-4.7056,-4.586,0.2691\C,0,-4.8816,-5.9813,0.2926\C,0,-6.1611,-6.501,
 0.3944\C,0,-6.3818,-7.881,0.4111\C,0,-5.3335,-8.7639,0.3273\C,0,-4.016
 4,-8.282,0.227\C,0,-2.8958,-9.1399,0.1414\C,0,-1.641,-8.6119,0.0537\N,
 0,-1.4264,-7.271,0.0472\C,0,-2.4429,-6.4386,0.121\C,0,-3.7741,-6.8775,
 0.2107\H,0,-7.0011,-5.8263,0.4583\H,0,-7.3931,-8.2495,0.4897\H,0,-5.50
 58,-9.8286,0.3381\H,0,-3.0468,-10.2077,0.1481\H,0,-0.7574,-9.2531,-0.0
 153\H,0,-2.2185,-5.377,0.1134\C,0,-4.5793,-1.9713,0.2267\C,0,-5.7054,-
 1.2143,0.5731\C,0,-5.6481,0.1624,0.5569\C,0,-4.462,0.81,0.1943\C,0,-3.
 3383,0.0529,-0.1598\C,0,-3.3962,-1.322,-0.1439\H,0,-6.6185,-1.7168,0.8
 547\H,0,-6.5159,0.7453,0.8263\H,0,-2.4316,0.559,-0.4498\H,0,-2.5368,-1
 .9101,-0.4227\C,0,-4.3776,2.215,0.1881\C,0,-4.2676,3.4194,0.1826\C,0,-
 4.0629,4.8121,0.1752\C,0,-5.1168,5.7354,0.2428\C,0,-4.8254,7.087,0.229
 4\C,0,-3.502,7.5006,0.1527\N,0,-2.5053,6.6204,0.0913\C,0,-2.7596,5.312
 1,0.0999\H,0,-6.1362,5.387,0.303\H,0,-5.614,7.8202,0.2787\H,0,-3.2303,
 8.5496,0.1399\H,0,-1.9054,4.629,0.0486\C,0,-0.4323,3.0189,-4.8566\C,0,
 -0.5243,4.2155,-5.0123\C,0,-0.6329,5.5896,-5.2917\C,0,-0.7045,6.0122,-
 6.6083\C,0,-0.8127,7.3689,-6.9267\C,0,-0.8513,8.3242,-5.941\C,0,-0.781
 6,7.9417,-4.5897\C,0,-0.8166,8.8766,-3.5295\C,0,-0.745,8.4425,-2.238\N
 ,0,-0.6397,7.1245,-1.9298\C,0,-0.6043,6.2227,-2.8873\C,0,-0.6711,6.562
 4,-4.2483\H,0,-0.676,5.2798,-7.4004\H,0,-0.8661,7.6614,-7.9642\H,0,-0.
 9348,9.3705,-6.189\H,0,-0.9,9.9278,-3.7554\H,0,-0.7699,9.1446,-1.3996\
 H,0,-0.5203,5.1828,-2.5892\C,0,-0.324,1.6273,-4.6752\C,0,-0.3055,0.780
 7,-5.7906\C,0,-0.199,-0.5831,-5.6254\C,0,-0.1079,-1.1287,-4.3402\C,0,-
 0.1262,-0.282,-3.2247\C,0,-0.2336,1.0798,-3.3904\H,0,-0.3754,1.2043,-6
 .781\H,0,-0.1851,-1.2348,-6.4858\H,0,-0.0553,-0.7086,-2.2365\H,0,-0.24
 93,1.7365,-2.5351\C,0,0.0033,-2.5192,-4.1529\C,0,0.104,-3.7083,-3.9563
 \C,0,0.2243,-5.0787,-3.6586\C,0,0.2622,-6.0698,-4.6507\C,0,0.3836,-7.3
 936,-4.2707\C,0,0.4649,-7.7134,-2.9217\N,0,0.4283,-6.7692,-1.9841\C,0,
 0.312,-5.4858,-2.3242\H,0,0.197,-5.7938,-5.6917\H,0,0.4157,-8.1774,-5.
 0101\H,0,0.5611,-8.738,-2.5819\H,0,0.2872,-4.7489,-1.5147\\Version=ES6
 4L-G16RevC.01\State=1-A\HF=-4377.3613921\RMSD=1.516e-09\Dipole=-0.0160
 803,0.0230389,0.0351333\Quadrupole=-216.2080661,432.302332,-216.094265
 9,-50.5758634,-1.6144178,2.0273583\PG=C01 [X(C96H56N8Pd2)]\\@
 The archive entry for this job was punched.


 WE SHOULD BE CAREFUL TO GET OUT OF AN EXPERIENCE ONLY THE WISDOM
 THAT IS IN IT -- AND STOP THERE;
 LEST WE BE LIKE THE CAT THAT SITS DOWN ON A HOT STOVE-LID.
 SHE WILL NEVER SIT DOWN ON A HOT STOVE LID AGAIN;
 BUT ALSO SHE WILL NEVER SIT DOWN ON A COLD ONE ANY MORE.

                                                     -- MARK TWAIN
 Job cpu time:       2 days 22 hours 43 minutes 59.1 seconds.
 Elapsed time:       0 days  2 hours 16 minutes 44.6 seconds.
 File lengths (MBytes):  RWF=   4363 Int=      0 D2E=      0 Chk=    192 Scr=      2
 Normal termination of Gaussian 16 at Fri Feb 26 12:43:49 2021.
