218
 energy: -350.636460022365 gnorm: 0.000425050090 xtb: 6.4.0 (d4b70c2)
Fe       12.34597338161196   14.70316988624036    9.51059908139544
Fe        7.35606050618297    3.97220140748592   12.81570500917829
O        12.01974954320333   10.28989225781183   12.34077040283492
O        10.83422416183823    7.53528588353141   14.45162156817339
N        11.18863326285552   16.22176308100845    9.75904269697584
N        11.89689051602845   14.34344645968374   11.35896724007706
N         9.27069259672937    3.93633598546240   13.09719619052405
N         7.62433422859684    2.10084408084563   12.43729706464369
C        10.95115027680336   17.28519947061866    8.87774565498628
C        10.35851749374436   17.05683600572244    7.63661445308893
C        10.14279508664339   18.11197256315355    6.77026729660280
C        10.52168426250145   19.39847959450134    7.12290729038440
C        11.09307587367730   19.63204317177015    8.36385598976640
C        11.29456987562643   18.58709684937587    9.24671553544579
C        10.66234682531741   16.27521330066530   10.93173160272016
C        10.97251469787757   15.20767380786549   11.83264086953027
C        10.37553641261531   15.03880565529878   13.08606631593211
C        10.70960177740649   13.94140247121535   13.84486725125040
C        11.66599574478540   13.03164715749502   13.36217114425054
C        12.23945593298017   13.30792237488149   12.11694209763233
C        12.07744720185461   11.89041146830262   14.18401962185721
C        12.30061704988036   12.11376461885274   15.52829342030975
C        12.76292925558844   11.10422881795456   16.38227872278993
C        13.02208430520164   11.35302157945931   17.74877774963422
C        13.49835786227382   10.35974544053986   18.55614556251337
C        13.73676047546625    9.08038889752619   18.02888502429294
C        13.49157889519954    8.80847266214100   16.70991437507267
C        12.99636075405973    9.80861268232425   15.84837334890941
C        12.73150555291435    9.57023048138043   14.47366610225766
C        12.28177559574771   10.58452494161491   13.65809021082477
C        13.03188399150139    8.21746631547452   13.93824856455912
C        14.36525075006502    7.93643432138569   13.54384808506992
C        15.37198064541878    8.92294499365717   13.53251829364591
C        16.67391691359970    8.58759727867129   13.27754276632434
C        17.03328953072000    7.25545206211073   13.01928498428450
C        16.07449805305327    6.28298452941227   12.97924591103875
C        14.72184617213194    6.59847207730665   13.23266516774581
C        13.72854240419234    5.60948458621953   13.25082964267886
C        12.42377078676827    5.88205881607630   13.61411877470533
C        12.08763737345765    7.21502391171458   13.98895302974184
C        10.12353101479625    4.94170910284038   13.23286191008230
C        11.45984552621847    4.77724701651693   13.60991436218806
C        11.86968430215420    3.47004653429607   13.92969193695488
C        11.00709954293566    2.41618137053475   13.73623203963802
C         9.71402543779656    2.67387784809809   13.27270102231882
C         8.78802045616375    1.68478798648892   12.81494812914142
C         6.82669380175771    1.25049559821836   11.66439812182176
C         7.40103948626919    0.58174812968625   10.57806127002853
C         6.63134010695896   -0.23950595035594    9.77783557055930
C         5.28404072246256   -0.41820906035973   10.05169347771296
C         4.70858259316426    0.24028367909033   11.12757903836016
C         5.46800030255120    1.07689547200495   11.92347377238028
O        11.93006174786143    9.68240866548750    8.18729856308098
O        10.44488880630693    6.67312946837434   10.08093033189621
N        13.97150563913504   15.69298275253976    9.92995555011747
N        13.59003818612658   13.20690365424684    9.35680109709350
N         7.44244435834144    4.30579854205093   10.90535201171999
N         5.42043596245824    4.02074363667190   12.48714598649190
C        14.13703262222880   16.99229058152036   10.42345423513595
C        13.53174621935914   17.34307162071756   11.63129895210333
C        13.70182575379412   18.61184175314604   12.15325312256103
C        14.46166010170360   19.55274559696542   11.47459463084940
C        15.08223420527089   19.20377205046294   10.28516039466471
C        14.93914209086454   17.92965828485849    9.76930828581488
C        15.01734060792104   15.04200140563202    9.55253922039936
C        14.85436633208552   13.65880918026055    9.22677709255580
C        15.90659035102940   12.79684639559100    8.90838892702196
C        15.65939596417428   11.44647943214586    8.81839855496327
C        14.36843598620236   10.95426980928156    9.07522013350666
C        13.36587038033482   11.90174972093353    9.29065490189931
C        14.13470049624332    9.51093771478935    9.13548871210338
C        15.15630595097192    8.70185679748580    9.59049924583890
C        15.06648270751269    7.30293352721449    9.59872414646336
C        16.16650059612924    6.49375193353953    9.95498339264042
C        16.07410210301797    5.13172452763439    9.89716570959193
C        14.87032586114204    4.52486257131462    9.50895656991790
C        13.79006322920265    5.28306014078731    9.14598252364553
C        13.86587393675055    6.69016441210119    9.15777293660986
C        12.80870377311478    7.51816392888232    8.69033582665187
C        12.93480982621804    8.89257747611012    8.68331567191023
C        11.65653165877772    6.83906322302925    8.02436180026157
C        11.78076383170023    6.54959876706627    6.63601789860449
C        12.88016855407207    6.97902243296262    5.86594499025490
C        12.97003356895491    6.65520735799696    4.53851424034207
C        11.96943036305133    5.89366466906693    3.91501458979554
C        10.89081964431367    5.46141199097701    4.63398321304898
C        10.77045163246420    5.77549200322028    6.00569976643074
C         9.68797971885248    5.32008956803922    6.77237588562618
C         9.56473493175927    5.59758628002424    8.11836473738778
C        10.57852047883684    6.37638489075661    8.74885668629111
C         8.49013287719586    4.67380588798766   10.18457200761700
C         8.40797213264409    5.08354376320187    8.85105868444493
C         7.15269603799112    4.98244073196211    8.23042688074435
C         6.06503415721246    4.56126434207652    8.96017381186489
C         6.22870394425200    4.27663268164763   10.31896482091051
C         5.14055151624157    4.11428408628898   11.23085580943838
C         4.38090907068849    4.21534198642159   13.40573214161013
C         4.21574600342110    3.40015228886893   14.52514222813129
C         3.17656286588149    3.62782602193807   15.40731799703277
C         2.30261663235463    4.68507392934121   15.20587231577284
C         2.47544404806314    5.51844044264458   14.11149190202194
C         3.50057770775028    5.28657957601012   13.21572860541684
N        12.60929848374904   14.94939924308294    7.60107694883137
N        10.86603606499104   13.60769409344617    8.89696422333051
N         7.16046164590176    5.83884612679909   13.21924080741245
N         7.15726529294230    3.81441963099276   14.73100697452673
C        13.66502338928595   15.59246583216307    6.93677387430059
C        14.55694337850762   14.83738813967182    6.17202874923107
C        15.58340300118050   15.46110001796223    5.48894030591592
C        15.71100983333781   16.84111167529939    5.53214371316103
C        14.81653151302225   17.59257789881201    6.27836715621252
C        13.80602598748332   16.97576188893964    6.99498584946385
C        11.79893422680404   14.26140979591977    6.87478461557400
C        10.77892080835415   13.52423077483440    7.55373781327219
C         9.78574285335645   12.77008678852281    6.92393554768329
C         8.91306166700751   12.02753903262951    7.68921222548911
C         9.05383568851292   12.03736193840895    9.08352334208654
C        10.02859760556113   12.87966730052574    9.61654211381178
C         7.34409268852927    6.86749049838688   12.41291601599862
C         6.94741831244998    8.17039546210592   12.71064783501012
C         6.30375423527665    8.37719334143074   13.93822094371873
C         6.16487210007603    7.31998951050839   14.81472701417697
C         6.62777641916782    6.05567754495727   14.44129044125943
C         6.71359028074523    4.89869160589362   15.28059978561881
C         7.56396810569262    2.76207002926190   15.55833426536589
C         8.39743537136362    3.03635616529678   16.64780161350859
C         8.84280899525737    2.01453667987458   17.46335448350274
C         8.45587066553512    0.70618070686071   17.21759621578743
C         7.62757908999989    0.42611377859050   16.14159725205515
C         7.19333334019067    1.44026682458267   15.30909771648120
C         7.29015919388783    9.22943258955401   11.76117484816391
C         7.40969667279732    8.94750256814894   10.39753335711909
C         7.92320924575924    9.88102742796033    9.52511997729566
C         8.32168758974611   11.14011520785023    9.97813984114016
C         8.10142967601643   11.45678712257993   11.32148306202876
C         7.60082073659845   10.51737791521611   12.19846211196261
H        10.02975989943934   16.06222735050525    7.38083845445943
H         9.66800950458652   17.93222535435119    5.81865890416529
H        10.35978323891833   20.21599324252183    6.43920575126103
H        11.37531450232900   20.63222263775188    8.65189180415522
H        11.74721436054750   18.76194844990345   10.21056612972606
H         9.99991477768697   17.07956541710422   11.23667434380654
H         9.65264269896237   15.75944987843354   13.43295627341058
H        10.24086311438786   13.77045657177067   14.80081430569790
H        13.02784266642485   12.67984902317860   11.72967574631348
H        12.17252677234890   13.10690054659831   15.93236762818439
H        12.84070145798793   12.34251661951515   18.14001354667375
H        13.70084075810986   10.55144408515318   19.59775495353312
H        14.12347708291232    8.30831164792583   18.67585882096317
H        13.68742167488913    7.82273605020725   16.31588626161865
H        15.10699232045590    9.94469001362362   13.75864855003260
H        17.44114823178177    9.34659754234517   13.29619229172045
H        18.07083928052105    7.00645660458147   12.86044266761577
H        16.33873625877520    5.25476918511558   12.78664632160280
H        14.00742751458999    4.60839474469746   12.95904674641212
H         9.73789173269736    5.91891905824783   12.98261465271373
H        12.86144794870262    3.29396821792280   14.31382346937363
H        11.31301183535452    1.40134289754056   13.93171678036369
H         9.10330633325246    0.65249250483347   12.70231197152317
H         8.44657874745538    0.73901946418469   10.35508944204929
H         7.08575254842681   -0.74757013739960    8.94185426260556
H         4.68760001383992   -1.06948091893015    9.43342015202502
H         3.66412849039347    0.09406911470638   11.35382611035683
H         5.01660063213691    1.56702517650169   12.76909827627586
H        12.98058064007250   16.59845292217137   12.18152946651447
H        13.24634153094219   18.86611366131823   13.09780133497929
H        14.58196194554998   20.54504780846818   11.87847478160883
H        15.69186221777345   19.92388424450958    9.76291975560550
H        15.42653977599024   17.66120292177508    8.84553259140188
H        16.01447582203678   15.47005810470982    9.59325540955735
H        16.89400675497458   13.19611817052039    8.74260744378310
H        16.45476475015377   10.77032358210015    8.54951646871037
H        12.34615218801385   11.57955953873452    9.43070099689595
H        16.06859703872803    9.14706654963914    9.95612566703981
H        17.08881306368140    6.97346175017688   10.24191832220537
H        16.92571544807140    4.51557369885269   10.13845221485628
H        14.80815787124961    3.44801426337471    9.47495592190151
H        12.87953966295848    4.80331803065360    8.81891948773284
H        13.66281372061573    7.55673658767555    6.33473621956718
H        13.82120935088702    6.98157215985041    3.96168200584878
H        12.06332744724255    5.64756528191347    2.86956102560852
H        10.11796458192102    4.87044391981465    4.16708523789907
H         8.95775905214627    4.69018628855757    6.28822607235334
H         9.44197249239458    4.66647923530637   10.69005438730421
H         7.03130254138265    5.26736203759535    7.19756474158743
H         5.08679783223768    4.49117381721739    8.51281221783928
H         4.11912692663368    4.16623356640811   10.86669950876257
H         4.87970169254614    2.56843832053554   14.68806146662871
H         3.04388173355357    2.97119104999210   16.25263441930080
H         1.49244283003758    4.85758089929357   15.89577714251066
H         1.80430966513419    6.34742192554063   13.95064618589524
H         3.64869269357265    5.94925140995840   12.37449415166713
H        14.44458443706668   13.76255802012855    6.13741407366766
H        16.27461001363998   14.87137588271000    4.90772499091077
H        16.49895388591760   17.32813480243962    4.98060682078791
H        14.90030023925193   18.66790664836834    6.29958812941899
H        13.10158581710161   17.55647948291413    7.56623625621765
H        11.87192419721254   14.23239538262086    5.79190565829887
H         9.71927239979533   12.77102740010406    5.84784174917825
H         8.13122047083878   11.45397112250264    7.21812143379857
H        10.14547209879805   12.93376546254295   10.68601719999909
H         7.86781107291153    6.65931303345748   11.49323599941445
H         5.92229828097936    9.35097604227981   14.20076527572454
H         5.70361622756376    7.45558611766219   15.77953311739239
H         6.49567427639818    4.96875892547686   16.34104417509883
H         8.71021086510507    4.05509890203035   16.82875056592761
H         9.48685393617288    2.24076277655931   18.29850466803653
H         8.79302334178834   -0.08870446891176   17.86303621991323
H         7.31083613651421   -0.58777950984066   15.95422417935096
H         6.53560533223324    1.21114853311780   14.48729790428517
H         7.09968974371677    7.98869405720557   10.01133957768772
H         8.05165918815748    9.61531513562702    8.48754408968006
H         8.31607892766197   12.44955425661337   11.68755446236014
H         7.48788817805163   10.77353442533214   13.24018152614465
H        10.44591569860970    6.77080532354591   14.89092155391988
H        11.21612515943992    7.18602705433393   10.36424203927033
H        11.55141214320680   11.02748606540584   11.93467270618680
H        11.30291361552831    9.11100969896935    7.72052282496302
