242
 energy: -387.655908270781 gnorm: 0.000324369184 xtb: 6.4.0 (d4b70c2)
ZN        6.84835058030000    0.07524197000000   -0.06772496960000
N         5.69599191030000    1.76651913080000   -0.58682299720000
C         4.57817434030000    2.21724263010000   -0.05244740660000
H         4.12853334020000    1.59059443900000    0.70280151240000
C         3.99387218030000    3.44253475060000   -0.39847920490000
C         4.64367637040000    4.19753988200000   -1.38166401380000
H         4.24982901040000    5.15532004240000   -1.68509953240000
C         5.79428903040000    3.71104324280000   -1.96762048440000
H         6.30276241050000    4.27161158390000   -2.73664327360000
C         6.30784626040000    2.48489856220000   -1.54082063610000
C         7.53667230040000    1.94725504290000   -2.08280397680000
N         7.97492406040000    0.80941509240000   -1.70052114850000
C         9.20068913040000    0.34041760310000   -2.17696500910000
C         9.30827410040000   -0.97935580630000   -2.61704903090000
H         8.42484758040000   -1.59869949630000   -2.64974253190000
C        10.52305320040000   -1.46144459570000   -3.06348964160000
H        10.59668562040000   -2.47577765520000   -3.42319200300000
C        11.64579224040000   -0.64670075570000   -3.05591493030000
H        12.59433761040000   -1.03119345520000   -3.39448149080000
C        11.54446949040000    0.66403027370000   -2.61602460850000
H        12.41486688040000    1.30092416360000   -2.60762984750000
C        10.32853839040000    1.16460094310000   -2.19074152780000
H        10.25428966040000    2.17493737250000   -1.81590209640000
H         8.05950305050000    2.54467011400000   -2.82915518600000
C         2.82198619030000    3.95477951950000    0.31203587580000
C         2.75178761030000    5.29621541910000    0.61941846770000
H         3.53362452030000    5.96441981960000    0.29230406870000
C         1.73218407020000    5.82466580800000    1.42618542840000
C         1.69313484020000    7.19572254750000    1.76167720030000
H         2.44169130030000    7.85238622810000    1.34556530130000
C         0.73463628020000    7.67897345630000    2.60734436100000
H         0.70943749020000    8.72563723590000    2.86446867250000
C        -0.20994219990000    6.80588649550000    3.16795257970000
H        -0.93998005990000    7.19277325450000    3.86166242020000
C        -0.20543828990000    5.47354053590000    2.85274692780000
H        -0.92378297990000    4.81061107530000    3.31232503680000
C         0.74801713020000    4.94727468720000    1.95575781710000
C         0.77859407020000    3.57289987770000    1.58107576510000
C         1.78736716020000    3.09274051890000    0.76954180450000
O         1.80701939030000    1.79521445950000    0.33917071260000
H         1.20499868020000    1.26509054870000    0.87978809180000
C        -0.27040312980000    2.65305838700000    2.09534550370000
C        -1.59034680980000    2.85686628750000    1.73790279390000
C        -2.61845650990000    2.01782823680000    2.24773210270000
C        -2.28568637990000    0.97278855560000    3.07590503120000
H        -3.05953764990000    0.33527838510000    3.47691203020000
C        -0.95747382990000    0.75020791500000    3.48035046090000
C        -0.62779580000000   -0.27738393630000    4.38978042950000
H        -1.42411128000000   -0.90152667680000    4.76608712850000
C         0.66036125000000   -0.45281543690000    4.81086153930000
H         0.90462094990000   -1.23328755790000    5.51514078820000
C         1.66796557000000    0.41197964380000    4.35854093060000
H         2.67315368000000    0.29892462320000    4.73316270050000
C         1.38291933010000    1.41454412500000    3.47411564200000
H         2.16297679010000    2.09301945550000    3.16108837300000
C         0.06770711010000    1.60715289570000    2.99766634220000
C        -4.01476589980000    2.28366018740000    1.88559473300000
C        -4.56909253980000    3.56592456730000    1.89678856480000
H        -3.98403986980000    4.41208900690000    2.21910750600000
C        -5.87644316980000    3.73342427800000    1.48650472490000
H        -6.33102501980000    4.71147865800000    1.48163506630000
C        -6.60225065980000    2.62583621860000    1.03869452330000
N        -6.08814279980000    1.38905034850000    1.07132771150000
C        -4.84763078980000    1.23204333790000    1.49793768140000
H        -4.45863716980000    0.22369814790000    1.50577306000000
ZN       -7.40901674970000   -0.00718908990000    0.02145410950000
N        -8.42517888970000   -1.28483584800000   -1.34008668240000
C        -7.89686968960000   -1.25135158630000   -2.50418019230000
H        -8.34311010960000   -1.76681742510000   -3.35394166310000
C        -6.62050829960000   -0.60544550600000   -2.71536785130000
N        -6.14073209960000    0.14447674250000   -1.71250773020000
C        -4.92061874960000    0.63838125270000   -1.81649366950000
H        -4.56667017970000    1.23201939150000   -0.98601857860000
C        -4.07207866960000    0.39904486420000   -2.90093826980000
C        -4.59752032950000   -0.32964989420000   -3.97164007080000
H        -4.00575820950000   -0.50784516300000   -4.85473861100000
C        -5.88404260950000   -0.82210505430000   -3.88268221160000
H        -6.31245214950000   -1.39289888320000   -4.69149461250000
C        -2.69346051960000    0.89687774420000   -2.88316771900000
C        -2.40005645960000    2.16065160350000   -2.42761179710000
H        -3.19235182960000    2.80640525300000   -2.07987237620000
C        -1.09289112960000    2.67496663360000   -2.47782749630000
C        -0.04579529950000    1.86121567430000   -2.98811472740000
C         1.23958477050000    2.42840428450000   -3.12439090650000
H         2.03149215050000    1.84094433510000   -3.56576212730000
C         1.47510388050000    3.72294784400000   -2.75426924470000
H         2.45233790050000    4.15172228420000   -2.90637353400000
C         0.45127431040000    4.51227551320000   -2.20957925360000
H         0.65939849040000    5.53166530280000   -1.92312048210000
C        -0.80888083960000    3.99988165300000   -2.08255463440000
H        -1.61976115960000    4.60792653250000   -1.71049824360000
C        -0.33705965950000    0.53103943490000   -3.39554657930000
C        -1.63844220950000    0.06581407480000   -3.35177533010000
O        -1.96134277950000   -1.20163930460000   -3.70967703190000
H        -1.17953831950000   -1.65446989410000   -4.05884065250000
C         0.73402842050000   -0.35060932430000   -3.93228836050000
C         1.77209894040000   -0.76313852550000   -3.12080357110000
C         2.80472676050000   -1.59742127480000   -3.63233999220000
C         2.71628006050000   -2.04826266290000   -4.93041569290000
H         3.49596375050000   -2.67475561240000   -5.33620512370000
C         1.67637936060000   -1.65059221170000   -5.78576282240000
C         1.61863794070000   -2.08489213980000   -7.12798454300000
H         2.37325514070000   -2.76949529930000   -7.48374183390000
C         0.63515368070000   -1.63607983860000   -7.96409763240000
H         0.59664292080000   -1.96609688710000   -8.98971629290000
C        -0.31879118930000   -0.71994255920000   -7.49587678110000
H        -1.06974692930000   -0.34622052820000   -8.17430140060000
C        -0.29698946940000   -0.28980822110000   -6.19623655050000
H        -1.02323972940000    0.43458099840000   -5.85773186950000
C         0.68496464060000   -0.75722225240000   -5.29751053110000
C         3.97412506040000   -1.93842211600000   -2.82115967260000
C         4.57899697040000   -3.19722602590000   -2.89512782440000
H         4.18786270040000   -3.95480491490000   -3.55644565550000
C         5.67476800030000   -3.47368241700000   -2.10337810470000
H         6.14070680030000   -4.44660438700000   -2.12440750610000
C         6.18812564030000   -2.47017080820000   -1.27973851330000
N         5.65496532030000   -1.23938418820000   -1.26111458150000
C         4.58173766040000   -0.99231388720000   -1.98571046120000
H         4.18043531040000    0.00734233270000   -1.91523190980000
C         7.33354142030000   -2.70631820940000   -0.43058082350000
N         7.91500694020000   -1.74296917030000    0.17480468790000
C         9.00509742020000   -2.02123118150000    1.00295677750000
C         8.94649658010000   -3.04923200290000    1.94644371610000
H         8.02837112010000   -3.60673756300000    2.06948729520000
C        10.04127800010000   -3.31654036400000    2.74568169570000
H         9.98739173000000   -4.10375693510000    3.48122132460000
C        11.21041088010000   -2.58627237380000    2.59344086690000
H        12.06959696000000   -2.81083258470000    3.20491164660000
C        11.27162811010000   -1.56834515250000    1.65365281830000
H        12.18244961020000   -1.00476353230000    1.52530856920000
C        10.17103321020000   -1.26889837130000    0.87257256870000
H        10.21954691020000   -0.49001850030000    0.12775700980000
H         7.69874931020000   -3.73076298950000   -0.35994093500000
O         1.82499216040000   -0.44279226740000   -1.79327398060000
H         1.23894185040000    0.30455343230000   -1.60942661960000
C        -9.63779297970000   -1.94934387820000   -1.15109673340000
C       -10.70522104960000   -1.79005894690000   -2.03872870330000
H       -10.60855252960000   -1.11706282570000   -2.87717342230000
C       -11.90087005970000   -2.44167096730000   -1.80467039430000
H       -12.72685858960000   -2.30026770630000   -2.48364357410000
C       -12.03843638970000   -3.27845095880000   -0.70752959550000
H       -12.97017097970000   -3.79230899910000   -0.53391418630000
C       -10.97357007980000   -3.45682413010000    0.16384293430000
H       -11.07333233980000   -4.12224088130000    1.00691321330000
C        -9.78289080980000   -2.78950596980000   -0.04502924470000
H        -8.94072723980000   -2.94657754080000    0.61120377520000
N        -6.13912969980000   -1.53349430110000    0.82509560740000
C        -4.95486702980000   -1.93810651050000    0.40924254680000
H        -4.66342847970000   -1.62659750910000   -0.58339502270000
C        -4.06478564980000   -2.68785317160000    1.18667336580000
C        -4.52260088990000   -3.10702387340000    2.43973348520000
H        -3.90899580000000   -3.73450651430000    3.06495379430000
C        -5.76952116990000   -2.70149535400000    2.87296139570000
H        -6.14020620000000   -3.00503822540000    3.83946701520000
C        -6.54305646990000   -1.87074712290000    2.05856387680000
C        -7.79555116990000   -1.31364647350000    2.51686423760000
N        -8.46120356990000   -0.49911233250000    1.78854772870000
C        -9.64793396990000    0.04823932690000    2.27842021940000
C       -10.75561358980000    0.13551829810000    1.43456553950000
H       -10.68217674980000   -0.22783440050000    0.42223696900000
C       -11.95381488980000    0.62474348740000    1.91829066010000
H       -12.81396225980000    0.65756051830000    1.26832551010000
C       -12.05290352990000    1.07045430550000    3.22774949070000
H       -12.98780796990000    1.45889034500000    3.59873707120000
C       -10.94400714000000    1.01990735430000    4.05984887070000
H       -11.01266543000000    1.37973381290000    5.07445036120000
C        -9.75069919990000    0.50055110500000    3.59738620010000
H        -8.88129897000000    0.48280757400000    4.23891037010000
H        -8.14718703000000   -1.62473424490000    3.49988045710000
C        -2.71979894980000   -2.97131487090000    0.68029053550000
C        -2.50775056970000   -3.22945717900000   -0.65557932490000
H        -3.34326072970000   -3.26550826800000   -1.33798536500000
C        -1.23078023970000   -3.52203821830000   -1.16130093520000
C        -0.12052904980000   -3.54261881960000   -0.27499373520000
C         1.14317623030000   -3.90547602890000   -0.78783123560000
H         1.98705672020000   -3.97016436980000   -0.11646441570000
C         1.29528854030000   -4.21569800700000   -2.11025904610000
H         2.25803444040000   -4.52927957640000   -2.47842076640000
C         0.20519326040000   -4.16588543570000   -2.99212436600000
H         0.35036658050000   -4.41817254420000   -4.03130739640000
C        -1.03500118960000   -3.83572306630000   -2.52386917560000
H        -1.89269518960000   -3.83139092540000   -3.17926957570000
C        -0.33193685980000   -3.25337905150000    1.09874290520000
C        -1.60474095990000   -2.97765858220000    1.56434906550000
O        -1.82884389990000   -2.67397039410000    2.86633237600000
H        -1.00419326000000   -2.76258054480000    3.36708696590000
C         0.78716187010000   -3.34475571300000    2.07703761520000
C         1.81320657010000   -2.42092301300000    2.06825459650000
C         2.89017162010000   -2.52662110430000    2.99304765650000
C         2.85991943000000   -3.53998585560000    3.92785829500000
H         3.67703713990000   -3.65284882660000    4.62375296490000
C         1.83229990000000   -4.49410503570000    3.96966795360000
C         1.83467303990000   -5.54130688700000    4.91706798210000
H         2.63266918990000   -5.58217889810000    5.64250982210000
C         0.85013616990000   -6.48878395700000    4.90914023070000
H         0.85517792990000   -7.28877048810000    5.63183213950000
C        -0.16589738000000   -6.43593590560000    3.94267680070000
H        -0.92227380000000   -7.20504556560000    3.92925893950000
C        -0.19988041000000   -5.42860532430000    3.01605098210000
H        -0.97726329990000   -5.41471471320000    2.26647556210000
C         0.78576838000000   -4.41963960430000    3.01234610360000
C         4.05572014010000   -1.64274329420000    2.94656273780000
C         4.74979532000000   -1.29901905590000    4.11368315830000
H         4.38738138990000   -1.61645272730000    5.07934320790000
C         5.89523801000000   -0.53636934580000    4.02763103950000
H         6.43804944000000   -0.25247850710000    4.91560179990000
C         6.35198420010000   -0.13268293400000    2.77102222010000
N         5.69163348020000   -0.45955484240000    1.65063361960000
C         4.58415345010000   -1.17219167250000    1.73810753850000
H         4.08601488020000   -1.39230848120000    0.80630757820000
C         7.53280648010000    0.68599300620000    2.63300417130000
N         7.91949744020000    1.10829946780000    1.48939217200000
C         9.05645091020000    1.91797458790000    1.41304686320000
C        10.20589271010000    1.63925435680000    2.15675562290000
H        10.23479750010000    0.76290103590000    2.78670157160000
C        11.32043437020000    2.44724161700000    2.04116452410000
H        12.20860638010000    2.21483213620000    2.60720159380000
C        11.29768569020000    3.55741235820000    1.21106462570000
H        12.16675942020000    4.19015970830000    1.12896552660000
C        10.14875450030000    3.85677817920000    0.49457542600000
H        10.11849157030000    4.73572041010000   -0.13117983270000
C         9.03765964030000    3.03994318910000    0.58388959480000
H         8.12944209030000    3.29301851990000    0.05878466510000
H         8.04594729010000    0.96797357480000    3.55182421180000
O         1.80771927020000   -1.35720275170000    1.21044708810000
H         1.15488043020000   -1.50691401070000    0.51272410780000
N        -8.43587579970000    1.84211772050000   -0.24720517790000
C        -7.90419456970000    2.78577842950000    0.43311740340000
H        -8.36652916970000    3.76889896940000    0.50811982480000
C        -9.66550360970000    2.06251115140000   -0.87054444770000
C        -9.85139029960000    1.59836037320000   -2.17318854840000
H        -9.02758867960000    1.12012183400000   -2.68186679900000
C       -11.05033159960000    1.82006787420000   -2.82243897810000
H       -11.18090886950000    1.48601712560000   -3.84029969860000
C       -12.08375530960000    2.48227945330000   -2.17639650720000
H       -13.02156908960000    2.64425124400000   -2.68317387710000
C       -11.90532426970000    2.94260311140000   -0.88052017660000
H       -12.70576451970000    3.46050547070000   -0.37621964590000
C       -10.70157441970000    2.74892331050000   -0.23150134680000
H       -10.57443313980000    3.08345149900000    0.78741300370000
O        -1.96028095980000    3.82339286880000    0.86174605530000
H        -1.19307920970000    4.36726528910000    0.63035284610000
