260
 energy: -406.562802920248 gnorm: 0.000812665161 xtb: 6.4.0 (d4b70c2)
Zn        8.96839072839277   19.08351637263820   40.14349424857294
Zn       10.32800139199375   18.09950732728437   26.77980133003752
O         7.19570261333044   19.44687142046499   34.84890256811480
O         6.01433102380382   20.28519170294949   31.28234561576611
O         9.84669621019010   16.41811936268282   35.43191392479473
O        10.01380949712483   14.22337155347726   32.58509581669675
O        11.20984071831432   20.34589389968475   35.39399520735213
O        13.16235109324793   21.11783668158450   32.48824553016425
N         9.32965489299824   20.99493409879581   41.03188194045725
N         7.97745036520132   20.39463204332360   38.73312118777087
N         8.43139866591535   18.48354847039842   27.67535360833286
N         9.57900594186900   19.61845285044159   25.48983851180618
N         7.18336317055765   18.65350531179141   41.15187845986959
N         8.42450645605840   17.30950038123136   39.13715907997778
N        10.79089822051297   16.49395478358151   28.09261660440209
N         9.65470183045874   16.44792686709600   25.64134852950505
N        10.23360716711212   18.00478522950048   41.52376611275523
N        10.88339082760116   19.43538638719049   39.30026412254090
N        11.30438994429674   19.52974763593861   28.01123828575433
N        12.26681901653304   18.13771587790215   25.90307546348348
C        10.15792143850686   21.28845878108595   42.11695391262440
C        11.29047261094016   22.08911973399438   41.95707577349528
H        11.54362824751899   22.46052018910259   40.97321841994913
C        12.10033956202745   22.36310716040059   43.04250373276040
H        12.98163021154141   22.97165093284772   42.91311450860132
C        11.77307783468117   21.87243806087000   44.29743266837635
H        12.39561130022022   22.10538184851423   45.14639384856618
C        10.64322042748938   21.08441632762811   44.45880836087107
H        10.37936959676822   20.71299703472246   45.43680818748211
C         9.84600950009000   20.77226362720485   43.37310579490308
H         8.95794228652735   20.17064617206161   43.49217082605354
C         8.93041319002463   21.94179218712862   40.27506256542324
H         9.15887198968462   22.98553238612298   40.49163964349849
C         8.08844878038710   21.67207489851146   39.13006813531814
C         7.38769749084502   22.70307223618127   38.50107801505604
H         7.50455193802648   23.72009813435087   38.84175115360675
C         6.52335929469158   22.39521678788273   37.47008307517329
H         5.94669098565667   23.16756515069419   36.98405499079956
C         6.40942904537741   21.06789454551927   37.05145400750641
C         7.18775644627041   20.11024203642488   37.71425389945514
H         7.14476322118492   19.07499078659522   37.40692151315512
C         5.46207539593334   20.67930267769327   36.00220520392503
C         4.15441066784427   21.09934146443981   36.07275981709464
H         3.83740923756662   21.73699770979976   36.88498956477813
C         3.19063701736368   20.65596042141025   35.14888266564881
C         1.83666736497400   21.04236673526738   35.24686050651735
H         1.54450737764826   21.71422504126257   36.03940009812798
C         0.91172710942724   20.56887400867855   34.35823740570616
H        -0.12232086701384   20.86395014509140   34.43861365341287
C         1.29942961883742   19.68497159055292   33.33954173400506
H         0.55518450047758   19.30712680556430   32.65596512293089
C         2.60709201568623   19.30023020340729   33.21143256825925
H         2.89942560660509   18.61337298613066   32.43011650437106
C         3.58701611823215   19.77849307291249   34.10497580886724
C         4.95917488662922   19.42223985389414   33.98562277422995
C         5.86687993168386   19.83774149098514   34.93180104087587
C         8.05001348061306   20.43622240913113   34.30517500966705
H         7.89375849321381   20.53993097934814   33.22668953814176
H         9.07212496633039   20.11728424740506   34.49883846194303
H         7.88748407656851   21.40879590264172   34.77935791598640
C         5.39436692850923   18.52325345224144   32.88401241113611
C         5.31820917259825   17.12341479377555   33.13510827305052
C         4.84739991331525   16.61345889572566   34.36342674059372
H         4.54933509920010   17.30239611873230   35.13886183466033
C         4.74739426958134   15.26492436641304   34.57182719074175
H         4.37207732015932   14.89087478394704   35.51220593705881
C         5.09702877797869   14.35549704738486   33.56256074089221
H         4.98028290816505   13.29686321831304   33.73351155769055
C         5.56521318860134   14.81624662800849   32.36444780042344
H         5.80945527591992   14.12869503757485   31.56770112142627
C         5.70484768289258   16.20084120203249   32.12949604927483
C         6.20131362129417   16.69715155435669   30.91133152474198
H         6.48496109971303   15.99770392150493   30.13750910476863
C         6.25900227225553   18.04538052535668   30.66594909213804
C         5.84040552963502   18.98047505314579   31.66106979493283
C         5.16840157350841   21.30501556512782   31.77772882591126
H         4.12214029290471   20.99451153313091   31.78168654836303
H         5.29114135210141   22.13936358887400   31.08782431335143
H         5.45679567192450   21.62623287092429   32.78102676467712
C         7.93561956791355   18.07827628509637   28.83074247699656
H         8.53185166173341   17.36648064406872   29.38615214201348
C         6.72345712838158   18.53057455494993   29.36016723148952
C         5.98310014429192   19.42449177898656   28.58295951118454
H         5.02663566484164   19.78277122451152   28.92849250776287
C         6.48129762276631   19.82726269057963   27.35932835910338
H         5.92585731255212   20.50900280596349   26.73424367948674
C         7.72697452334502   19.35550515105830   26.93988342841918
C         8.34398258984147   19.83714568611610   25.72005914560933
H         7.73431967317891   20.44674124200580   25.05344607397526
C        10.16841921894685   20.15481123800410   24.33454616956661
C        11.23942653110591   21.03720780453508   24.47031893569429
H        11.56464834827201   21.32964876676872   25.45776608485910
C        11.82752935168532   21.58577463274715   23.34517706464117
H        12.63861766565350   22.28890519562499   23.45565934630672
C        11.37398745064991   21.24219210333522   22.08040320874668
H        11.84195193559988   21.66518464158295   21.20611925657106
C        10.30988996429248   20.36479668677028   21.94552436881230
H         9.94633804629374   20.10158392201397   20.96500958460925
C         9.69388715721730   19.83506414239057   23.06473413430020
H         8.86736168354678   19.14882034526297   22.96360224518040
C         6.66242376723293   19.28922972457145   42.28104157678183
C         6.46405568651881   18.58112807139746   43.46852721120964
H         6.72168319915237   17.53297353539939   43.51206313948653
C         6.00598950307742   19.23726180342215   44.59545316747242
H         5.87132716076387   18.68757003987081   45.51360885838530
C         5.71646647542461   20.59203717241680   44.54658680766384
H         5.35190044219873   21.09883417975763   45.42550016065923
C         5.89376166657961   21.29377273693847   43.36320109751825
H         5.65297583633519   22.34443816757666   43.31929472721638
C         6.37465022712476   20.65348089838244   42.23756268846447
H         6.48785649164252   21.18826657905431   41.30681907207173
C         6.70775140349888   17.52856693710852   40.77567178779100
H         5.84326281314260   17.07931410071694   41.26369768467584
C         7.32103552827347   16.78539365897757   39.69767663204478
C         6.82774110757757   15.53737940114131   39.30837845544855
H         5.92485155976337   15.15213655442302   39.75620594184662
C         7.52644558230637   14.79892074807720   38.37575220866997
H         7.17667325968410   13.82317642481309   38.07513229903386
C         8.69798083198164   15.32540208530194   37.82093991181245
C         9.07610627816433   16.61493688109285   38.22437147642771
H         9.95673515242223   17.07787569161689   37.80246152392598
C         9.54375219462086   14.53316809249180   36.92806907454007
C         9.79620084438811   13.21284820043294   37.22806133351479
H         9.34247873304669   12.76205249318555   38.09871355173460
C        10.68974621328741   12.44206664928427   36.46527947696301
C        10.95740466073553   11.09213541296813   36.78045393456515
H        10.44418351125854   10.64156507459720   37.61645993284551
C        11.85060630652693   10.36936803961285   36.03982155298709
H        12.05240928154133    9.33822954913928   36.28309541384110
C        12.51841970001168   10.96771796623697   34.96033122535635
H        13.22805090334002   10.38658485732723   34.39198328388977
C        12.27962886607105   12.27485405739641   34.62947775558416
H        12.80012915647132   12.73171212012919   33.80111026914167
C        11.35661213515725   13.04378137733547   35.36448761519182
C        11.06068287082964   14.39360077032319   35.03468354894719
C        10.16740430031205   15.11434322874156   35.78973215362434
C         8.56458733594316   16.52338564912902   34.83998075880125
H         8.53543202940746   16.00634954090440   33.87706826880241
H         8.36486129225537   17.58216520617198   34.69905270643041
H         7.78711043228596   16.09618011323805   35.48206042473805
C        11.75013287774346   15.02633328776347   33.88182507260650
C        12.96947038069527   15.70534159559630   34.08981466452148
C        13.56244756759532   15.82030810973428   35.36664944822176
H        13.06448603438197   15.37292400188981   36.21335537953244
C        14.75516394639367   16.46778528190448   35.52297523570154
H        15.20969618737769   16.53869728873630   36.49938702404671
C        15.42212609103602   17.02128505664937   34.41614499827793
H        16.37740936063124   17.50207404271229   34.55841624177338
C        14.87325813509805   16.93149037870083   33.16933173300148
H        15.39201493706114   17.32610710344186   32.30774402829276
C        13.63057756073438   16.28687964458762   32.97621752213390
C        13.03982496511781   16.17339236752522   31.71013811402387
H        13.55656772362570   16.59285231824978   30.85762173298210
C        11.86450567953456   15.47875400585382   31.50337096689383
C        11.19797178441267   14.90283520192446   32.61551550718839
C         9.07956779841536   14.39432300342421   31.55116106235805
H         9.05000791864495   15.42864710508722   31.19223512555923
H         8.11358814014203   14.14162266078796   31.99040779245667
H         9.26967996647725   13.72084640746282   30.70976400037900
C        11.18732827203918   16.50692029585325   29.35139659795388
H        11.31250105183118   17.47942497114281   29.80868419414074
C        11.42092227270241   15.35364274177827   30.10544271825789
C        11.30226676438616   14.12595366729858   29.44767341795168
H        11.53460102946992   13.20774351537843   29.96651947210199
C        10.90764803827762   14.10821450353119   28.12250231381272
H        10.80787524064021   13.17529061461527   27.58989725482808
C        10.62711244649172   15.31444735182444   27.47607601994671
C        10.09694653776838   15.35310456198295   26.12818539326999
H        10.02639539653131   14.41101769788825   25.58587317624836
C         9.09205203710245   16.45857651955430   24.36077946409389
C         9.75320728489508   15.89762290260951   23.26821667878007
H        10.73715482447844   15.47439755137353   23.40134988333109
C         9.16939466355089   15.93511635611330   22.01588775908897
H         9.69310851119475   15.51487456485963   21.17204138824512
C         7.91194789474711   16.49347102915100   21.84585571567989
H         7.45238187252402   16.50531124145748   20.87062880420714
C         7.24190011503165   17.03092334835207   22.93543688608843
H         6.25447875729601   17.44773888627127   22.80949373090971
C         7.83178238235938   17.03137932666151   24.18572662071630
H         7.30380239559394   17.42150791998317   25.04356659544838
C         9.89803456284702   17.26859028847564   42.66505262333944
C        10.41013178189672   17.59890372663159   43.92142864232861
H        11.06799923500486   18.44895858239238   44.02109255339865
C        10.03525921906577   16.87469959966063   45.03694452197086
H        10.42397686425223   17.14761777187144   46.00528326738812
C         9.17387194684495   15.79566748062385   44.91459402397343
H         8.88918809459615   15.22803347312763   45.78588021876490
C         8.69002050939454   15.44167254423025   43.66429173772791
H         8.04223587966024   14.58468247106905   43.56000790488724
C         9.03923317385430   16.17571726270340   42.54651947262958
H         8.69747126408118   15.87511816178636   41.56858332728984
C        11.45418274506784   18.33252634545736   41.32985559539131
H        12.24700882868866   18.02292820770097   42.01020117015688
C        11.84684267659648   19.10143417002456   40.17328991390271
C        13.17580112284979   19.48158744975561   39.97167004720262
H        13.93371947354358   19.18202217523696   40.67832356420423
C        13.49841008412976   20.25089493675885   38.87351894874221
H        14.51962642555251   20.55391714046218   38.70141392361934
C        12.49087033626936   20.62639602134108   37.97670640135617
C        11.19549668549057   20.16068904409425   38.24412882582400
H        10.38553156256677   20.40228909126282   37.57113642648643
C        12.74915233590271   21.53741278872344   36.86210462283636
C        13.62285248293498   22.58895597166721   37.04059509876013
H        14.14160280723720   22.70386733560864   37.98110103711811
C        13.81568469174744   23.57012143717273   36.05436032621385
C        14.70714572310488   24.64837514365973   36.24517351389758
H        15.27320135013307   24.69977280640529   37.16294265371333
C        14.85192142332579   25.60829718731655   35.28271518892437
H        15.53491717625217   26.42976104666252   35.43045963379612
C        14.10625208667196   25.53516363697753   34.09593019669724
H        14.22549614597581   26.30610871049151   33.35045235375822
C        13.23374552260466   24.50171718444841   33.88183476552175
H        12.65985707565248   24.45157081556791   32.96863738519593
C        13.07093145790226   23.48979474555815   34.84767614965418
C        12.19621712493208   22.38822878406562   34.65356590175818
C        12.05511954533674   21.42417249371042   35.62364157781003
C        11.87937933956575   19.11065866688945   35.20898038531128
H        12.43970912819247   19.10864648224776   34.27016714471205
H        11.11406858729974   18.33704008795269   35.18030117870056
H        12.57508882988850   18.89820645773218   36.02544117341831
C        11.39604998365324   22.30760735681148   33.40583733532136
C        10.12241837173692   22.91614225430533   33.36165870781596
C         9.58278321429583   23.62284387722565   34.45888152323953
H        10.17223827935836   23.71703504095942   35.35837975966411
C         8.34258635637070   24.19181529891321   34.37741123984841
H         7.94490682103519   24.74537851908109   35.21472830385086
C         7.58021099313612   24.08731125216545   33.20097930937514
H         6.61044652544051   24.55851747877390   33.15349878282303
C         8.07568157719132   23.41389462805541   32.12164312989157
H         7.51010500288844   23.34390589701545   31.20493664664632
C         9.35138488381054   22.81053584329662   32.17445125429938
C         9.89511571627670   22.13066582959279   31.07574321894884
H         9.32250403443903   22.08785741947796   30.15978111979328
C        11.16437818398821   21.58898821183269   31.10175143459439
C        11.92049472512682   21.65546081177806   32.30233669639156
C        13.56165718884035   19.94640297355014   31.82002631021693
H        12.71233993239177   19.29505974523601   31.58988926069877
H        14.23389708810860   19.42744061912984   32.50555695082157
H        14.10881243343404   20.16956075464407   30.89881291576904
C        10.91605113095201   20.08819875981521   29.14212993682784
H         9.95964765732442   19.77050902607514   29.53665880952063
C        11.67629990435175   21.02703309663886   29.84562643239731
C        12.87627076711797   21.44450458410087   29.26122202485153
H        13.46874749060462   22.21512292884188   29.73185796698101
C        13.27825650035670   20.87374039101243   28.06807327562036
H        14.20058400665383   21.17477475759662   27.59608563087930
C        12.48180383726999   19.88891412450683   27.47889917100374
C        12.91023889803729   19.16766833228591   26.29736154514942
H        13.83144508194740   19.49164312191362   25.81429944104146
C        12.72856030098803   17.41521021643463   24.79637231795765
C        13.00809805591632   18.04117377541185   23.58221683958521
H        12.84348070577732   19.10265243923685   23.48016322728270
C        13.44632559204149   17.29297873728913   22.50557588032824
H        13.64540824112009   17.78140700580505   21.56496290123809
C        13.64628021666732   15.92762724142896   22.63618272892377
H        14.00390636779635   15.35011874470992   21.79893996584680
C        13.39549350275835   15.30695833598989   23.85118414531771
H        13.57364214047689   14.24846384136514   23.96316485595288
C        12.92444483339150   16.03988306687834   24.92460257209523
H        12.76093120068461   15.56854699244293   25.88255943105176
