 Entering Gaussian System
 *********************************************
 Gaussian 98:
 frequency output generated by the xtb code
 *********************************************
                         Standard orientation:
 --------------------------------------------------------------------
  Center     Atomic     Atomic              Coordinates (Angstroms)
  Number     Number      Type              X           Y           Z
 --------------------------------------------------------------------
    1         46             0        0.429429    5.555498    0.082089
    2         46             0       -0.437836   -6.910798   -0.009886
    3          6             0        4.253614    1.512781    1.722483
    4          6             0        3.879821    2.206184    2.640783
    5          6             0        3.522629    3.089988    3.679282
    6          6             0        4.043733    2.951487    4.950481
    7          6             0        3.776641    3.901091    5.943880
    8          6             0        3.011146    5.010194    5.682181
    9          6             0        2.456043    5.192095    4.402482
   10          6             0        1.687747    6.322198    4.041283
   11          6             0        1.175343    6.426099    2.779685
   12          7             0        1.344835    5.449396    1.853386
   13          6             0        2.067830    4.385293    2.149385
   14          6             0        2.682334    4.208792    3.396983
   15          1             0        4.685729    2.112784    5.170280
   16          1             0        4.203944    3.765790    6.926179
   17          1             0        2.835653    5.753796    6.443580
   18          1             0        1.517554    7.101900    4.766482
   19          1             0        0.603547    7.291601    2.458985
   20          1             0        2.177024    3.620591    1.382086
   21          6             0        4.770406    0.780676    0.630582
   22          6             0        5.691607    1.434570   -0.208922
   23          6             0        6.279300    0.783665   -1.270223
   24          6             0        5.925792   -0.539934   -1.497120
   25          7             0        6.360784   -1.401138   -2.468820
   26          6             0        5.750978   -2.611734   -2.303716
   27          6             0        5.893570   -3.782736   -3.036714
   28          6             0        5.159065   -4.880332   -2.647109
   29          6             0        4.276069   -4.830325   -1.554706
   30          6             0        4.125678   -3.652123   -0.828408
   31          6             0        4.868683   -2.541528   -1.195613
   32          6             0        4.984591   -1.205327   -0.672015
   33          6             0        4.407199   -0.543022    0.401386
   34          1             0        5.951013    2.460869    0.001575
   35          1             0        6.999700    1.284560   -1.897527
   36          1             0        7.063283   -1.194842   -3.159723
   37          1             0        6.561766   -3.835541   -3.882016
   38          1             0        5.244258   -5.793733   -3.214808
   39          1             0        3.479881   -3.609718    0.033494
   40          1             0        3.702998   -1.036318    1.051589
   41          6             0        3.523664   -6.036621   -1.196302
   42          6             0        4.104457   -7.308624   -1.266002
   43          6             0        3.355353   -8.426819   -0.945497
   44          6             0        2.034555   -8.264012   -0.562693
   45          7             0        1.479261   -7.052709   -0.489593
   46          6             0        2.191566   -5.967613   -0.789697
   47          1             0        5.138956   -7.412730   -1.553005
   48          1             0        3.788847   -9.412622   -0.990297
   49          1             0        1.403051   -9.111408   -0.305089
   50          1             0        1.670171   -5.015010   -0.719897
   51          6             0       -1.489876    1.893615    4.152402
   52          6             0       -2.354873    2.630119    3.736204
   53          6             0       -3.325970    3.565723    3.325205
   54          6             0       -4.601068    3.555831    3.854910
   55          6             0       -5.522064    4.558735    3.529611
   56          6             0       -5.182161    5.595132    2.696108
   57          6             0       -3.895563    5.645624    2.129704
   58          6             0       -3.454860    6.695320    1.291900
   59          6             0       -2.191762    6.672113    0.773096
   60          7             0       -1.340267    5.641209    1.002695
   61          6             0       -1.711269    4.649312    1.790998
   62          6             0       -2.965167    4.605620    2.416402
   63          1             0       -4.879470    2.777533    4.548212
   64          1             0       -6.509362    4.524341    3.965215
   65          1             0       -5.886658    6.381435    2.474909
   66          1             0       -4.120657    7.515123    1.073801
   67          1             0       -1.810360    7.473710    0.148093
   68          1             0       -1.002873    3.837409    1.947197
   69          6             0       -0.454678    1.113011    4.713100
   70          6             0        0.437629    1.755607    5.591595
   71          6             0        1.448527    1.062003    6.218093
   72          6             0        1.570619   -0.294498    5.947295
   73          7             0        2.475116   -1.199902    6.434393
   74          6             0        2.213708   -2.429401    5.900797
   75          6             0        2.854702   -3.642604    6.115396
   76          6             0        2.377694   -4.750003    5.450200
   77          6             0        1.287891   -4.670099    4.566104
   78          6             0        0.654097   -3.450696    4.343504
   79          6             0        1.109805   -2.328197    5.016300
   80          6             0        0.691713   -0.950795    5.049399
   81          6             0       -0.330286   -0.244391    4.432502
   82          1             0        0.308535    2.809208    5.786894
   83          1             0        2.116332    1.556401    6.905790
   84          1             0        3.183620   -1.004804    7.122391
   85          1             0        3.696804   -3.719508    6.785294
   86          1             0        2.873590   -5.697605    5.591500
   87          1             0       -0.205305   -3.381492    3.696707
   88          1             0       -1.020391   -0.728288    3.760505
   89          6             0        0.833583   -5.888898    3.889707
   90          6             0        0.808679   -7.124696    4.547410
   91          6             0        0.399070   -8.258495    3.868713
   92          6             0        0.022366   -8.147796    2.540714
   93          7             0        0.039270   -6.970697    1.912312
   94          6             0        0.425878   -5.870398    2.556209
   95          1             0        1.092682   -7.187196    5.586109
   96          1             0        0.370567   -9.216494    4.361915
   97          1             0       -0.303140   -9.009895    1.962717
   98          1             0        0.426481   -4.948999    1.977407
   99          6             0       -3.917395    2.104618   -1.608790
  100          6             0       -3.450294    2.752214   -2.517793
  101          6             0       -2.973694    3.592409   -3.544496
  102          6             0       -3.508398    3.545210   -4.816694
  103          6             0       -3.111697    4.462106   -5.797297
  104          6             0       -2.199891    5.450602   -5.521502
  105          6             0       -1.625486    5.536101   -4.240304
  106          6             0       -0.707979    6.543697   -3.864709
  107          6             0       -0.186675    6.557996   -2.602511
  108          7             0       -0.490477    5.601600   -1.689408
  109          6             0       -1.353883    4.652204   -1.999103
  110          6             0       -1.986487    4.579905   -3.248001
  111          1             0       -4.260303    2.806613   -5.046990
  112          1             0       -3.553201    4.401007   -6.780695
  113          1             0       -1.922590    6.173199   -6.272804
  114          1             0       -0.431078    7.302194   -4.579411
  115          1             0        0.499530    7.331293   -2.270815
  116          1             0       -1.568384    3.899506   -1.242201
  117          6             0       -4.530994    1.434923   -0.527087
  118          6             0       -5.352887    2.197329    0.324015
  119          6             0       -6.025487    1.618134    1.376318
  120          6             0       -5.859093    0.254933    1.582420
  121          7             0       -6.409694   -0.552262    2.541723
  122          6             0       -5.973601   -1.833065    2.357124
  123          6             0       -6.277705   -2.984162    3.072427
  124          6             0       -5.702313   -4.166965    2.664827
  125          6             0       -4.820317   -4.223072    1.571924
  126          6             0       -4.507713   -3.066175    0.863421
  127          6             0       -5.089805   -1.869071    1.248621
  128          6             0       -5.019000   -0.521872    0.745618
  129          6             0       -4.355101    0.070222   -0.318685
  130          1             0       -5.467183    3.252929    0.129613
  131          1             0       -6.669581    2.204438    2.012419
  132          1             0       -7.076890   -0.261157    3.237025
  133          1             0       -6.947202   -2.956757    3.917929
  134          1             0       -5.913615   -5.068263    3.218729
  135          1             0       -3.862016   -3.100580    0.001019
  136          1             0       -3.726006   -0.505882   -0.977586
  137          6             0       -4.241725   -5.516276    1.194324
  138          6             0       -4.992531   -6.696872    1.245929
  139          6             0       -4.404838   -7.902775    0.907829
  140          6             0       -3.073940   -7.918183    0.525625
  141          7             0       -2.356734   -6.794187    0.469720
  142          6             0       -2.912527   -5.625783    0.787020
  143          1             0       -6.031730   -6.661366    1.532833
  144          1             0       -4.970343   -8.819872    0.938633
  145          1             0       -2.565345   -8.840786    0.254624
  146          1             0       -2.264622   -4.753387    0.730616
  147          6             0        1.824995    1.721883   -4.043409
  148          6             0        2.783500    2.324579   -3.617014
  149          6             0        3.874805    3.110074   -3.193719
  150          6             0        5.136602    2.930767   -3.724923
  151          6             0        6.187808    3.791062   -3.386128
  152          6             0        5.994717    4.852364   -2.537129
  153          6             0        4.727020    5.072872   -1.968525
  154          6             0        4.435828    6.161275   -1.115026
  155          6             0        3.181331    6.306382   -0.595222
  156          7             0        2.194925    5.407387   -0.839017
  157          6             0        2.425217    4.385184   -1.642116
  158          6             0        3.661314    4.176777   -2.269320
  159          1             0        5.304796    2.131564   -4.429822
  160          1             0        7.161106    3.626256   -3.823531
  161          1             0        6.801521    5.529660   -2.305333
  162          1             0        5.208933    6.877271   -0.885630
  163          1             0        2.914538    7.144085    0.041777
  164          1             0        1.610813    3.682088   -1.809412
  165          6             0        0.692090    1.100488   -4.614104
  166          6             0       -0.102109    1.873291   -5.481903
  167          6             0       -1.198714    1.335396   -6.117398
  168          6             0       -1.507420    0.004998   -5.866495
  169          7             0       -2.527826   -0.759398   -6.365990
  170          6             0       -2.439331   -2.020997   -5.851088
  171          6             0       -3.241338   -3.130894   -6.083183
  172          6             0       -2.922342   -4.303294   -5.435182
  173          6             0       -1.832939   -4.387798   -4.551086
  174          6             0       -1.037032   -3.271002   -4.310991
  175          6             0       -1.332728   -2.086502   -4.966392
  176          6             0       -0.728321   -0.779805   -4.979496
  177          6             0        0.380984   -0.230610   -4.353501
  178          1             0        0.171595    2.901689   -5.661706
  179          1             0       -1.791114    1.927498   -6.796897
  180          1             0       -3.202027   -0.457996   -7.050088
  181          1             0       -4.085240   -3.080790   -6.753280
  182          1             0       -3.544147   -5.171191   -5.590179
  183          1             0       -0.176930   -3.330805   -3.664194
  184          1             0        0.996983   -0.815312   -3.689602
  185          6             0       -1.552043   -5.667499   -3.893085
  186          6             0       -1.697152   -6.885099   -4.568682
  187          6             0       -1.448756   -8.074399   -3.906881
  188          6             0       -1.061651   -8.036099   -2.577882
  189          7             0       -0.916643   -6.877099   -1.932285
  190          6             0       -1.147139   -5.724798   -2.559786
  191          1             0       -1.986056   -6.892699   -5.607881
  192          1             0       -1.552263   -9.019900   -4.413979
  193          1             0       -0.858854   -8.943099   -2.012781
  194          1             0       -1.021232   -4.820598   -1.967588
 --------------------------------------------------------------------
     1 basis functions        1 primitive gaussians
     1 alpha electrons        1 beta electrons
 
 Harmonic frequencies (cm**-1), IR intensities (KM/Mole),
 Raman scattering activities (A**4/amu), Raman depolarization ratios,
 reduced masses (AMU), force constants (mDyne/A) and normal coordinates:
                      1                      2                      3
                        a                      a                      a 
 Frequencies --    10.6710                10.7547                10.9417
 Red. masses --    16.8307                15.7805                18.0290
 Frc consts  --     0.0000                 0.0000                 0.0000
 IR Inten    --     0.2181                 0.3399                 0.5546
 Raman Activ --     0.0000                 0.0000                 0.0000
 Depolar     --     0.0000                 0.0000                 0.0000
 Atom AN      X      Y      Z        X      Y      Z        X      Y      Z
   1  46     0.06   0.18   0.03     0.05  -0.12   0.06    -0.10   0.03   0.10
   2  46     0.07  -0.12   0.04     0.10   0.07   0.10    -0.15  -0.00   0.16
   3   6     0.00   0.01  -0.04     0.05  -0.01   0.01     0.01   0.02  -0.05
   4   6     0.02   0.01  -0.04     0.04  -0.02   0.01     0.04   0.03  -0.04
   5   6     0.04   0.02  -0.03     0.03  -0.03   0.02     0.06   0.03  -0.03
   6   6     0.05   0.01  -0.04     0.04  -0.03   0.01     0.11   0.04  -0.05
   7   6     0.07   0.01  -0.03     0.03  -0.03   0.02     0.12   0.04  -0.04
   8   6     0.09   0.02  -0.02     0.02  -0.04   0.02     0.10   0.02  -0.02
   9   6     0.07   0.03  -0.02     0.01  -0.05   0.03     0.06   0.01  -0.00
  10   6     0.08   0.04  -0.01    -0.01  -0.06   0.03     0.03   0.00   0.02
  11   6     0.07   0.05  -0.00    -0.01  -0.06   0.03    -0.01  -0.00   0.03
  12   7     0.05   0.05  -0.01    -0.00  -0.06   0.03    -0.02  -0.00   0.03
  13   6     0.04   0.04  -0.02     0.01  -0.05   0.03    -0.00   0.01   0.01
  14   6     0.05   0.03  -0.02     0.02  -0.04   0.02     0.04   0.02  -0.01
  15   1     0.01  -0.00  -0.01     0.02  -0.00   0.00     0.04   0.01  -0.02
  16   1     0.02   0.00  -0.01     0.01  -0.01   0.00     0.05   0.01  -0.02
  17   1     0.03   0.01  -0.01     0.00  -0.01   0.01     0.03   0.01  -0.01
  18   1     0.03   0.01  -0.00    -0.00  -0.02   0.01     0.01  -0.00   0.01
  19   1     0.02   0.02   0.00    -0.01  -0.02   0.01    -0.01  -0.00   0.01
  20   1     0.01   0.01  -0.01     0.01  -0.01   0.01    -0.00   0.00   0.00
  21   6    -0.01  -0.00  -0.04     0.05  -0.01   0.00    -0.01   0.01  -0.06
  22   6    -0.02  -0.01  -0.06     0.05  -0.01   0.01    -0.03   0.01  -0.08
  23   6    -0.02  -0.02  -0.05     0.04  -0.00  -0.00    -0.06  -0.00  -0.09
  24   6    -0.01  -0.03  -0.02     0.03   0.00  -0.01    -0.07   0.00  -0.08
  25   7    -0.00  -0.05  -0.00     0.03   0.01  -0.02    -0.10  -0.01  -0.09
  26   6     0.01  -0.05   0.03     0.02   0.01  -0.02    -0.09  -0.00  -0.06
  27   6     0.03  -0.06   0.05     0.01   0.01  -0.03    -0.11  -0.01  -0.06
  28   6     0.04  -0.06   0.08     0.01   0.01  -0.04    -0.10  -0.00  -0.04
  29   6     0.04  -0.05   0.07     0.02   0.01  -0.03    -0.08   0.00  -0.01
  30   6     0.03  -0.04   0.05     0.03   0.00  -0.02    -0.06   0.01  -0.02
  31   6     0.02  -0.04   0.03     0.03   0.00  -0.02    -0.07   0.01  -0.04
  32   6     0.01  -0.03  -0.00     0.04  -0.00  -0.01    -0.05   0.01  -0.05
  33   6     0.01  -0.01  -0.01     0.04  -0.01  -0.00    -0.02   0.02  -0.04
  34   1    -0.01  -0.00  -0.02     0.01  -0.00   0.00    -0.01   0.00  -0.03
  35   1    -0.01  -0.01  -0.02     0.01   0.00   0.00    -0.02  -0.00  -0.03
  36   1    -0.00  -0.01  -0.00     0.01   0.00  -0.01    -0.03  -0.00  -0.03
  37   1     0.01  -0.02   0.01     0.00   0.00  -0.01    -0.04  -0.00  -0.02
  38   1     0.01  -0.02   0.03     0.00   0.01  -0.01    -0.03  -0.00  -0.01
  39   1     0.01  -0.01   0.01     0.01   0.00  -0.01    -0.01   0.00  -0.00
  40   1     0.01  -0.00   0.00     0.01  -0.00  -0.00    -0.00   0.01  -0.01
  41   6     0.04  -0.05   0.09     0.01   0.01  -0.04    -0.06   0.00   0.01
  42   6     0.05  -0.05   0.13     0.01   0.01  -0.06    -0.06   0.01   0.01
  43   6     0.06  -0.04   0.14     0.00   0.01  -0.05    -0.05   0.01   0.04
  44   6     0.05  -0.04   0.11     0.01   0.01  -0.03    -0.04   0.00   0.06
  45   7     0.04  -0.05   0.08     0.02   0.02  -0.01    -0.05   0.00   0.06
  46   6     0.04  -0.05   0.07     0.02   0.01  -0.01    -0.06   0.00   0.04
  47   1     0.02  -0.01   0.04     0.00   0.00  -0.02    -0.02   0.00  -0.00
  48   1     0.02  -0.01   0.05    -0.00   0.00  -0.02    -0.01   0.00   0.01
  49   1     0.01  -0.01   0.03     0.00   0.00  -0.01    -0.01   0.00   0.02
  50   1     0.01  -0.01   0.01     0.01   0.00   0.00    -0.02   0.00   0.01
  51   6     0.02   0.00  -0.04    -0.03  -0.03  -0.02     0.06  -0.02   0.02
  52   6     0.02   0.00  -0.04    -0.04  -0.05  -0.04     0.03  -0.05   0.03
  53   6     0.02   0.00  -0.03    -0.04  -0.07  -0.07     0.01  -0.07   0.03
  54   6     0.01  -0.02  -0.04    -0.06  -0.09  -0.11     0.01  -0.10   0.03
  55   6     0.01  -0.01  -0.03    -0.06  -0.10  -0.14    -0.01  -0.11   0.04
  56   6     0.02   0.01  -0.00    -0.05  -0.10  -0.12    -0.03  -0.10   0.04
  57   6     0.02   0.03   0.01    -0.03  -0.08  -0.08    -0.03  -0.07   0.04
  58   6     0.03   0.05   0.04    -0.02  -0.07  -0.06    -0.05  -0.06   0.04
  59   6     0.03   0.06   0.05    -0.00  -0.05  -0.02    -0.05  -0.04   0.04
  60   7     0.03   0.07   0.04     0.00  -0.04  -0.00    -0.03  -0.02   0.04
  61   6     0.03   0.05   0.01    -0.01  -0.05  -0.02    -0.01  -0.03   0.04
  62   6     0.03   0.03   0.00    -0.03  -0.06  -0.05    -0.01  -0.06   0.04
  63   1     0.00  -0.01  -0.02    -0.02  -0.03  -0.03     0.01  -0.03   0.01
  64   1     0.00  -0.01  -0.01    -0.02  -0.03  -0.05    -0.00  -0.04   0.01
  65   1     0.00   0.00   0.00    -0.02  -0.03  -0.04    -0.01  -0.03   0.01
  66   1     0.01   0.02   0.02    -0.01  -0.02  -0.02    -0.02  -0.02   0.01
  67   1     0.01   0.02   0.02     0.00  -0.01  -0.00    -0.02  -0.01   0.01
  68   1     0.01   0.01   0.00    -0.00  -0.01   0.00     0.00  -0.00   0.01
  69   6     0.02  -0.00  -0.04    -0.02  -0.01  -0.00     0.08  -0.01   0.00
  70   6     0.04   0.00  -0.06    -0.03   0.01  -0.00     0.11  -0.00  -0.03
  71   6     0.03  -0.00  -0.05    -0.02   0.03   0.00     0.12   0.00  -0.06
  72   6     0.01  -0.01  -0.03     0.00   0.03   0.01     0.11  -0.00  -0.04
  73   7     0.00  -0.02  -0.03     0.02   0.05   0.01     0.13  -0.00  -0.07
  74   6    -0.02  -0.02  -0.01     0.04   0.04   0.01     0.10  -0.01  -0.04
  75   6    -0.04  -0.03   0.01     0.06   0.05   0.01     0.10  -0.01  -0.05
  76   6    -0.05  -0.03   0.03     0.08   0.04   0.01     0.07  -0.01  -0.02
  77   6    -0.05  -0.02   0.02     0.08   0.02   0.01     0.05  -0.01   0.01
  78   6    -0.03  -0.02   0.01     0.06   0.01   0.01     0.05  -0.01   0.02
  79   6    -0.02  -0.02  -0.00     0.04   0.02   0.01     0.07  -0.01  -0.01
  80   6     0.00  -0.01  -0.02     0.02   0.01   0.01     0.08  -0.01  -0.01
  81   6     0.01  -0.01  -0.03     0.01  -0.01   0.00     0.06  -0.01   0.02
  82   1     0.01   0.00  -0.02    -0.01   0.00  -0.00     0.03   0.00  -0.01
  83   1     0.01  -0.00  -0.02    -0.01   0.01   0.00     0.04   0.00  -0.02
  84   1     0.00  -0.00  -0.01     0.00   0.02   0.00     0.04   0.00  -0.03
  85   1    -0.01  -0.01   0.00     0.02   0.02   0.00     0.03  -0.00  -0.02
  86   1    -0.02  -0.01   0.01     0.03   0.02   0.00     0.02  -0.00  -0.01
  87   1    -0.01  -0.00   0.00     0.02  -0.00   0.00     0.01  -0.00   0.01
  88   1    -0.00  -0.00  -0.00     0.00  -0.01   0.00     0.01  -0.01   0.01
  89   6    -0.06  -0.02   0.03     0.09   0.02   0.01     0.02  -0.01   0.03
  90   6    -0.09  -0.02   0.04     0.12   0.01   0.01     0.03  -0.01   0.03
  91   6    -0.09  -0.02   0.05     0.13   0.01   0.01    -0.00  -0.01   0.05
  92   6    -0.07  -0.02   0.04     0.10   0.01   0.02    -0.04  -0.01   0.06
  93   7    -0.04  -0.03   0.03     0.08   0.02   0.02    -0.05  -0.01   0.06
  94   6    -0.04  -0.03   0.03     0.07   0.02   0.02    -0.02  -0.01   0.04
  95   1    -0.03  -0.00   0.01     0.04   0.00   0.00     0.02  -0.00   0.01
  96   1    -0.03  -0.00   0.02     0.04   0.00   0.00     0.00  -0.00   0.01
  97   1    -0.02  -0.01   0.01     0.03   0.00   0.01    -0.02  -0.00   0.02
  98   1    -0.00  -0.01   0.00     0.01   0.01   0.01    -0.01  -0.00   0.01
  99   6     0.01   0.03   0.01    -0.02   0.01  -0.08     0.02  -0.02  -0.04
 100   6     0.00   0.06   0.02    -0.00   0.03  -0.05     0.04  -0.03  -0.03
 101   6    -0.02   0.08   0.03     0.01   0.05  -0.03     0.06  -0.03  -0.03
 102   6    -0.03   0.10   0.04     0.01   0.09  -0.03     0.10  -0.05  -0.04
 103   6    -0.06   0.12   0.05     0.02   0.11  -0.01     0.11  -0.05  -0.04
 104   6    -0.07   0.12   0.05     0.04   0.08   0.01     0.08  -0.03  -0.02
 105   6    -0.05   0.11   0.04     0.04   0.05   0.01     0.04  -0.01   0.00
 106   6    -0.05   0.11   0.05     0.05   0.03   0.03     0.01   0.01   0.02
 107   6    -0.03   0.09   0.04     0.05  -0.01   0.03    -0.02   0.02   0.04
 108   7    -0.01   0.08   0.03     0.04  -0.02   0.01    -0.03   0.02   0.03
 109   6    -0.00   0.07   0.03     0.02  -0.00  -0.01    -0.01   0.01   0.01
 110   6    -0.02   0.08   0.03     0.03   0.03  -0.01     0.03  -0.01  -0.00
 111   1    -0.01   0.03   0.01    -0.00   0.03  -0.01     0.03  -0.02  -0.02
 112   1    -0.02   0.04   0.02     0.01   0.04  -0.00     0.04  -0.02  -0.01
 113   1    -0.02   0.04   0.02     0.01   0.03   0.01     0.03  -0.01  -0.00
 114   1    -0.02   0.04   0.02     0.02   0.01   0.01     0.01   0.00   0.01
 115   1    -0.01   0.03   0.01     0.02  -0.01   0.01    -0.01   0.01   0.02
 116   1     0.00   0.02   0.01     0.00  -0.00  -0.01    -0.00   0.00   0.00
 117   6     0.01   0.00  -0.01    -0.04   0.00  -0.10    -0.01  -0.01  -0.05
 118   6     0.00  -0.01  -0.00    -0.09  -0.00  -0.14    -0.02  -0.00  -0.07
 119   6    -0.01  -0.03  -0.02    -0.12  -0.00  -0.15    -0.04   0.01  -0.08
 120   6    -0.02  -0.04  -0.05    -0.10   0.00  -0.13    -0.06   0.01  -0.07
 121   7    -0.04  -0.06  -0.08    -0.12   0.00  -0.15    -0.09   0.01  -0.09
 122   6    -0.04  -0.05  -0.09    -0.08   0.01  -0.11    -0.09   0.01  -0.07
 123   6    -0.05  -0.06  -0.12    -0.09   0.01  -0.10    -0.11   0.01  -0.07
 124   6    -0.05  -0.06  -0.14    -0.05   0.02  -0.07    -0.10   0.01  -0.05
 125   6    -0.03  -0.04  -0.12    -0.01   0.02  -0.04    -0.08   0.00  -0.03
 126   6    -0.01  -0.03  -0.09    -0.01   0.02  -0.04    -0.06  -0.00  -0.03
 127   6    -0.02  -0.03  -0.08    -0.04   0.01  -0.08    -0.06  -0.00  -0.05
 128   6    -0.01  -0.02  -0.05    -0.05   0.01  -0.09    -0.05  -0.00  -0.05
 129   6     0.01  -0.00  -0.03    -0.02   0.01  -0.08    -0.02  -0.01  -0.04
 130   1     0.00  -0.00   0.00    -0.03  -0.00  -0.04    -0.00  -0.00  -0.02
 131   1    -0.01  -0.01  -0.01    -0.04  -0.00  -0.05    -0.01   0.00  -0.03
 132   1    -0.01  -0.02  -0.02    -0.04  -0.00  -0.05    -0.03   0.01  -0.03
 133   1    -0.02  -0.02  -0.04    -0.03   0.00  -0.04    -0.04   0.01  -0.03
 134   1    -0.02  -0.02  -0.05    -0.02   0.01  -0.02    -0.04   0.00  -0.02
 135   1     0.00  -0.00  -0.02     0.01   0.00  -0.01    -0.01  -0.00  -0.00
 136   1     0.00   0.00  -0.01     0.00   0.00  -0.01    -0.00  -0.01  -0.01
 137   6    -0.02  -0.03  -0.12     0.01   0.02  -0.00    -0.07  -0.00  -0.01
 138   6    -0.03  -0.03  -0.17     0.02   0.02  -0.00    -0.07  -0.00  -0.02
 139   6    -0.02  -0.03  -0.16     0.04   0.01   0.04    -0.06  -0.00   0.00
 140   6    -0.00  -0.03  -0.10     0.05   0.02   0.07    -0.05  -0.00   0.03
 141   7     0.00  -0.04  -0.06     0.04   0.03   0.07    -0.06  -0.00   0.04
 142   6    -0.00  -0.03  -0.07     0.02   0.03   0.03    -0.06  -0.00   0.02
 143   1    -0.01  -0.01  -0.06     0.00   0.00  -0.01    -0.02  -0.00  -0.01
 144   1    -0.01  -0.01  -0.06     0.01   0.00   0.01    -0.02  -0.00  -0.00
 145   1     0.00  -0.01  -0.03     0.02   0.01   0.03    -0.01  -0.00   0.01
 146   1     0.00  -0.01  -0.01     0.00   0.01   0.01    -0.02  -0.00   0.01
 147   6    -0.07   0.02   0.03    -0.02   0.00  -0.00     0.05   0.02   0.03
 148   6    -0.06   0.02   0.01    -0.01  -0.01  -0.01     0.03   0.05   0.03
 149   6    -0.05   0.01  -0.02    -0.00  -0.03  -0.00     0.01   0.07   0.03
 150   6    -0.06  -0.00  -0.03    -0.00  -0.03  -0.01     0.01   0.10   0.03
 151   6    -0.05  -0.00  -0.06     0.00  -0.04  -0.01    -0.00   0.12   0.02
 152   6    -0.03   0.01  -0.07     0.01  -0.05   0.01    -0.02   0.11   0.03
 153   6    -0.02   0.02  -0.06     0.02  -0.05   0.02    -0.03   0.09   0.03
 154   6     0.00   0.03  -0.06     0.03  -0.06   0.04    -0.05   0.08   0.03
 155   6     0.01   0.05  -0.04     0.03  -0.06   0.05    -0.05   0.06   0.03
 156   7     0.00   0.05  -0.02     0.03  -0.05   0.04    -0.03   0.04   0.03
 157   6    -0.02   0.04  -0.01     0.01  -0.04   0.02    -0.01   0.04   0.03
 158   6    -0.03   0.03  -0.03     0.01  -0.04   0.01    -0.01   0.07   0.03
 159   1    -0.02  -0.00  -0.01    -0.00  -0.00  -0.01     0.01   0.03   0.01
 160   1    -0.02  -0.00  -0.02    -0.00  -0.01  -0.00    -0.00   0.04   0.01
 161   1    -0.01   0.00  -0.03     0.01  -0.02   0.01    -0.01   0.04   0.01
 162   1     0.00   0.01  -0.02     0.01  -0.02   0.01    -0.02   0.03   0.01
 163   1     0.01   0.02  -0.01     0.01  -0.02   0.02    -0.02   0.02   0.01
 164   1    -0.01   0.01   0.00     0.00  -0.01   0.00    -0.00   0.01   0.01
 165   6    -0.08   0.01   0.05    -0.03   0.01   0.02     0.07   0.00   0.01
 166   6    -0.11   0.01   0.08    -0.04   0.02   0.03     0.09  -0.01  -0.03
 167   6    -0.12   0.00   0.10    -0.06   0.03   0.05     0.11  -0.02  -0.05
 168   6    -0.09  -0.01   0.09    -0.07   0.03   0.06     0.11  -0.02  -0.04
 169   7    -0.10  -0.02   0.11    -0.10   0.05   0.10     0.13  -0.03  -0.07
 170   6    -0.05  -0.02   0.08    -0.10   0.05   0.10     0.11  -0.02  -0.04
 171   6    -0.04  -0.04   0.08    -0.12   0.06   0.12     0.11  -0.02  -0.05
 172   6     0.00  -0.04   0.05    -0.12   0.05   0.12     0.09  -0.01  -0.03
 173   6     0.02  -0.03   0.03    -0.09   0.04   0.08     0.07  -0.00   0.00
 174   6     0.00  -0.02   0.03    -0.08   0.03   0.06     0.06  -0.00   0.02
 175   6    -0.03  -0.02   0.05    -0.08   0.04   0.07     0.08  -0.01  -0.01
 176   6    -0.06  -0.01   0.06    -0.06   0.03   0.05     0.08  -0.01  -0.01
 177   6    -0.05   0.00   0.04    -0.05   0.02   0.03     0.06   0.00   0.02
 178   1    -0.04   0.01   0.03    -0.01   0.00   0.00     0.03  -0.00  -0.01
 179   1    -0.04   0.00   0.04    -0.02   0.01   0.02     0.04  -0.01  -0.02
 180   1    -0.03  -0.01   0.04    -0.03   0.01   0.03     0.04  -0.01  -0.03
 181   1    -0.01  -0.01   0.03    -0.04   0.02   0.04     0.04  -0.01  -0.02
 182   1     0.00  -0.02   0.01    -0.04   0.02   0.04     0.03  -0.00  -0.01
 183   1     0.00  -0.00   0.00    -0.02   0.01   0.01     0.01   0.00   0.01
 184   1    -0.01   0.00   0.00    -0.01   0.00   0.01     0.01   0.00   0.01
 185   6     0.05  -0.03   0.01    -0.08   0.04   0.07     0.04   0.00   0.02
 186   6     0.08  -0.03  -0.00    -0.12   0.04   0.08     0.06  -0.00   0.02
 187   6     0.11  -0.03  -0.01    -0.10   0.04   0.06     0.03  -0.00   0.04
 188   6     0.11  -0.04  -0.01    -0.05   0.03   0.05    -0.01   0.00   0.05
 189   7     0.09  -0.04  -0.00    -0.02   0.03   0.05    -0.03   0.01   0.05
 190   6     0.06  -0.04   0.01    -0.03   0.03   0.06    -0.00   0.00   0.04
 191   1     0.02  -0.01   0.00    -0.05   0.01   0.03     0.03  -0.00   0.00
 192   1     0.04  -0.01  -0.01    -0.04   0.01   0.02     0.01  -0.00   0.01
 193   1     0.04  -0.01  -0.01    -0.01   0.01   0.01    -0.01   0.00   0.02
 194   1     0.01  -0.01   0.01    -0.00   0.01   0.02    -0.01   0.00   0.01
                      4                      5                      6
                        a                      a                      a 
 Frequencies --    11.0298                14.7688                14.8046
 Red. masses --    14.6847                16.3025                16.2936
 Frc consts  --     0.0000                 0.0000                 0.0000
 IR Inten    --     0.3876                 0.2533                 0.2453
 Raman Activ --     0.0000                 0.0000                 0.0000
 Depolar     --     0.0000                 0.0000                 0.0000
 Atom AN      X      Y      Z        X      Y      Z        X      Y      Z
   1  46    -0.07  -0.00  -0.07    -0.20   0.02  -0.09    -0.09   0.00   0.20
   2  46    -0.12   0.01  -0.10     0.04  -0.00   0.01     0.01   0.00  -0.05
   3   6     0.01   0.02   0.06    -0.03  -0.05  -0.08     0.02  -0.03  -0.02
   4   6     0.01   0.06   0.04    -0.05  -0.04  -0.09     0.02  -0.03  -0.02
   5   6     0.01   0.08   0.01    -0.05  -0.06  -0.08     0.04  -0.03  -0.01
   6   6     0.03   0.12   0.01    -0.04  -0.07  -0.08     0.08  -0.04  -0.02
   7   6     0.04   0.15  -0.01    -0.04  -0.09  -0.07     0.10  -0.04  -0.01
   8   6     0.02   0.13  -0.03    -0.05  -0.09  -0.05     0.08  -0.05   0.02
   9   6     0.01   0.10  -0.03    -0.06  -0.07  -0.04     0.04  -0.05   0.04
  10   6    -0.01   0.08  -0.05    -0.06  -0.07  -0.02     0.02  -0.05   0.06
  11   6    -0.02   0.05  -0.05    -0.07  -0.05  -0.02    -0.01  -0.05   0.08
  12   7    -0.02   0.03  -0.03    -0.07  -0.04  -0.04    -0.03  -0.04   0.07
  13   6    -0.01   0.04  -0.00    -0.06  -0.04  -0.05    -0.01  -0.04   0.04
  14   6     0.00   0.07  -0.01    -0.05  -0.06  -0.06     0.02  -0.04   0.02
  15   1     0.01   0.04   0.01    -0.01  -0.02  -0.03     0.03  -0.01  -0.01
  16   1     0.01   0.05  -0.00    -0.01  -0.03  -0.02     0.04  -0.01  -0.01
  17   1     0.01   0.04  -0.01    -0.02  -0.03  -0.01     0.03  -0.02   0.01
  18   1    -0.00   0.03  -0.02    -0.02  -0.02  -0.00     0.01  -0.02   0.02
  19   1    -0.01   0.01  -0.02    -0.02  -0.01  -0.00    -0.01  -0.01   0.03
  20   1    -0.00   0.01   0.00    -0.02  -0.01  -0.02    -0.01  -0.01   0.01
  21   6     0.03  -0.00   0.09    -0.01  -0.06  -0.06     0.02  -0.03  -0.02
  22   6     0.07  -0.02   0.12     0.00  -0.07  -0.06     0.03  -0.03  -0.02
  23   6     0.10  -0.04   0.14     0.03  -0.08  -0.03     0.03  -0.03  -0.01
  24   6     0.09  -0.03   0.14     0.04  -0.09  -0.02     0.03  -0.03  -0.01
  25   7     0.12  -0.05   0.17     0.07  -0.11   0.01     0.03  -0.04  -0.01
  26   6     0.08  -0.03   0.14     0.07  -0.11   0.02     0.02  -0.03  -0.01
  27   6     0.09  -0.04   0.15     0.09  -0.12   0.05     0.03  -0.03  -0.01
  28   6     0.06  -0.02   0.13     0.08  -0.11   0.05     0.02  -0.03  -0.01
  29   6     0.03  -0.01   0.10     0.05  -0.10   0.03     0.01  -0.03  -0.02
  30   6     0.01  -0.00   0.09     0.04  -0.08   0.01     0.01  -0.03  -0.02
  31   6     0.04  -0.01   0.11     0.05  -0.09   0.00     0.02  -0.03  -0.02
  32   6     0.05  -0.01   0.11     0.03  -0.08  -0.02     0.02  -0.03  -0.02
  33   6     0.02   0.00   0.08     0.00  -0.06  -0.04     0.01  -0.03  -0.02
  34   1     0.02  -0.01   0.03    -0.00  -0.02  -0.02     0.01  -0.01  -0.00
  35   1     0.04  -0.02   0.05     0.01  -0.03  -0.01     0.01  -0.01  -0.00
  36   1     0.04  -0.02   0.05     0.02  -0.03   0.00     0.01  -0.01  -0.00
  37   1     0.04  -0.01   0.05     0.03  -0.04   0.02     0.01  -0.01  -0.00
  38   1     0.02  -0.01   0.04     0.03  -0.04   0.02     0.01  -0.01  -0.00
  39   1    -0.01   0.00   0.02     0.01  -0.02  -0.00     0.00  -0.01  -0.01
  40   1    -0.00   0.01   0.02    -0.00  -0.02  -0.01     0.00  -0.01  -0.01
  41   6    -0.00  -0.00   0.07     0.04  -0.09   0.03     0.01  -0.02  -0.02
  42   6    -0.00  -0.00   0.09     0.02  -0.09   0.05     0.00  -0.03  -0.01
  43   6    -0.02  -0.00   0.05    -0.00  -0.08   0.05     0.00  -0.02  -0.00
  44   6    -0.04   0.00  -0.00    -0.00  -0.06   0.02     0.00  -0.01  -0.01
  45   7    -0.04   0.01  -0.02     0.01  -0.05   0.01     0.00  -0.01  -0.02
  46   6    -0.02   0.01   0.01     0.03  -0.06   0.01     0.01  -0.02  -0.02
  47   1     0.00  -0.00   0.04     0.01  -0.03   0.02     0.00  -0.01  -0.00
  48   1    -0.01  -0.00   0.02    -0.00  -0.03   0.02    -0.00  -0.01   0.00
  49   1    -0.02   0.00  -0.01    -0.01  -0.01   0.01    -0.00  -0.00   0.00
  50   1    -0.00   0.00  -0.00     0.01  -0.02  -0.00     0.00  -0.00  -0.01
  51   6     0.05   0.00  -0.01     0.03  -0.03   0.02    -0.09   0.06   0.02
  52   6     0.04  -0.01   0.00     0.02  -0.03   0.03    -0.09   0.06   0.04
  53   6     0.02  -0.02   0.01     0.01  -0.03   0.04    -0.08   0.07   0.04
  54   6     0.03  -0.03   0.03     0.03  -0.04   0.09    -0.08   0.09   0.03
  55   6     0.02  -0.04   0.03     0.01  -0.04   0.11    -0.07   0.11   0.03
  56   6    -0.00  -0.04   0.02    -0.02  -0.05   0.09    -0.04   0.10   0.04
  57   6    -0.01  -0.03   0.01    -0.04  -0.05   0.05    -0.04   0.09   0.05
  58   6    -0.03  -0.03  -0.00    -0.07  -0.05   0.03    -0.01   0.08   0.05
  59   6    -0.04  -0.02  -0.02    -0.08  -0.04  -0.00    -0.01   0.06   0.06
  60   7    -0.02  -0.01  -0.02    -0.07  -0.04  -0.02    -0.03   0.05   0.07
  61   6    -0.00  -0.01  -0.01    -0.04  -0.04  -0.01    -0.05   0.05   0.05
  62   6     0.00  -0.02   0.00    -0.02  -0.04   0.03    -0.06   0.07   0.05
  63   1     0.01  -0.01   0.01     0.02  -0.01   0.03    -0.03   0.03   0.01
  64   1     0.01  -0.01   0.01     0.01  -0.01   0.04    -0.02   0.03   0.01
  65   1    -0.00  -0.01   0.01    -0.01  -0.02   0.03    -0.01   0.03   0.01
  66   1    -0.01  -0.01  -0.00    -0.02  -0.02   0.01     0.00   0.03   0.02
  67   1    -0.01  -0.01  -0.01    -0.03  -0.01  -0.00     0.00   0.02   0.02
  68   1     0.00  -0.00  -0.00    -0.01  -0.01  -0.01    -0.02   0.01   0.02
  69   6     0.07   0.01  -0.04     0.03  -0.03   0.02    -0.07   0.06  -0.00
  70   6     0.10   0.01  -0.07     0.02  -0.03   0.03    -0.06   0.08  -0.01
  71   6     0.12   0.01  -0.10     0.02  -0.04   0.03    -0.04   0.09  -0.04
  72   6     0.12   0.01  -0.10     0.02  -0.04   0.03    -0.02   0.10  -0.05
  73   7     0.14   0.02  -0.14     0.01  -0.04   0.04     0.01   0.12  -0.08
  74   6     0.12   0.01  -0.12     0.01  -0.04   0.03     0.03   0.11  -0.08
  75   6     0.13   0.01  -0.14     0.01  -0.04   0.03     0.05   0.12  -0.10
  76   6     0.11   0.01  -0.12     0.01  -0.04   0.02     0.06   0.11  -0.09
  77   6     0.07   0.01  -0.09     0.01  -0.03   0.02     0.04   0.10  -0.06
  78   6     0.07   0.01  -0.07     0.02  -0.03   0.02     0.01   0.09  -0.05
  79   6     0.09   0.01  -0.09     0.02  -0.03   0.02     0.01   0.09  -0.06
  80   6     0.09   0.01  -0.07     0.02  -0.03   0.02    -0.02   0.08  -0.04
  81   6     0.07   0.01  -0.04     0.03  -0.03   0.02    -0.05   0.07  -0.01
  82   1     0.03   0.00  -0.02     0.01  -0.01   0.01    -0.02   0.02  -0.00
  83   1     0.04   0.00  -0.03     0.00  -0.01   0.01    -0.01   0.03  -0.01
  84   1     0.05   0.00  -0.04     0.00  -0.01   0.01     0.01   0.03  -0.02
  85   1     0.04   0.00  -0.05     0.00  -0.01   0.01     0.02   0.04  -0.03
  86   1     0.03   0.00  -0.04     0.00  -0.01   0.01     0.02   0.04  -0.03
  87   1     0.01   0.00  -0.01     0.01  -0.01   0.00    -0.00   0.02  -0.01
  88   1     0.01   0.00  -0.01     0.01  -0.01   0.00    -0.01   0.02  -0.00
  89   6     0.05   0.01  -0.07     0.01  -0.03   0.01     0.04   0.09  -0.05
  90   6     0.07   0.01  -0.06    -0.00  -0.03   0.01     0.06   0.09  -0.03
  91   6     0.03   0.01  -0.05    -0.01  -0.02   0.00     0.06   0.08  -0.00
  92   6    -0.01   0.01  -0.03    -0.00  -0.02   0.00     0.04   0.06   0.00
  93   7    -0.03   0.01  -0.04     0.01  -0.02   0.00     0.02   0.05  -0.02
  94   6    -0.00   0.01  -0.05     0.02  -0.02   0.01     0.01   0.06  -0.04
  95   1     0.03   0.00  -0.02    -0.00  -0.01   0.00     0.02   0.03  -0.01
  96   1     0.01   0.00  -0.01    -0.01  -0.01  -0.00     0.02   0.03   0.00
  97   1    -0.01   0.00  -0.01    -0.00  -0.00  -0.00     0.01   0.01   0.01
  98   1    -0.01   0.00  -0.02     0.01  -0.01   0.00    -0.00   0.02  -0.01
  99   6    -0.04  -0.00   0.01    -0.01   0.05  -0.09     0.02   0.02  -0.02
 100   6    -0.05  -0.00   0.01    -0.03   0.06  -0.10     0.03   0.02  -0.02
 101   6    -0.05  -0.01   0.00    -0.03   0.07  -0.09     0.04   0.03  -0.01
 102   6    -0.06  -0.01   0.01    -0.02   0.09  -0.09     0.08   0.02  -0.02
 103   6    -0.07  -0.01   0.00    -0.02   0.11  -0.07     0.10   0.03  -0.01
 104   6    -0.06  -0.02  -0.01    -0.03   0.11  -0.05     0.08   0.04   0.02
 105   6    -0.05  -0.02  -0.01    -0.04   0.09  -0.04     0.05   0.04   0.04
 106   6    -0.04  -0.02  -0.02    -0.05   0.09  -0.02     0.03   0.04   0.06
 107   6    -0.03  -0.02  -0.03    -0.06   0.07  -0.01     0.00   0.04   0.08
 108   7    -0.03  -0.02  -0.02    -0.06   0.05  -0.03    -0.02   0.04   0.07
 109   6    -0.03  -0.01  -0.01    -0.05   0.05  -0.06    -0.01   0.04   0.04
 110   6    -0.04  -0.01  -0.01    -0.04   0.07  -0.06     0.03   0.04   0.02
 111   1    -0.02  -0.00   0.00    -0.00   0.03  -0.03     0.03   0.00  -0.01
 112   1    -0.02  -0.00   0.00    -0.00   0.04  -0.02     0.04   0.01  -0.01
 113   1    -0.02  -0.01  -0.00    -0.01   0.04  -0.01     0.03   0.01   0.01
 114   1    -0.01  -0.01  -0.01    -0.01   0.03  -0.00     0.01   0.01   0.02
 115   1    -0.01  -0.01  -0.01    -0.02   0.02   0.00    -0.00   0.01   0.03
 116   1    -0.01  -0.00  -0.00    -0.02   0.01  -0.02    -0.01   0.01   0.01
 117   6    -0.04  -0.00   0.01     0.01   0.06  -0.08     0.02   0.02  -0.02
 118   6    -0.03  -0.01   0.02     0.02   0.07  -0.07     0.03   0.02  -0.02
 119   6    -0.03  -0.01   0.02     0.05   0.09  -0.05     0.03   0.03  -0.01
 120   6    -0.03  -0.01   0.01     0.06   0.09  -0.02     0.03   0.03  -0.01
 121   7    -0.03  -0.02   0.01     0.10   0.12   0.00     0.03   0.03  -0.01
 122   6    -0.03  -0.02   0.00     0.09   0.11   0.02     0.03   0.03  -0.01
 123   6    -0.03  -0.02  -0.00     0.11   0.12   0.04     0.03   0.03  -0.01
 124   6    -0.04  -0.02  -0.01     0.10   0.11   0.05     0.02   0.03  -0.01
 125   6    -0.04  -0.01  -0.01     0.07   0.10   0.03     0.02   0.02  -0.01
 126   6    -0.04  -0.01  -0.01     0.06   0.08   0.00     0.02   0.02  -0.02
 127   6    -0.04  -0.01  -0.00     0.07   0.09  -0.00     0.02   0.02  -0.02
 128   6    -0.04  -0.01   0.01     0.05   0.08  -0.03     0.02   0.02  -0.02
 129   6    -0.04  -0.01   0.01     0.02   0.07  -0.05     0.02   0.02  -0.02
 130   1    -0.01  -0.00   0.01     0.00   0.02  -0.03     0.01   0.01  -0.01
 131   1    -0.01  -0.00   0.01     0.02   0.03  -0.01     0.01   0.01  -0.00
 132   1    -0.01  -0.00   0.01     0.03   0.03   0.00     0.01   0.01  -0.00
 133   1    -0.01  -0.01   0.00     0.04   0.04   0.02     0.01   0.01  -0.00
 134   1    -0.01  -0.01  -0.00     0.03   0.03   0.02     0.01   0.01  -0.00
 135   1    -0.01  -0.00  -0.00     0.01   0.02  -0.00     0.00   0.01  -0.01
 136   1    -0.01  -0.00  -0.00     0.00   0.02  -0.02     0.00   0.01  -0.01
 137   6    -0.04  -0.01  -0.02     0.05   0.09   0.03     0.01   0.02  -0.01
 138   6    -0.04  -0.01  -0.02     0.03   0.10   0.05     0.01   0.02   0.00
 139   6    -0.04  -0.01  -0.03     0.01   0.09   0.05     0.01   0.02   0.01
 140   6    -0.04  -0.01  -0.03     0.00   0.06   0.03     0.01   0.01   0.00
 141   7    -0.04  -0.00  -0.03     0.02   0.05   0.01     0.01   0.01  -0.01
 142   6    -0.04  -0.01  -0.03     0.04   0.06   0.01     0.01   0.02  -0.02
 143   1    -0.01  -0.00  -0.01     0.01   0.03   0.02     0.00   0.01   0.00
 144   1    -0.01  -0.00  -0.01    -0.00   0.03   0.02     0.00   0.01   0.01
 145   1    -0.01  -0.00  -0.01    -0.01   0.01   0.01     0.00   0.00   0.00
 146   1    -0.01  -0.00  -0.01     0.02   0.01  -0.00     0.00   0.00  -0.01
 147   6     0.01  -0.02   0.04     0.01   0.02   0.02    -0.08  -0.05   0.02
 148   6     0.01  -0.04   0.05     0.01   0.02   0.02    -0.09  -0.05   0.04
 149   6     0.02  -0.06   0.07     0.00   0.03   0.04    -0.08  -0.06   0.04
 150   6     0.03  -0.09   0.11     0.02   0.02   0.08    -0.09  -0.08   0.04
 151   6     0.03  -0.10   0.13     0.01   0.03   0.09    -0.07  -0.09   0.04
 152   6     0.02  -0.08   0.10    -0.02   0.04   0.08    -0.05  -0.10   0.04
 153   6     0.01  -0.05   0.06    -0.03   0.04   0.04    -0.05  -0.08   0.05
 154   6    -0.00  -0.03   0.03    -0.06   0.05   0.02    -0.02  -0.08   0.06
 155   6    -0.01  -0.01  -0.01    -0.07   0.05  -0.00    -0.02  -0.06   0.06
 156   7    -0.02   0.00  -0.02    -0.07   0.05  -0.02    -0.04  -0.05   0.07
 157   6    -0.01  -0.01   0.01    -0.04   0.04  -0.01    -0.06  -0.04   0.06
 158   6     0.00  -0.04   0.04    -0.03   0.04   0.02    -0.06  -0.06   0.05
 159   1     0.01  -0.03   0.04     0.01   0.00   0.03    -0.03  -0.02   0.01
 160   1     0.01  -0.04   0.05     0.01   0.01   0.04    -0.02  -0.03   0.01
 161   1     0.01  -0.03   0.03    -0.01   0.01   0.03    -0.01  -0.03   0.01
 162   1     0.00  -0.01   0.01    -0.02   0.01   0.01    -0.00  -0.03   0.02
 163   1    -0.01   0.00  -0.01    -0.03   0.01  -0.00    -0.00  -0.02   0.02
 164   1    -0.00  -0.00  -0.00    -0.01   0.01  -0.01    -0.02  -0.01   0.02
 165   6     0.00  -0.01   0.03     0.02   0.02   0.02    -0.07  -0.05   0.00
 166   6     0.01   0.01   0.03     0.01   0.02   0.02    -0.07  -0.06  -0.01
 167   6     0.00   0.02   0.03     0.01   0.02   0.03    -0.04  -0.08  -0.03
 168   6    -0.01   0.02   0.01     0.01   0.02   0.02    -0.02  -0.09  -0.05
 169   7    -0.01   0.04   0.01     0.01   0.03   0.03    -0.00  -0.11  -0.08
 170   6    -0.02   0.03  -0.00     0.01   0.02   0.02     0.01  -0.10  -0.08
 171   6    -0.03   0.04  -0.01     0.01   0.03   0.02     0.03  -0.12  -0.10
 172   6    -0.04   0.03  -0.02     0.01   0.02   0.02     0.04  -0.11  -0.09
 173   6    -0.04   0.02  -0.02     0.01   0.02   0.01     0.02  -0.10  -0.06
 174   6    -0.03   0.01  -0.01     0.02   0.02   0.01    -0.00  -0.08  -0.05
 175   6    -0.02   0.01  -0.01     0.01   0.02   0.02    -0.01  -0.09  -0.05
 176   6    -0.01   0.01   0.01     0.02   0.02   0.02    -0.03  -0.08  -0.04
 177   6    -0.01  -0.01   0.01     0.02   0.02   0.01    -0.05  -0.06  -0.01
 178   1     0.00   0.00   0.01     0.00   0.01   0.01    -0.02  -0.02   0.00
 179   1     0.00   0.01   0.01     0.00   0.01   0.01    -0.01  -0.03  -0.01
 180   1    -0.00   0.01   0.00     0.00   0.01   0.01     0.00  -0.03  -0.02
 181   1    -0.01   0.01  -0.00     0.00   0.01   0.01     0.01  -0.04  -0.03
 182   1    -0.01   0.01  -0.01     0.00   0.01   0.01     0.02  -0.04  -0.03
 183   1    -0.01  -0.00  -0.00     0.01   0.00   0.00    -0.00  -0.02  -0.01
 184   1    -0.00  -0.01   0.00     0.01   0.00   0.00    -0.02  -0.02  -0.00
 185   6    -0.05   0.01  -0.03     0.01   0.02   0.01     0.02  -0.09  -0.04
 186   6    -0.06   0.01  -0.03     0.00   0.02   0.01     0.04  -0.10  -0.03
 187   6    -0.06   0.01  -0.03    -0.00   0.02   0.00     0.03  -0.08  -0.00
 188   6    -0.05   0.01  -0.03     0.00   0.01   0.00     0.02  -0.06   0.00
 189   7    -0.05   0.00  -0.03     0.01   0.01   0.00     0.00  -0.05  -0.02
 190   6    -0.04   0.01  -0.03     0.02   0.01   0.01     0.00  -0.06  -0.04
 191   1    -0.02   0.00  -0.01    -0.00   0.01   0.00     0.01  -0.03  -0.01
 192   1    -0.02   0.00  -0.01    -0.00   0.01   0.00     0.01  -0.03   0.00
 193   1    -0.01   0.00  -0.01    -0.00   0.00   0.00     0.00  -0.01   0.01
 194   1    -0.01   0.00  -0.01     0.01   0.00   0.00    -0.00  -0.01  -0.01
                      7                      8                      9
                        a                      a                      a 
 Frequencies --    16.2852                19.1123                24.4609
 Red. masses --    11.5442                19.7262                12.2038
 Frc consts  --     0.0000                 0.0000                 0.0000
 IR Inten    --     0.0184                 0.0205                 0.1132
 Raman Activ --     0.0000                 0.0000                 0.0000
 Depolar     --     0.0000                 0.0000                 0.0000
 Atom AN      X      Y      Z        X      Y      Z        X      Y      Z
   1  46    -0.01   0.00  -0.01     0.02   0.20  -0.00    -0.09  -0.01  -0.02
   2  46     0.00   0.00   0.00    -0.02  -0.21   0.00     0.02  -0.01   0.01
   3   6     0.04  -0.03  -0.10    -0.11  -0.03   0.04     0.02   0.01  -0.04
   4   6     0.04  -0.03  -0.10    -0.10  -0.01   0.03     0.00   0.00  -0.04
   5   6     0.05  -0.04  -0.09    -0.08   0.01   0.02    -0.01  -0.01  -0.03
   6   6     0.08  -0.06  -0.10    -0.08   0.01   0.02    -0.01  -0.02  -0.03
   7   6     0.09  -0.08  -0.08    -0.05   0.02   0.01    -0.03  -0.04  -0.02
   8   6     0.08  -0.08  -0.05    -0.02   0.04   0.00    -0.04  -0.05  -0.01
   9   6     0.05  -0.06  -0.03    -0.01   0.05   0.00    -0.04  -0.04  -0.01
  10   6     0.03  -0.06   0.00     0.02   0.07  -0.01    -0.05  -0.04   0.01
  11   6     0.01  -0.04   0.01     0.03   0.08  -0.01    -0.04  -0.03   0.01
  12   7     0.00  -0.02  -0.01     0.00   0.07  -0.00    -0.04  -0.01  -0.01
  13   6     0.01  -0.02  -0.04    -0.03   0.05   0.01    -0.02  -0.01  -0.02
  14   6     0.04  -0.04  -0.05    -0.04   0.03   0.01    -0.02  -0.02  -0.02
  15   1     0.02  -0.02  -0.04    -0.03  -0.00   0.01    -0.00  -0.01  -0.01
  16   1     0.03  -0.03  -0.03    -0.02   0.00   0.00    -0.01  -0.01  -0.01
  17   1     0.02  -0.03  -0.01     0.00   0.02  -0.00    -0.02  -0.02   0.00
  18   1     0.01  -0.02   0.01     0.01   0.02  -0.00    -0.02  -0.01   0.00
  19   1    -0.00  -0.01   0.01     0.02   0.03  -0.01    -0.01  -0.01   0.00
  20   1     0.00  -0.00  -0.02    -0.01   0.01   0.00    -0.00   0.00  -0.01
  21   6     0.05  -0.04  -0.09    -0.11  -0.02   0.03     0.02   0.01  -0.04
  22   6     0.06  -0.05  -0.09    -0.11  -0.01   0.05     0.03   0.00  -0.04
  23   6     0.06  -0.07  -0.08    -0.10   0.00   0.04     0.04  -0.01  -0.03
  24   6     0.06  -0.07  -0.07    -0.09   0.01   0.03     0.04  -0.01  -0.02
  25   7     0.06  -0.09  -0.06    -0.09   0.02   0.02     0.05  -0.02  -0.00
  26   6     0.04  -0.08  -0.05    -0.08   0.02  -0.00     0.05  -0.02   0.00
  27   6     0.04  -0.09  -0.03    -0.07   0.03  -0.02     0.05  -0.02   0.02
  28   6     0.03  -0.08  -0.03    -0.05   0.02  -0.03     0.04  -0.02   0.02
  29   6     0.02  -0.06  -0.03    -0.05  -0.01  -0.03     0.03  -0.01   0.01
  30   6     0.03  -0.05  -0.05    -0.07  -0.02  -0.02     0.03   0.00  -0.00
  31   6     0.04  -0.06  -0.05    -0.08  -0.01  -0.00     0.04  -0.01  -0.00
  32   6     0.04  -0.05  -0.07    -0.09  -0.01   0.02     0.03  -0.00  -0.02
  33   6     0.04  -0.04  -0.08    -0.10  -0.02   0.02     0.03   0.01  -0.03
  34   1     0.02  -0.02  -0.03    -0.03  -0.00   0.02     0.01   0.00  -0.01
  35   1     0.02  -0.02  -0.02    -0.03   0.00   0.02     0.01  -0.00  -0.01
  36   1     0.02  -0.03  -0.02    -0.02   0.01   0.01     0.01  -0.01  -0.00
  37   1     0.01  -0.03  -0.01    -0.02   0.01  -0.01     0.02  -0.01   0.01
  38   1     0.01  -0.02  -0.00    -0.01   0.01  -0.01     0.01  -0.01   0.01
  39   1     0.01  -0.01  -0.01    -0.02  -0.01  -0.00     0.01   0.00  -0.00
  40   1     0.01  -0.01  -0.02    -0.03  -0.01   0.00     0.01   0.00  -0.01
  41   6     0.01  -0.05  -0.02    -0.04  -0.02  -0.05     0.02   0.00   0.01
  42   6    -0.01  -0.06  -0.01    -0.03  -0.02  -0.08     0.01  -0.00   0.03
  43   6    -0.02  -0.04  -0.00    -0.01  -0.03  -0.10     0.00   0.00   0.03
  44   6    -0.02  -0.02   0.00    -0.01  -0.05  -0.08     0.00   0.02   0.02
  45   7    -0.00  -0.02  -0.00    -0.02  -0.06  -0.05     0.01   0.02   0.01
  46   6     0.01  -0.03  -0.01    -0.03  -0.05  -0.03     0.02   0.01   0.00
  47   1    -0.00  -0.02  -0.00    -0.01  -0.00  -0.03     0.00  -0.00   0.01
  48   1    -0.01  -0.01   0.00    -0.00  -0.01  -0.04    -0.00   0.00   0.01
  49   1    -0.01  -0.00   0.00     0.00  -0.02  -0.03    -0.00   0.01   0.01
  50   1     0.01  -0.01  -0.01    -0.01  -0.02  -0.00     0.01   0.00  -0.00
  51   6    -0.09   0.02  -0.05    -0.04  -0.03  -0.11    -0.00   0.05   0.07
  52   6    -0.09   0.02  -0.04    -0.02  -0.01  -0.10     0.01   0.06   0.08
  53   6    -0.08   0.03  -0.05    -0.02   0.00  -0.08     0.01   0.08   0.10
  54   6    -0.09   0.05  -0.08    -0.02  -0.00  -0.08     0.03   0.12   0.15
  55   6    -0.07   0.06  -0.09    -0.01   0.02  -0.05     0.04   0.13   0.17
  56   6    -0.04   0.06  -0.08     0.00   0.04  -0.02     0.03   0.11   0.14
  57   6    -0.03   0.05  -0.06     0.00   0.05  -0.01     0.01   0.08   0.09
  58   6     0.00   0.05  -0.04     0.01   0.07   0.02     0.01   0.05   0.06
  59   6     0.01   0.03  -0.02     0.01   0.07   0.02    -0.01   0.02   0.01
  60   7    -0.01   0.02  -0.01     0.01   0.07  -0.00    -0.03   0.00  -0.00
  61   6    -0.03   0.02  -0.02    -0.00   0.04  -0.03    -0.02   0.02   0.02
  62   6    -0.05   0.03  -0.04    -0.01   0.03  -0.04     0.00   0.06   0.07
  63   1    -0.03   0.01  -0.03    -0.01  -0.01  -0.03     0.01   0.04   0.05
  64   1    -0.02   0.02  -0.03    -0.00   0.00  -0.02     0.02   0.05   0.06
  65   1    -0.01   0.02  -0.03     0.00   0.01   0.00     0.01   0.04   0.05
  66   1     0.01   0.02  -0.01     0.01   0.02   0.01     0.00   0.02   0.02
  67   1     0.01   0.01  -0.00     0.01   0.03   0.01    -0.01  -0.00  -0.00
  68   1    -0.01   0.00  -0.00    -0.00   0.01  -0.02    -0.01   0.00   0.00
  69   6    -0.08   0.03  -0.05    -0.03  -0.03  -0.11    -0.00   0.04   0.05
  70   6    -0.08   0.05  -0.06    -0.04  -0.02  -0.11    -0.00   0.03   0.06
  71   6    -0.07   0.06  -0.07    -0.04  -0.00  -0.10     0.00   0.02   0.05
  72   6    -0.06   0.06  -0.06    -0.03  -0.00  -0.09     0.00   0.02   0.03
  73   7    -0.05   0.08  -0.06    -0.02   0.02  -0.09     0.00   0.02   0.02
  74   6    -0.04   0.07  -0.04     0.00   0.01  -0.07     0.00   0.02   0.00
  75   6    -0.03   0.08  -0.04     0.02   0.02  -0.06     0.01   0.02  -0.01
  76   6    -0.02   0.07  -0.02     0.03   0.01  -0.05     0.00   0.03  -0.01
  77   6    -0.03   0.05  -0.02     0.03  -0.02  -0.05    -0.00   0.03  -0.01
  78   6    -0.04   0.04  -0.03     0.01  -0.03  -0.06    -0.00   0.04   0.00
  79   6    -0.05   0.05  -0.04     0.00  -0.01  -0.08     0.00   0.03   0.01
  80   6    -0.06   0.05  -0.04    -0.02  -0.02  -0.09     0.00   0.03   0.02
  81   6    -0.07   0.03  -0.04    -0.02  -0.03  -0.10     0.00   0.04   0.03
  82   1    -0.03   0.01  -0.02    -0.02  -0.00  -0.03    -0.00   0.01   0.02
  83   1    -0.02   0.02  -0.02    -0.01   0.00  -0.03     0.00   0.00   0.02
  84   1    -0.01   0.02  -0.02    -0.01   0.01  -0.02     0.00   0.00   0.01
  85   1    -0.01   0.03  -0.01     0.01   0.01  -0.02     0.00   0.01  -0.00
  86   1    -0.00   0.02  -0.01     0.01   0.00  -0.01     0.00   0.01  -0.01
  87   1    -0.01   0.01  -0.01     0.00  -0.01  -0.02    -0.00   0.01   0.00
  88   1    -0.02   0.01  -0.01    -0.00  -0.01  -0.03     0.00   0.01   0.01
  89   6    -0.02   0.04  -0.01     0.05  -0.03  -0.03    -0.01   0.03  -0.00
  90   6    -0.01   0.05   0.01     0.08  -0.03  -0.02    -0.01   0.04   0.01
  91   6    -0.00   0.03   0.02     0.09  -0.04  -0.01    -0.00   0.03   0.02
  92   6     0.00   0.02   0.02     0.07  -0.06  -0.00     0.00   0.02   0.02
  93   7    -0.00   0.01   0.00     0.04  -0.07  -0.01     0.00   0.01   0.01
  94   6    -0.01   0.02  -0.01     0.03  -0.05  -0.03    -0.00   0.02  -0.00
  95   1    -0.00   0.02   0.00     0.03  -0.00  -0.01    -0.00   0.01   0.00
  96   1     0.00   0.01   0.01     0.03  -0.01   0.00    -0.00   0.01   0.01
  97   1     0.00   0.00   0.01     0.02  -0.02   0.00     0.00   0.00   0.01
  98   1    -0.00   0.00  -0.01     0.00  -0.02  -0.01    -0.00   0.00  -0.00
  99   6    -0.05  -0.01   0.09     0.11  -0.04  -0.04     0.09  -0.08  -0.04
 100   6    -0.05  -0.02   0.09     0.10  -0.02  -0.03     0.08  -0.09  -0.05
 101   6    -0.06  -0.03   0.07     0.07  -0.00  -0.02     0.08  -0.09  -0.05
 102   6    -0.09  -0.04   0.09     0.08  -0.01  -0.02     0.12  -0.12  -0.06
 103   6    -0.11  -0.05   0.07     0.05   0.01  -0.01     0.12  -0.13  -0.07
 104   6    -0.09  -0.05   0.04     0.02   0.04  -0.00     0.09  -0.10  -0.06
 105   6    -0.07  -0.04   0.02     0.02   0.05  -0.00     0.06  -0.07  -0.04
 106   6    -0.05  -0.04  -0.01    -0.02   0.07   0.01     0.02  -0.04  -0.03
 107   6    -0.03  -0.03  -0.02    -0.02   0.08   0.01    -0.01  -0.01  -0.02
 108   7    -0.01  -0.02  -0.00     0.01   0.07   0.00    -0.02  -0.00  -0.01
 109   6    -0.02  -0.02   0.03     0.04   0.04  -0.01     0.01  -0.03  -0.02
 110   6    -0.05  -0.03   0.04     0.04   0.03  -0.01     0.05  -0.06  -0.04
 111   1    -0.03  -0.01   0.03     0.03  -0.01  -0.01     0.04  -0.04  -0.02
 112   1    -0.04  -0.02   0.02     0.02   0.00  -0.00     0.04  -0.04  -0.02
 113   1    -0.03  -0.02   0.01    -0.00   0.02   0.00     0.03  -0.03  -0.02
 114   1    -0.02  -0.02  -0.01    -0.01   0.02   0.00     0.01  -0.01  -0.01
 115   1    -0.00  -0.01  -0.01    -0.01   0.03   0.00    -0.01   0.00  -0.00
 116   1    -0.00  -0.00   0.01     0.02   0.01  -0.00     0.00  -0.01  -0.00
 117   6    -0.05  -0.02   0.08     0.10  -0.04  -0.04     0.10  -0.07  -0.03
 118   6    -0.07  -0.04   0.08     0.10  -0.03  -0.05     0.16  -0.05   0.01
 119   6    -0.07  -0.05   0.07     0.10  -0.01  -0.04     0.15  -0.04   0.01
 120   6    -0.06  -0.05   0.06     0.09  -0.01  -0.03     0.08  -0.05  -0.03
 121   7    -0.07  -0.07   0.06     0.09   0.01  -0.02     0.06  -0.05  -0.04
 122   6    -0.05  -0.06   0.05     0.07   0.00  -0.00     0.00  -0.06  -0.07
 123   6    -0.04  -0.07   0.04     0.06   0.02   0.02    -0.04  -0.07  -0.09
 124   6    -0.03  -0.06   0.03     0.05   0.01   0.03    -0.07  -0.08  -0.10
 125   6    -0.02  -0.04   0.04     0.05  -0.02   0.03    -0.06  -0.08  -0.10
 126   6    -0.03  -0.03   0.05     0.06  -0.03   0.02    -0.04  -0.08  -0.09
 127   6    -0.04  -0.04   0.05     0.07  -0.02  -0.00    -0.01  -0.08  -0.08
 128   6    -0.05  -0.04   0.06     0.09  -0.02  -0.02     0.04  -0.07  -0.06
 129   6    -0.04  -0.02   0.07     0.09  -0.04  -0.02     0.04  -0.08  -0.06
 130   1    -0.02  -0.01   0.02     0.03  -0.01  -0.02     0.06  -0.01   0.01
 131   1    -0.02  -0.02   0.02     0.03  -0.00  -0.02     0.06  -0.01   0.01
 132   1    -0.02  -0.02   0.02     0.02   0.01  -0.01     0.02  -0.01  -0.01
 133   1    -0.01  -0.02   0.01     0.02   0.01   0.00    -0.01  -0.02  -0.03
 134   1    -0.01  -0.02   0.01     0.01   0.00   0.01    -0.03  -0.02  -0.03
 135   1    -0.01  -0.01   0.01     0.02  -0.01   0.00    -0.01  -0.03  -0.03
 136   1    -0.01  -0.00   0.02     0.03  -0.01  -0.00    -0.00  -0.03  -0.02
 137   6    -0.01  -0.03   0.02     0.03  -0.03   0.05    -0.04  -0.08  -0.08
 138   6     0.00  -0.04   0.02     0.02  -0.02   0.08    -0.03  -0.09  -0.10
 139   6     0.02  -0.03   0.01     0.01  -0.04   0.10     0.00  -0.08  -0.08
 140   6     0.01  -0.02   0.00     0.00  -0.06   0.08     0.02  -0.06  -0.03
 141   7     0.00  -0.01   0.01     0.01  -0.07   0.05     0.00  -0.06  -0.01
 142   6    -0.01  -0.02   0.02     0.02  -0.05   0.03    -0.03  -0.06  -0.04
 143   1     0.00  -0.02   0.01     0.01  -0.00   0.03    -0.01  -0.03  -0.04
 144   1     0.01  -0.01   0.00    -0.00  -0.01   0.04     0.00  -0.03  -0.03
 145   1     0.01  -0.00  -0.00    -0.00  -0.02   0.03     0.01  -0.02  -0.00
 146   1    -0.01  -0.00   0.01     0.01  -0.02   0.00    -0.01  -0.01  -0.00
 147   6     0.10   0.02   0.05     0.03  -0.04   0.11     0.01   0.01  -0.02
 148   6     0.10   0.02   0.05     0.03  -0.02   0.10     0.00   0.02  -0.01
 149   6     0.09   0.03   0.06     0.02   0.00   0.08    -0.00   0.02  -0.00
 150   6     0.10   0.04   0.09     0.02  -0.00   0.08     0.00   0.03   0.00
 151   6     0.08   0.06   0.11     0.02   0.02   0.05    -0.01   0.04   0.01
 152   6     0.05   0.07   0.09     0.01   0.04   0.02    -0.02   0.04   0.01
 153   6     0.03   0.05   0.06     0.01   0.05   0.01    -0.02   0.03   0.00
 154   6    -0.01   0.06   0.05    -0.00   0.07  -0.02    -0.03   0.02   0.00
 155   6    -0.02   0.04   0.02    -0.00   0.08  -0.02    -0.04   0.01  -0.00
 156   7    -0.00   0.02   0.01     0.00   0.07   0.00    -0.03   0.01  -0.01
 157   6     0.03   0.02   0.02     0.01   0.04   0.03    -0.02   0.01  -0.01
 158   6     0.05   0.04   0.05     0.01   0.03   0.04    -0.01   0.02  -0.00
 159   1     0.04   0.01   0.03     0.01  -0.01   0.03     0.00   0.01   0.00
 160   1     0.03   0.02   0.04     0.00   0.00   0.02    -0.00   0.01   0.00
 161   1     0.01   0.02   0.03     0.00   0.02  -0.00    -0.01   0.01   0.00
 162   1    -0.01   0.02   0.02    -0.00   0.02  -0.01    -0.01   0.01   0.00
 163   1    -0.01   0.01   0.00    -0.00   0.03  -0.01    -0.01   0.00  -0.00
 164   1     0.01   0.00   0.00     0.00   0.01   0.01    -0.00   0.00  -0.00
 165   6     0.09   0.03   0.05     0.03  -0.04   0.11     0.01   0.01  -0.02
 166   6     0.09   0.04   0.07     0.05  -0.02   0.11     0.04   0.01  -0.06
 167   6     0.08   0.06   0.07     0.04  -0.01   0.10     0.03   0.02  -0.05
 168   6     0.07   0.06   0.06     0.03  -0.00   0.09    -0.01   0.04  -0.00
 169   7     0.07   0.08   0.07     0.02   0.01   0.09    -0.04   0.06   0.03
 170   6     0.05   0.07   0.05     0.00   0.01   0.08    -0.07   0.06   0.06
 171   6     0.04   0.08   0.05    -0.02   0.02   0.07    -0.11   0.08   0.10
 172   6     0.03   0.07   0.03    -0.03   0.01   0.05    -0.12   0.08   0.11
 173   6     0.04   0.05   0.03    -0.03  -0.01   0.05    -0.11   0.07   0.09
 174   6     0.05   0.04   0.03    -0.02  -0.02   0.06    -0.09   0.06   0.07
 175   6     0.06   0.05   0.04    -0.00  -0.01   0.08    -0.07   0.06   0.06
 176   6     0.07   0.04   0.05     0.02  -0.02   0.09    -0.04   0.04   0.03
 177   6     0.08   0.03   0.04     0.02  -0.03   0.10    -0.03   0.03   0.02
 178   1     0.03   0.01   0.02     0.02  -0.01   0.03     0.02  -0.00  -0.03
 179   1     0.02   0.02   0.02     0.02   0.00   0.03     0.02   0.00  -0.02
 180   1     0.02   0.03   0.02     0.01   0.01   0.02    -0.01   0.01   0.00
 181   1     0.01   0.03   0.01    -0.00   0.01   0.02    -0.03   0.03   0.03
 182   1     0.01   0.02   0.01    -0.01   0.01   0.01    -0.04   0.03   0.04
 183   1     0.02   0.01   0.01    -0.00  -0.01   0.02    -0.02   0.01   0.02
 184   1     0.02   0.00   0.01     0.00  -0.01   0.03    -0.01   0.01   0.01
 185   6     0.02   0.04   0.01    -0.05  -0.02   0.03    -0.10   0.06   0.06
 186   6     0.02   0.05  -0.00    -0.08  -0.01   0.02    -0.13   0.07   0.05
 187   6     0.00   0.04  -0.02    -0.10  -0.03   0.01    -0.10   0.06   0.01
 188   6    -0.00   0.02  -0.01    -0.08  -0.05   0.00    -0.04   0.03  -0.01
 189   7     0.00   0.01   0.00    -0.05  -0.06   0.01    -0.01   0.02   0.01
 190   6     0.02   0.02   0.01    -0.04  -0.05   0.03    -0.04   0.03   0.04
 191   1     0.01   0.02  -0.00    -0.03   0.00   0.01    -0.05   0.03   0.02
 192   1    -0.00   0.01  -0.01    -0.04  -0.01  -0.00    -0.04   0.02  -0.00
 193   1    -0.00   0.00  -0.01    -0.03  -0.02  -0.00    -0.00   0.01  -0.01
 194   1     0.01   0.00   0.01    -0.00  -0.02   0.01    -0.00   0.01   0.02
                     10                     11                     12
                        a                      a                      a 
 Frequencies --    24.5793                24.6976                25.4580
 Red. masses --    13.0585                12.6861                20.3229
 Frc consts  --     0.0000                 0.0000                 0.0000
 IR Inten    --     0.1626                 0.1423                 0.1464
 Raman Activ --     0.0000                 0.0000                 0.0000
 Depolar     --     0.0000                 0.0000                 0.0000
 Atom AN      X      Y      Z        X      Y      Z        X      Y      Z
   1  46     0.02   0.02   0.13     0.10  -0.03  -0.05    -0.02  -0.29   0.01
   2  46    -0.00   0.00  -0.03    -0.03  -0.00   0.01    -0.00  -0.08  -0.00
   3   6    -0.02  -0.01   0.02    -0.11  -0.07   0.04     0.02   0.02   0.04
   4   6    -0.01  -0.01   0.02    -0.11  -0.08   0.05     0.04   0.02   0.05
   5   6     0.01  -0.01   0.02    -0.12  -0.09   0.05     0.04   0.02   0.04
   6   6     0.02  -0.01   0.02    -0.17  -0.12   0.07     0.08   0.07   0.03
   7   6     0.04  -0.01   0.02    -0.19  -0.12   0.07     0.07   0.08   0.02
   8   6     0.04  -0.00   0.03    -0.15  -0.10   0.05     0.01   0.04   0.02
   9   6     0.03  -0.00   0.03    -0.09  -0.07   0.03    -0.02  -0.00   0.03
  10   6     0.03   0.00   0.04    -0.05  -0.04   0.02    -0.07  -0.04   0.02
  11   6     0.02   0.00   0.04     0.00  -0.02  -0.00    -0.09  -0.08   0.02
  12   7     0.01   0.00   0.04     0.02  -0.01  -0.01    -0.07  -0.09   0.04
  13   6     0.01  -0.00   0.03    -0.02  -0.03   0.01    -0.03  -0.06   0.05
  14   6     0.02  -0.00   0.03    -0.08  -0.06   0.03    -0.01  -0.02   0.04
  15   1     0.01  -0.00   0.00    -0.06  -0.04   0.02     0.04   0.03   0.01
  16   1     0.01  -0.00   0.00    -0.06  -0.04   0.02     0.03   0.03   0.00
  17   1     0.02  -0.00   0.01    -0.05  -0.03   0.02    -0.00   0.01   0.00
  18   1     0.01   0.00   0.01    -0.02  -0.01   0.01    -0.03  -0.01   0.00
  19   1     0.01   0.00   0.01     0.01   0.00  -0.00    -0.04  -0.03   0.01
  20   1    -0.00  -0.00   0.01    -0.00  -0.01  -0.00    -0.00  -0.02   0.02
  21   6    -0.03  -0.02   0.01    -0.11  -0.06   0.03    -0.01   0.02   0.02
  22   6    -0.08  -0.01  -0.02    -0.15  -0.03   0.01    -0.05   0.04  -0.01
  23   6    -0.07  -0.01  -0.02    -0.14  -0.01   0.00    -0.09   0.04  -0.04
  24   6    -0.02  -0.03   0.03    -0.10  -0.03   0.02    -0.09   0.04  -0.03
  25   7    -0.00  -0.05   0.05    -0.09  -0.02   0.02    -0.13   0.05  -0.06
  26   6     0.04  -0.06   0.09    -0.04  -0.04   0.03    -0.10   0.04  -0.03
  27   6     0.07  -0.08   0.12    -0.02  -0.04   0.03    -0.10   0.04  -0.03
  28   6     0.09  -0.08   0.14     0.01  -0.05   0.04    -0.07   0.03  -0.00
  29   6     0.07  -0.07   0.12     0.01  -0.07   0.04    -0.03   0.02   0.03
  30   6     0.06  -0.06   0.10    -0.01  -0.07   0.04    -0.03   0.02   0.03
  31   6     0.04  -0.06   0.09    -0.03  -0.06   0.04    -0.06   0.03   0.00
  32   6     0.01  -0.04   0.06    -0.07  -0.05   0.03    -0.05   0.03   0.00
  33   6     0.01  -0.04   0.05    -0.07  -0.07   0.04    -0.01   0.02   0.03
  34   1    -0.03   0.00  -0.02    -0.05  -0.01   0.00    -0.01   0.01  -0.01
  35   1    -0.03  -0.00  -0.01    -0.05   0.00  -0.00    -0.03   0.02  -0.02
  36   1    -0.01  -0.01   0.01    -0.03   0.00   0.00    -0.04   0.02  -0.02
  37   1     0.02  -0.02   0.04    -0.01  -0.01   0.01    -0.04   0.02  -0.02
  38   1     0.03  -0.03   0.05     0.01  -0.01   0.01    -0.02   0.01   0.00
  39   1     0.01  -0.02   0.03    -0.00  -0.02   0.01    -0.00   0.00   0.01
  40   1     0.01  -0.01   0.02    -0.01  -0.03   0.02     0.00   0.00   0.01
  41   6     0.05  -0.06   0.11     0.00  -0.07   0.03    -0.01   0.01   0.05
  42   6     0.04  -0.07   0.14    -0.01  -0.07   0.03     0.02   0.02   0.07
  43   6     0.01  -0.06   0.11    -0.02  -0.06   0.02     0.04   0.01   0.09
  44   6    -0.01  -0.04   0.04    -0.02  -0.05   0.02     0.04  -0.01   0.08
  45   7     0.00  -0.03   0.01    -0.01  -0.05   0.01     0.01  -0.02   0.06
  46   6     0.03  -0.04   0.04     0.00  -0.05   0.02    -0.01  -0.01   0.05
  47   1     0.02  -0.02   0.06    -0.00  -0.02   0.01     0.01   0.01   0.02
  48   1    -0.00  -0.02   0.04    -0.01  -0.02   0.01     0.02   0.01   0.03
  49   1    -0.01  -0.01   0.00    -0.01  -0.01   0.00     0.02  -0.00   0.03
  50   1     0.01  -0.01   0.00     0.00  -0.01   0.00    -0.01  -0.00   0.01
  51   6    -0.06  -0.05  -0.07     0.02   0.04   0.05    -0.04   0.01   0.00
  52   6    -0.06  -0.05  -0.06     0.03   0.04   0.04    -0.06   0.01   0.02
  53   6    -0.05  -0.04  -0.06     0.04   0.04   0.03    -0.05   0.01   0.02
  54   6    -0.06  -0.05  -0.09     0.04   0.05   0.03    -0.04   0.06   0.05
  55   6    -0.05  -0.04  -0.08     0.04   0.05   0.02    -0.03   0.06   0.03
  56   6    -0.03  -0.02  -0.05     0.04   0.04   0.01    -0.03   0.02  -0.02
  57   6    -0.02  -0.01  -0.02     0.04   0.02  -0.00    -0.03  -0.02  -0.04
  58   6     0.00   0.01   0.01     0.04   0.01  -0.02    -0.03  -0.05  -0.08
  59   6     0.01   0.02   0.04     0.04  -0.01  -0.02    -0.03  -0.08  -0.09
  60   7     0.01   0.02   0.04     0.03  -0.01  -0.02    -0.04  -0.09  -0.06
  61   6    -0.01  -0.00   0.01     0.03   0.00  -0.00    -0.05  -0.06  -0.03
  62   6    -0.03  -0.02  -0.02     0.04   0.02   0.01    -0.05  -0.02  -0.02
  63   1    -0.02  -0.02  -0.03     0.01   0.02   0.01    -0.01   0.03   0.02
  64   1    -0.02  -0.01  -0.03     0.01   0.02   0.01    -0.01   0.03   0.01
  65   1    -0.01  -0.00  -0.01     0.01   0.01  -0.00    -0.00   0.01  -0.01
  66   1     0.00   0.01   0.01     0.01   0.00  -0.01    -0.01  -0.01  -0.03
  67   1     0.01   0.01   0.02     0.01  -0.00  -0.01    -0.01  -0.03  -0.03
  68   1    -0.00  -0.00   0.00     0.01   0.00   0.00    -0.02  -0.02  -0.00
  69   6    -0.05  -0.04  -0.08     0.02   0.04   0.06    -0.02   0.01  -0.03
  70   6    -0.04  -0.02  -0.09    -0.02   0.02   0.11     0.01   0.02  -0.08
  71   6    -0.03  -0.01  -0.10    -0.01   0.02   0.10     0.04   0.03  -0.11
  72   6    -0.02  -0.01  -0.08     0.03   0.04   0.04     0.03   0.03  -0.10
  73   7    -0.01   0.00  -0.09     0.06   0.05   0.01     0.05   0.04  -0.14
  74   6    -0.00  -0.01  -0.06     0.10   0.06  -0.04     0.02   0.03  -0.10
  75   6     0.01   0.00  -0.05     0.13   0.07  -0.08     0.03   0.03  -0.10
  76   6     0.01  -0.01  -0.04     0.15   0.08  -0.10    -0.00   0.02  -0.07
  77   6     0.00  -0.03  -0.03     0.13   0.07  -0.08    -0.03   0.01  -0.03
  78   6    -0.01  -0.04  -0.03     0.12   0.07  -0.06    -0.04   0.01  -0.03
  79   6    -0.02  -0.03  -0.05     0.10   0.06  -0.04    -0.01   0.02  -0.06
  80   6    -0.03  -0.03  -0.06     0.07   0.05   0.00    -0.01   0.02  -0.06
  81   6    -0.04  -0.05  -0.06     0.06   0.05   0.01    -0.03   0.01  -0.02
  82   1    -0.01  -0.01  -0.03    -0.02   0.00   0.04     0.01   0.01  -0.02
  83   1    -0.01   0.00  -0.03    -0.01   0.00   0.04     0.02   0.01  -0.04
  84   1    -0.00   0.00  -0.03     0.01   0.01   0.01     0.02   0.01  -0.05
  85   1     0.00   0.01  -0.02     0.04   0.02  -0.02     0.01   0.01  -0.04
  86   1     0.01  -0.00  -0.01     0.05   0.02  -0.04    -0.00   0.00  -0.02
  87   1    -0.01  -0.02  -0.01     0.03   0.02  -0.01    -0.02   0.00  -0.00
  88   1    -0.01  -0.02  -0.01     0.03   0.02  -0.01    -0.02   0.00   0.00
  89   6     0.01  -0.04  -0.02     0.12   0.07  -0.06    -0.06   0.01  -0.00
  90   6     0.03  -0.04  -0.02     0.15   0.07  -0.04    -0.07   0.02   0.02
  91   6     0.03  -0.04  -0.02     0.11   0.07  -0.00    -0.09   0.01   0.04
  92   6     0.01  -0.04  -0.01     0.04   0.05   0.02    -0.08  -0.01   0.03
  93   7     0.00  -0.04  -0.01     0.01   0.04  -0.00    -0.07  -0.02   0.01
  94   6     0.00  -0.04  -0.02     0.05   0.05  -0.04    -0.05  -0.01  -0.00
  95   1     0.01  -0.01  -0.01     0.06   0.03  -0.02    -0.02   0.01   0.01
  96   1     0.01  -0.01  -0.01     0.04   0.02   0.00    -0.03   0.01   0.02
  97   1     0.00  -0.01  -0.00     0.00   0.01   0.01    -0.03  -0.00   0.01
  98   1    -0.00  -0.01  -0.00     0.00   0.01  -0.01    -0.01  -0.01  -0.01
  99   6     0.02  -0.01   0.02    -0.04   0.04   0.04    -0.01   0.01  -0.04
 100   6     0.04  -0.03   0.02    -0.04   0.04   0.04    -0.03   0.01  -0.05
 101   6     0.06  -0.05   0.02    -0.04   0.03   0.03    -0.03   0.02  -0.04
 102   6     0.10  -0.07   0.01    -0.06   0.03   0.04    -0.05   0.07  -0.04
 103   6     0.12  -0.09   0.00    -0.06   0.02   0.03    -0.03   0.08  -0.02
 104   6     0.10  -0.08   0.00    -0.03   0.00   0.01     0.02   0.03  -0.02
 105   6     0.07  -0.05   0.02    -0.01  -0.01   0.00     0.04  -0.02  -0.02
 106   6     0.05  -0.04   0.02     0.02  -0.02  -0.02     0.08  -0.06  -0.01
 107   6     0.02  -0.01   0.03     0.04  -0.03  -0.03     0.08  -0.09  -0.02
 108   7     0.01   0.00   0.05     0.04  -0.02  -0.02     0.06  -0.10  -0.03
 109   6     0.02  -0.01   0.04     0.01  -0.00  -0.00     0.02  -0.06  -0.04
 110   6     0.05  -0.03   0.03    -0.01   0.00   0.01     0.01  -0.02  -0.04
 111   1     0.03  -0.02   0.00    -0.02   0.01   0.02    -0.02   0.03  -0.01
 112   1     0.04  -0.03  -0.00    -0.02   0.01   0.01    -0.01   0.03  -0.00
 113   1     0.03  -0.03  -0.00    -0.01  -0.00   0.00     0.01   0.01  -0.00
 114   1     0.02  -0.01   0.00     0.01  -0.01  -0.01     0.03  -0.02  -0.00
 115   1     0.00  -0.00   0.01     0.02  -0.01  -0.01     0.03  -0.03  -0.00
 116   1     0.00   0.00   0.01     0.00   0.00   0.00     0.00  -0.02  -0.01
 117   6     0.00  -0.01   0.02    -0.04   0.03   0.04     0.02   0.02  -0.02
 118   6    -0.02  -0.01  -0.01    -0.04   0.02   0.05     0.06   0.02   0.01
 119   6    -0.03  -0.00  -0.01    -0.05   0.01   0.04     0.10   0.03   0.04
 120   6    -0.01   0.01   0.02    -0.05   0.00   0.01     0.10   0.03   0.03
 121   7    -0.01   0.01   0.03    -0.07  -0.01  -0.01     0.14   0.04   0.06
 122   6     0.01   0.02   0.05    -0.06  -0.01  -0.02     0.11   0.03   0.04
 123   6     0.02   0.02   0.06    -0.07  -0.02  -0.05     0.12   0.03   0.05
 124   6     0.04   0.02   0.08    -0.06  -0.01  -0.06     0.09   0.03   0.02
 125   6     0.03   0.02   0.08    -0.05   0.00  -0.05     0.05   0.02  -0.01
 126   6     0.03   0.01   0.07    -0.05   0.01  -0.03     0.04   0.02  -0.02
 127   6     0.02   0.01   0.06    -0.05   0.01  -0.02     0.07   0.02   0.01
 128   6     0.01   0.01   0.04    -0.05   0.02   0.01     0.06   0.02   0.00
 129   6     0.02  -0.00   0.04    -0.04   0.03   0.02     0.02   0.02  -0.02
 130   1    -0.01  -0.00  -0.01    -0.01   0.01   0.02     0.02   0.01   0.00
 131   1    -0.02  -0.00  -0.01    -0.01   0.00   0.01     0.04   0.01   0.02
 132   1    -0.01   0.00   0.00    -0.02  -0.01  -0.00     0.05   0.01   0.02
 133   1     0.01   0.01   0.02    -0.02  -0.01  -0.02     0.04   0.01   0.02
 134   1     0.01   0.01   0.03    -0.02  -0.01  -0.02     0.03   0.01   0.01
 135   1     0.01   0.00   0.02    -0.01   0.01  -0.01     0.00   0.00  -0.01
 136   1     0.01  -0.00   0.02    -0.01   0.01   0.00    -0.00   0.00  -0.01
 137   6     0.03   0.02   0.07    -0.04   0.01  -0.05     0.02   0.01  -0.04
 138   6     0.03   0.01   0.09    -0.03   0.01  -0.08    -0.01   0.03  -0.05
 139   6     0.02   0.02   0.07    -0.02   0.01  -0.07    -0.04   0.02  -0.07
 140   6     0.01   0.02   0.02    -0.01   0.02  -0.03    -0.04  -0.00  -0.07
 141   7     0.01   0.02   0.01    -0.01   0.03  -0.01    -0.01  -0.02  -0.06
 142   6     0.02   0.02   0.03    -0.02   0.02  -0.02     0.01  -0.01  -0.04
 143   1     0.01   0.00   0.04    -0.01   0.00  -0.03    -0.00   0.01  -0.01
 144   1     0.01   0.00   0.02    -0.00   0.00  -0.02    -0.02   0.01  -0.02
 145   1    -0.00   0.01  -0.00     0.00   0.01  -0.01    -0.02  -0.00  -0.03
 146   1     0.00   0.00   0.00    -0.01   0.01   0.00     0.01  -0.01  -0.01
 147   6    -0.05   0.09  -0.10     0.03   0.01  -0.01     0.03   0.02  -0.01
 148   6    -0.06   0.09  -0.10     0.04   0.02  -0.04     0.05   0.01  -0.03
 149   6    -0.05   0.09  -0.10     0.03   0.04  -0.06     0.04   0.02  -0.03
 150   6    -0.07   0.12  -0.14     0.02   0.07  -0.09     0.03   0.07  -0.06
 151   6    -0.06   0.12  -0.15     0.01   0.09  -0.11     0.02   0.07  -0.04
 152   6    -0.05   0.09  -0.11     0.01   0.08  -0.10     0.02   0.03   0.01
 153   6    -0.03   0.06  -0.07     0.02   0.05  -0.07     0.02  -0.02   0.04
 154   6    -0.02   0.03  -0.03     0.02   0.04  -0.06     0.01  -0.06   0.08
 155   6     0.00   0.01   0.02     0.02   0.01  -0.03     0.01  -0.09   0.09
 156   7     0.00   0.00   0.03     0.04  -0.00  -0.01     0.03  -0.10   0.07
 157   6    -0.01   0.03  -0.01     0.04   0.00  -0.02     0.04  -0.06   0.03
 158   6    -0.03   0.06  -0.06     0.03   0.03  -0.05     0.04  -0.02   0.01
 159   1    -0.02   0.04  -0.05     0.01   0.02  -0.03     0.01   0.03  -0.03
 160   1    -0.02   0.04  -0.05     0.00   0.03  -0.04     0.01   0.03  -0.02
 161   1    -0.01   0.03  -0.03     0.00   0.03  -0.03     0.00   0.01   0.01
 162   1    -0.00   0.01  -0.01     0.00   0.02  -0.02     0.00  -0.02   0.03
 163   1     0.00  -0.00   0.02     0.01   0.00  -0.00     0.00  -0.03   0.04
 164   1    -0.00   0.01  -0.00     0.01  -0.00  -0.00     0.01  -0.02   0.00
 165   6    -0.04   0.07  -0.11     0.03   0.00   0.00     0.02   0.02   0.02
 166   6    -0.02   0.04  -0.15     0.01   0.01   0.03    -0.01   0.03   0.05
 167   6    -0.01   0.02  -0.15     0.00   0.01   0.04    -0.04   0.04   0.09
 168   6    -0.02   0.04  -0.10     0.02   0.00   0.03    -0.03   0.04   0.09
 169   7    -0.02   0.03  -0.10     0.02  -0.00   0.03    -0.05   0.05   0.13
 170   6    -0.03   0.04  -0.05     0.03  -0.01   0.01    -0.03   0.04   0.10
 171   6    -0.04   0.04  -0.02     0.04  -0.01   0.01    -0.03   0.04   0.10
 172   6    -0.04   0.05   0.01     0.05  -0.01  -0.00    -0.00   0.03   0.07
 173   6    -0.04   0.07   0.01     0.05  -0.01  -0.01     0.02   0.02   0.03
 174   6    -0.05   0.08  -0.00     0.05  -0.01  -0.01     0.03   0.02   0.03
 175   6    -0.04   0.06  -0.03     0.04  -0.01   0.00     0.00   0.03   0.06
 176   6    -0.04   0.06  -0.07     0.03  -0.00   0.01    -0.00   0.03   0.05
 177   6    -0.05   0.08  -0.06     0.04  -0.00  -0.00     0.02   0.02   0.02
 178   1    -0.00   0.01  -0.05    -0.00   0.00   0.01    -0.01   0.01   0.01
 179   1     0.00   0.00  -0.05    -0.00   0.00   0.02    -0.02   0.01   0.03
 180   1    -0.00   0.00  -0.03     0.00   0.00   0.01    -0.02   0.01   0.04
 181   1    -0.01   0.01  -0.01     0.01  -0.00   0.00    -0.02   0.01   0.04
 182   1    -0.01   0.01   0.01     0.02  -0.00  -0.00    -0.00   0.01   0.02
 183   1    -0.01   0.03   0.00     0.02  -0.00  -0.00     0.01   0.00   0.00
 184   1    -0.02   0.03  -0.01     0.02  -0.00  -0.01     0.01   0.00  -0.00
 185   6    -0.03   0.07   0.01     0.05  -0.01  -0.01     0.05   0.01   0.01
 186   6    -0.03   0.08  -0.00     0.06  -0.01  -0.02     0.07   0.02  -0.02
 187   6    -0.02   0.07  -0.02     0.04  -0.01  -0.01     0.08   0.01  -0.04
 188   6    -0.01   0.06  -0.02     0.01  -0.02  -0.01     0.08  -0.01  -0.04
 189   7    -0.00   0.06  -0.01     0.00  -0.02  -0.00     0.06  -0.02  -0.02
 190   6    -0.01   0.06   0.01     0.02  -0.02  -0.00     0.05  -0.01   0.01
 191   1    -0.01   0.03   0.00     0.02  -0.00  -0.01     0.02   0.01  -0.00
 192   1    -0.01   0.02  -0.01     0.01  -0.00  -0.01     0.03   0.01  -0.02
 193   1    -0.00   0.02  -0.01    -0.00  -0.01  -0.00     0.03  -0.00  -0.02
 194   1    -0.00   0.02   0.00     0.00  -0.01   0.00     0.01  -0.01   0.01
                     13                     14                     15
                        a                      a                      a 
 Frequencies --    31.7486                33.8375                33.8968
 Red. masses --    15.5021                15.1039                15.1654
 Frc consts  --     0.0000                 0.0000                 0.0000
 IR Inten    --     0.0441                 0.1851                 0.1830
 Raman Activ --     0.0000                 0.0000                 0.0000
 Depolar     --     0.0000                 0.0000                 0.0000
 Atom AN      X      Y      Z        X      Y      Z        X      Y      Z
   1  46     0.01   0.21   0.00    -0.06   0.01   0.03    -0.03  -0.00  -0.06
   2  46     0.01   0.03   0.00     0.14  -0.01  -0.12     0.12  -0.01   0.15
   3   6    -0.04   0.03  -0.08    -0.11  -0.05   0.01    -0.07  -0.03   0.01
   4   6    -0.05   0.01  -0.07    -0.07  -0.02   0.01    -0.06  -0.02   0.01
   5   6    -0.07  -0.03  -0.04    -0.01   0.02  -0.01    -0.05  -0.01   0.00
   6   6    -0.09  -0.08  -0.04     0.04   0.05  -0.02    -0.04   0.00   0.00
   7   6    -0.11  -0.13   0.00     0.14   0.11  -0.06    -0.02   0.02  -0.01
   8   6    -0.12  -0.13   0.04     0.19   0.14  -0.07    -0.01   0.02  -0.02
   9   6    -0.09  -0.07   0.03     0.13   0.11  -0.05    -0.02   0.01  -0.02
  10   6    -0.09  -0.06   0.07     0.15   0.12  -0.06     0.00   0.02  -0.03
  11   6    -0.06   0.00   0.06     0.08   0.08  -0.04     0.00   0.01  -0.03
  12   7    -0.03   0.05   0.02    -0.00   0.03  -0.00    -0.02  -0.00  -0.02
  13   6    -0.03   0.04  -0.01    -0.03   0.01   0.01    -0.04  -0.01  -0.01
  14   6    -0.06  -0.02  -0.01     0.03   0.05  -0.02    -0.03  -0.00  -0.01
  15   1    -0.03  -0.03  -0.02     0.00   0.01  -0.00    -0.01   0.00   0.00
  16   1    -0.04  -0.05   0.00     0.05   0.04  -0.02    -0.01   0.01  -0.00
  17   1    -0.04  -0.05   0.02     0.08   0.06  -0.03     0.00   0.01  -0.01
  18   1    -0.03  -0.03   0.03     0.07   0.05  -0.03     0.00   0.01  -0.01
  19   1    -0.01   0.00   0.02     0.03   0.02  -0.01     0.00   0.01  -0.01
[...]
 142   6     0.00  -0.00  -0.00    -0.00  -0.00   0.00     0.00   0.00   0.00
 143   1     0.30  -0.01  -0.08     0.01  -0.00  -0.00     0.00   0.00  -0.00
 144   1     0.33   0.54  -0.02     0.01   0.02  -0.00     0.00   0.00  -0.00
 145   1    -0.01   0.02   0.01    -0.00   0.00   0.00     0.00  -0.00  -0.00
 146   1     0.00   0.00  -0.00     0.00   0.00  -0.00     0.00   0.00  -0.00
 147   6    -0.00  -0.00  -0.00    -0.00  -0.00  -0.00    -0.00  -0.00  -0.00
 148   6     0.00   0.00   0.00     0.00   0.00   0.00     0.00   0.00   0.00
 149   6     0.00   0.00   0.00     0.00   0.00   0.00    -0.00  -0.00  -0.00
 150   6    -0.00   0.00   0.00    -0.00   0.00   0.00    -0.00   0.00   0.00
 151   6    -0.00   0.00   0.00    -0.00   0.00   0.00    -0.00   0.00   0.00
 152   6    -0.00  -0.00  -0.00    -0.00  -0.00  -0.00     0.00   0.00   0.00
 153   6    -0.00  -0.00  -0.00    -0.00  -0.00  -0.00    -0.00  -0.00  -0.00
 154   6    -0.00  -0.00  -0.00    -0.00  -0.00  -0.00     0.00   0.00   0.00
 155   6     0.00  -0.00  -0.00     0.00  -0.00  -0.00    -0.00   0.00   0.00
 156   7     0.00   0.00   0.00    -0.00   0.00   0.00     0.00  -0.00  -0.00
 157   6     0.00   0.00   0.00     0.00   0.00   0.00    -0.00  -0.00  -0.00
 158   6     0.00   0.00   0.00     0.00   0.00   0.00     0.00   0.00   0.00
 159   1     0.00  -0.00  -0.00     0.00  -0.00  -0.00     0.00  -0.00  -0.00
 160   1     0.00  -0.00  -0.00     0.00  -0.00  -0.00     0.00  -0.00  -0.00
 161   1     0.00   0.00   0.00     0.00   0.00   0.00    -0.00  -0.00  -0.00
 162   1     0.00   0.00   0.00     0.00   0.00   0.00    -0.00  -0.00  -0.00
 163   1    -0.00   0.00   0.00    -0.00   0.00   0.00     0.00  -0.00  -0.00
 164   1    -0.00  -0.00  -0.00    -0.00  -0.00  -0.00     0.00   0.00   0.00
 165   6    -0.00  -0.00  -0.00     0.00  -0.00   0.00     0.00  -0.00   0.00
 166   6    -0.00  -0.00   0.00    -0.00  -0.00   0.00    -0.00   0.00  -0.00
 167   6     0.00  -0.00   0.00     0.00  -0.00   0.00     0.00   0.00   0.00
 168   6     0.00   0.00  -0.00     0.00   0.00  -0.00    -0.00   0.00  -0.00
 169   7    -0.00   0.00  -0.00    -0.00   0.00  -0.00    -0.02   0.01  -0.02
 170   6     0.00   0.00   0.00     0.00  -0.00   0.00    -0.00  -0.00  -0.00
 171   6    -0.00   0.00  -0.00     0.00  -0.00   0.00    -0.00  -0.00   0.00
 172   6    -0.00  -0.00  -0.00    -0.00  -0.00  -0.00    -0.00   0.00  -0.00
 173   6    -0.00   0.00  -0.00    -0.00   0.00  -0.00     0.00  -0.00   0.00
 174   6    -0.00   0.00  -0.00    -0.00  -0.00  -0.00    -0.00  -0.00  -0.00
 175   6    -0.00  -0.00  -0.00    -0.00   0.00  -0.00     0.00   0.00   0.00
 176   6    -0.00   0.00  -0.00    -0.00  -0.00  -0.00     0.00  -0.00   0.00
 177   6    -0.00   0.00  -0.00     0.00  -0.00   0.00    -0.00   0.00  -0.00
 178   1     0.00   0.00  -0.00     0.00   0.00  -0.00     0.00   0.00   0.00
 179   1    -0.00   0.00  -0.00    -0.00   0.00  -0.00     0.00  -0.00   0.00
 180   1     0.00  -0.00   0.00     0.00  -0.00   0.00     0.07  -0.03   0.07
 181   1     0.00   0.00   0.00    -0.00   0.00  -0.00     0.00   0.00   0.00
 182   1     0.00   0.00   0.00     0.00   0.00   0.00     0.00  -0.00   0.00
 183   1     0.01  -0.00   0.01     0.00  -0.00   0.00     0.00   0.00   0.00
 184   1     0.00  -0.00   0.00    -0.00   0.00  -0.00     0.00  -0.00   0.00
 185   6    -0.00   0.00  -0.00    -0.00   0.00   0.00    -0.00   0.00  -0.00
 186   6    -0.01   0.00  -0.03    -0.00   0.00  -0.01    -0.00  -0.00  -0.00
 187   6    -0.01  -0.05  -0.03    -0.00  -0.02  -0.01    -0.00   0.00  -0.00
 188   6     0.00  -0.00   0.00     0.00  -0.00   0.00     0.00  -0.00   0.00
 189   7     0.00   0.00   0.00     0.00   0.00   0.00    -0.00   0.00   0.00
 190   6    -0.00  -0.00  -0.00    -0.00  -0.00  -0.00     0.00   0.00   0.00
 191   1     0.03   0.00   0.09     0.01   0.00   0.03    -0.00   0.00   0.00
 192   1     0.02   0.18   0.10     0.01   0.06   0.03     0.00   0.00   0.00
 193   1    -0.00   0.01  -0.00    -0.00   0.00  -0.00    -0.00   0.00   0.00
 194   1     0.00   0.00   0.00     0.00   0.00   0.00    -0.00  -0.00   0.00
                    574                    575                    576
                        a                      a                      a 
 Frequencies --  3474.8148              3474.9330              3475.2878
 Red. masses --     1.8700                 1.8700                 1.8699
 Frc consts  --     0.0000                 0.0000                 0.0000
 IR Inten    --     0.6132                 0.5737                 0.5839
 Raman Activ --     0.0000                 0.0000                 0.0000
 Depolar     --     0.0000                 0.0000                 0.0000
 Atom AN      X      Y      Z        X      Y      Z        X      Y      Z
   1  46     0.00  -0.00  -0.00    -0.00  -0.00   0.00     0.00   0.00   0.00
   2  46    -0.00   0.00  -0.00     0.00   0.00   0.00     0.00  -0.00  -0.00
   3   6     0.00  -0.00  -0.00    -0.00   0.00   0.00    -0.00   0.00   0.00
   4   6    -0.00   0.00   0.00     0.00   0.00   0.00     0.00   0.00   0.00
   5   6    -0.00  -0.00  -0.00     0.00  -0.00   0.00     0.00  -0.00  -0.00
   6   6    -0.00   0.00   0.00     0.00  -0.00   0.00    -0.00   0.00  -0.00
   7   6    -0.00  -0.00  -0.00     0.00  -0.00   0.00     0.00  -0.00   0.00
   8   6     0.00  -0.00  -0.00     0.00  -0.00  -0.00    -0.00   0.00   0.00
   9   6     0.00  -0.00  -0.00     0.00   0.00   0.00    -0.00   0.00   0.00
  10   6    -0.00   0.00   0.00     0.00  -0.00  -0.00    -0.00   0.00  -0.00
  11   6     0.00  -0.00  -0.00     0.00  -0.00   0.00    -0.00   0.00  -0.00
  12   7     0.00  -0.00   0.00    -0.00   0.00  -0.00    -0.00   0.00  -0.00
  13   6    -0.00   0.00  -0.00     0.00   0.00   0.00     0.00  -0.00   0.00
  14   6     0.00  -0.00   0.00     0.00  -0.00  -0.00    -0.00   0.00  -0.00
  15   1     0.00  -0.00   0.00    -0.00   0.00  -0.00     0.00  -0.00   0.00
  16   1     0.00  -0.00   0.00    -0.00   0.00  -0.00    -0.00   0.00  -0.00
  17   1    -0.00   0.00   0.00    -0.00   0.00   0.00     0.00  -0.00  -0.00
  18   1     0.00   0.00   0.00    -0.00   0.00   0.00     0.00  -0.00  -0.00
  19   1    -0.00   0.00   0.00    -0.00   0.00  -0.00     0.00  -0.00   0.00
  20   1     0.00   0.00   0.00     0.00  -0.00  -0.00    -0.00  -0.00  -0.00
  21   6    -0.00  -0.00   0.00    -0.00  -0.00   0.00     0.00  -0.00  -0.00
  22   6     0.00  -0.00  -0.00     0.00  -0.00  -0.00    -0.00   0.00   0.00
  23   6    -0.00   0.00   0.00    -0.00   0.00   0.00     0.00  -0.00  -0.00
  24   6     0.00   0.00  -0.00     0.00   0.00  -0.00    -0.00  -0.00   0.00
  25   7     0.02   0.01  -0.02     0.01   0.00  -0.01    -0.00  -0.00   0.00
  26   6     0.00  -0.00  -0.00     0.00  -0.00  -0.00    -0.00   0.00   0.00
  27   6    -0.00  -0.00  -0.00    -0.00  -0.00   0.00     0.00   0.00  -0.00
  28   6     0.00   0.00  -0.00     0.00   0.00  -0.00    -0.00  -0.00  -0.00
  29   6    -0.00  -0.00   0.00    -0.00  -0.00   0.00     0.00   0.00  -0.00
  30   6     0.00  -0.00  -0.00     0.00  -0.00  -0.00    -0.00   0.00   0.00
  31   6    -0.00   0.00   0.00    -0.00   0.00   0.00     0.00  -0.00  -0.00
  32   6    -0.00  -0.00   0.00    -0.00  -0.00   0.00     0.00   0.00  -0.00
  33   6     0.00   0.00  -0.00     0.00   0.00   0.00    -0.00  -0.00   0.00
  34   1     0.00   0.00   0.00     0.00   0.00   0.00    -0.00  -0.00  -0.00
  35   1    -0.00  -0.00   0.00     0.00  -0.00  -0.00    -0.00  -0.00   0.00
  36   1    -0.07  -0.02   0.07    -0.04  -0.01   0.04     0.01   0.00  -0.01
  37   1    -0.00   0.00   0.00     0.00   0.00  -0.00    -0.00  -0.00   0.00
  38   1    -0.00  -0.00  -0.00     0.00  -0.00  -0.00    -0.00   0.00   0.00
  39   1    -0.00   0.00   0.00    -0.00  -0.00   0.00     0.00   0.00  -0.00
  40   1    -0.00  -0.00   0.00     0.00   0.00  -0.00     0.00   0.00  -0.00
  41   6     0.00   0.00  -0.00     0.00   0.00  -0.00    -0.00  -0.00   0.00
  42   6    -0.00  -0.00   0.00    -0.00  -0.00   0.00     0.00  -0.00  -0.00
  43   6     0.00   0.00  -0.00     0.00   0.00  -0.00    -0.00   0.00   0.00
  44   6    -0.00   0.00   0.00    -0.00   0.00   0.00     0.00  -0.00   0.00
  45   7     0.00   0.00  -0.00    -0.00   0.00   0.00    -0.00   0.00   0.00
  46   6    -0.00  -0.00   0.00    -0.00  -0.00   0.00     0.00   0.00  -0.00
  47   1     0.00  -0.00  -0.00     0.00  -0.00  -0.00    -0.00   0.00   0.00
  48   1     0.00  -0.00   0.00     0.00  -0.00   0.00    -0.00   0.00   0.00
  49   1     0.00  -0.00  -0.00     0.00  -0.00   0.00    -0.00  -0.00   0.00
  50   1     0.00  -0.00  -0.00     0.00   0.00   0.00    -0.00   0.00   0.00
  51   6    -0.00   0.00  -0.00     0.00  -0.00   0.00     0.00  -0.00   0.00
  52   6     0.00  -0.00   0.00    -0.00   0.00  -0.00    -0.00   0.00  -0.00
  53   6    -0.00   0.00  -0.00     0.00  -0.00   0.00     0.00   0.00  -0.00
  54   6     0.00   0.00  -0.00    -0.00   0.00  -0.00     0.00   0.00  -0.00
  55   6     0.00   0.00  -0.00     0.00  -0.00   0.00     0.00   0.00  -0.00
  56   6    -0.00  -0.00   0.00     0.00   0.00  -0.00    -0.00   0.00  -0.00
  57   6     0.00  -0.00  -0.00    -0.00   0.00   0.00     0.00  -0.00  -0.00
  58   6    -0.00   0.00   0.00     0.00   0.00  -0.00    -0.00   0.00  -0.00
  59   6    -0.00  -0.00   0.00    -0.00  -0.00   0.00     0.00   0.00  -0.00
  60   7    -0.00  -0.00   0.00     0.00   0.00  -0.00    -0.00  -0.00   0.00
  61   6     0.00   0.00  -0.00    -0.00   0.00   0.00     0.00  -0.00  -0.00
  62   6    -0.00  -0.00   0.00     0.00   0.00  -0.00    -0.00   0.00  -0.00
  63   1    -0.00  -0.00   0.00    -0.00  -0.00   0.00    -0.00  -0.00   0.00
  64   1    -0.00  -0.00   0.00    -0.00   0.00   0.00    -0.00  -0.00   0.00
  65   1    -0.00  -0.00   0.00    -0.00   0.00  -0.00     0.00  -0.00   0.00
  66   1    -0.00   0.00  -0.00    -0.00   0.00   0.00     0.00  -0.00   0.00
  67   1     0.00   0.00  -0.00    -0.00   0.00  -0.00    -0.00  -0.00   0.00
  68   1    -0.00   0.00  -0.00     0.00  -0.00   0.00    -0.00   0.00  -0.00
  69   6     0.00   0.00   0.00    -0.00  -0.00  -0.00     0.00   0.00   0.00
  70   6    -0.00  -0.00  -0.00     0.00  -0.00   0.00    -0.00   0.00  -0.00
  71   6     0.00  -0.00  -0.00    -0.00   0.00  -0.00     0.00  -0.00   0.00
  72   6    -0.00  -0.00  -0.00     0.00   0.00   0.00    -0.00  -0.00  -0.00
  73   7    -0.01  -0.00  -0.01     0.18   0.05   0.17    -0.01  -0.00  -0.01
  74   6    -0.00   0.00  -0.00     0.00  -0.00   0.00    -0.00   0.00  -0.00
  75   6    -0.00   0.00   0.00     0.00  -0.00  -0.00     0.00   0.00   0.00
  76   6    -0.00  -0.00  -0.00     0.00   0.00   0.00    -0.00  -0.00  -0.00
  77   6     0.00   0.00   0.00    -0.00  -0.00  -0.00     0.00   0.00   0.00
  78   6    -0.00   0.00   0.00     0.00  -0.00   0.00    -0.00   0.00  -0.00
  79   6     0.00  -0.00   0.00    -0.00   0.00  -0.00     0.00  -0.00   0.00
  80   6     0.00   0.00   0.00    -0.00  -0.00  -0.00     0.00   0.00   0.00
  81   6     0.00  -0.00  -0.00     0.00   0.00   0.00     0.00  -0.00   0.00
  82   1     0.00   0.00   0.00    -0.00   0.00   0.00     0.00  -0.00  -0.00
  83   1     0.00   0.00   0.00    -0.00  -0.00  -0.00    -0.00   0.00  -0.00
  84   1     0.03   0.01   0.03    -0.68  -0.19  -0.66     0.03   0.01   0.03
  85   1     0.00  -0.00   0.00    -0.00   0.00  -0.00    -0.00  -0.00  -0.00
  86   1     0.00  -0.00   0.00     0.00  -0.00  -0.00    -0.00   0.00  -0.00
  87   1    -0.00  -0.00  -0.00    -0.00   0.00  -0.00     0.00   0.00   0.00
  88   1    -0.00  -0.00  -0.00    -0.00  -0.00  -0.00    -0.00  -0.00  -0.00
  89   6    -0.00  -0.00  -0.00     0.00   0.00   0.00    -0.00  -0.00  -0.00
  90   6    -0.00   0.00  -0.00    -0.00  -0.00  -0.00     0.00   0.00   0.00
  91   6    -0.00  -0.00  -0.00     0.00   0.00   0.00    -0.00  -0.00  -0.00
  92   6     0.00   0.00   0.00    -0.00  -0.00  -0.00    -0.00  -0.00   0.00
  93   7     0.00  -0.00   0.00    -0.00   0.00  -0.00     0.00  -0.00  -0.00
  94   6    -0.00  -0.00   0.00    -0.00  -0.00  -0.00     0.00   0.00   0.00
  95   1     0.00  -0.00   0.00     0.00   0.00   0.00    -0.00   0.00  -0.00
  96   1     0.00  -0.00   0.00    -0.00  -0.00  -0.00     0.00   0.00  -0.00
  97   1     0.00   0.00   0.00     0.00   0.00   0.00     0.00   0.00  -0.00
  98   1     0.00  -0.00   0.00    -0.00   0.00   0.00     0.00  -0.00  -0.00
  99   6     0.00   0.00  -0.00     0.00   0.00  -0.00     0.00   0.00  -0.00
 100   6    -0.00  -0.00   0.00    -0.00  -0.00   0.00    -0.00  -0.00   0.00
 101   6    -0.00   0.00  -0.00     0.00   0.00  -0.00     0.00   0.00  -0.00
 102   6    -0.00  -0.00  -0.00     0.00   0.00   0.00    -0.00  -0.00   0.00
 103   6    -0.00  -0.00  -0.00     0.00   0.00   0.00     0.00   0.00  -0.00
 104   6    -0.00  -0.00   0.00    -0.00  -0.00   0.00    -0.00  -0.00  -0.00
 105   6     0.00   0.00  -0.00    -0.00  -0.00   0.00     0.00  -0.00   0.00
 106   6    -0.00  -0.00   0.00    -0.00   0.00  -0.00    -0.00  -0.00  -0.00
 107   6    -0.00  -0.00  -0.00    -0.00  -0.00   0.00     0.00   0.00   0.00
 108   7     0.00   0.00   0.00    -0.00  -0.00  -0.00    -0.00  -0.00  -0.00
 109   6     0.00   0.00  -0.00     0.00   0.00   0.00     0.00  -0.00   0.00
 110   6    -0.00  -0.00   0.00    -0.00  -0.00  -0.00    -0.00  -0.00  -0.00
 111   1     0.00   0.00   0.00    -0.00  -0.00   0.00     0.00   0.00   0.00
 112   1     0.00   0.00   0.00    -0.00  -0.00  -0.00     0.00  -0.00   0.00
 113   1     0.00   0.00  -0.00     0.00   0.00  -0.00    -0.00  -0.00   0.00
 114   1     0.00   0.00  -0.00     0.00   0.00  -0.00    -0.00  -0.00   0.00
 115   1     0.00   0.00   0.00     0.00   0.00  -0.00    -0.00  -0.00   0.00
 116   1    -0.00  -0.00   0.00     0.00   0.00  -0.00     0.00   0.00  -0.00
 117   6    -0.00   0.00   0.00    -0.00   0.00   0.00    -0.00   0.00   0.00
 118   6     0.00  -0.00  -0.00     0.00  -0.00  -0.00     0.00   0.00  -0.00
 119   6     0.00  -0.00   0.00    -0.00  -0.00   0.00    -0.00  -0.00   0.00
 120   6     0.00  -0.00  -0.00     0.00  -0.00  -0.00     0.00  -0.00  -0.00
 121   7     0.01  -0.00  -0.01     0.01  -0.00  -0.01     0.17  -0.07  -0.18
 122   6     0.00   0.00  -0.00     0.00   0.00  -0.00     0.00   0.00  -0.00
 123   6     0.00   0.00  -0.00     0.00   0.00  -0.00    -0.00   0.00  -0.00
 124   6     0.00  -0.00  -0.00     0.00  -0.00  -0.00     0.00  -0.00  -0.00
 125   6    -0.00   0.00   0.00    -0.00   0.00   0.00    -0.00   0.00   0.00
 126   6     0.00   0.00  -0.00    -0.00   0.00   0.00     0.00   0.00  -0.00
 127   6    -0.00  -0.00   0.00    -0.00   0.00   0.00    -0.00  -0.00   0.00
 128   6    -0.00   0.00   0.00    -0.00   0.00   0.00    -0.00   0.00   0.00
 129   6     0.00  -0.00  -0.00    -0.00  -0.00   0.00     0.00  -0.00  -0.00
 130   1    -0.00   0.00   0.00    -0.00   0.00   0.00    -0.00  -0.00   0.00
 131   1    -0.00   0.00   0.00    -0.00   0.00   0.00    -0.00   0.00   0.00
 132   1    -0.02   0.01   0.02    -0.03   0.01   0.03    -0.64   0.28   0.67
 133   1    -0.00  -0.00   0.00    -0.00  -0.00   0.00    -0.00  -0.00   0.00
 134   1    -0.00  -0.00   0.00    -0.00  -0.00   0.00     0.00   0.00  -0.00
 135   1    -0.00  -0.00   0.00     0.00  -0.00  -0.00    -0.00  -0.00   0.00
 136   1    -0.00   0.00   0.00     0.00  -0.00  -0.00    -0.00   0.00   0.00
 137   6    -0.00  -0.00   0.00     0.00  -0.00  -0.00     0.00  -0.00  -0.00
 138   6     0.00   0.00  -0.00     0.00   0.00  -0.00    -0.00   0.00   0.00
 139   6    -0.00   0.00   0.00     0.00  -0.00  -0.00     0.00  -0.00  -0.00
 140   6     0.00   0.00   0.00     0.00   0.00   0.00    -0.00   0.00   0.00
 141   7    -0.00  -0.00  -0.00    -0.00   0.00   0.00    -0.00  -0.00   0.00
 142   6    -0.00  -0.00  -0.00    -0.00  -0.00  -0.00    -0.00   0.00   0.00
 143   1    -0.00  -0.00   0.00    -0.00  -0.00   0.00    -0.00  -0.00  -0.00
 144   1    -0.00  -0.00  -0.00    -0.00  -0.00   0.00    -0.00   0.00   0.00
 145   1    -0.00  -0.00  -0.00    -0.00  -0.00   0.00     0.00  -0.00  -0.00
 146   1    -0.00   0.00  -0.00    -0.00  -0.00   0.00     0.00  -0.00   0.00
 147   6    -0.00  -0.00  -0.00    -0.00  -0.00  -0.00     0.00   0.00   0.00
 148   6     0.00   0.00   0.00     0.00   0.00   0.00    -0.00  -0.00  -0.00
 149   6    -0.00  -0.00  -0.00     0.00   0.00   0.00     0.00  -0.00  -0.00
 150   6     0.00   0.00   0.00     0.00  -0.00  -0.00     0.00  -0.00  -0.00
 151   6    -0.00  -0.00  -0.00    -0.00   0.00   0.00     0.00  -0.00  -0.00
 152   6    -0.00   0.00   0.00    -0.00  -0.00  -0.00     0.00   0.00   0.00
 153   6     0.00  -0.00  -0.00    -0.00  -0.00  -0.00     0.00   0.00   0.00
 154   6    -0.00   0.00   0.00     0.00  -0.00  -0.00    -0.00  -0.00  -0.00
 155   6     0.00  -0.00  -0.00     0.00  -0.00  -0.00     0.00   0.00   0.00
 156   7    -0.00   0.00   0.00     0.00  -0.00  -0.00    -0.00   0.00   0.00
 157   6     0.00   0.00  -0.00    -0.00   0.00   0.00     0.00  -0.00  -0.00
 158   6    -0.00   0.00   0.00     0.00  -0.00  -0.00    -0.00   0.00   0.00
 159   1    -0.00  -0.00  -0.00    -0.00   0.00   0.00    -0.00   0.00   0.00
 160   1     0.00   0.00  -0.00     0.00   0.00  -0.00    -0.00   0.00   0.00
 161   1     0.00   0.00   0.00     0.00   0.00   0.00    -0.00  -0.00  -0.00
 162   1     0.00   0.00   0.00     0.00   0.00   0.00    -0.00  -0.00  -0.00
 163   1     0.00   0.00   0.00    -0.00   0.00   0.00    -0.00  -0.00  -0.00
 164   1    -0.00  -0.00  -0.00     0.00  -0.00  -0.00    -0.00  -0.00   0.00
 165   6     0.00  -0.00   0.00     0.00  -0.00   0.00    -0.00   0.00  -0.00
 166   6    -0.00  -0.00  -0.00    -0.00  -0.00  -0.00     0.00   0.00   0.00
 167   6     0.00   0.00   0.00     0.00   0.00   0.00    -0.00  -0.00  -0.00
 168   6    -0.00   0.00  -0.00    -0.00   0.00  -0.00     0.00  -0.00   0.00
 169   7    -0.17   0.08  -0.17    -0.01   0.00  -0.01     0.01  -0.00   0.01
 170   6    -0.00  -0.00  -0.00    -0.00  -0.00  -0.00     0.00   0.00   0.00
 171   6    -0.00  -0.00   0.00    -0.00  -0.00   0.00    -0.00   0.00  -0.00
 172   6    -0.00   0.00  -0.00    -0.00   0.00  -0.00    -0.00  -0.00   0.00
 173   6     0.00  -0.00   0.00     0.00  -0.00   0.00    -0.00   0.00  -0.00
 174   6    -0.00  -0.00  -0.00    -0.00  -0.00  -0.00     0.00   0.00   0.00
 175   6     0.00   0.00   0.00     0.00   0.00   0.00    -0.00  -0.00  -0.00
 176   6     0.00  -0.00   0.00     0.00  -0.00   0.00    -0.00   0.00  -0.00
 177   6    -0.00   0.00  -0.00    -0.00   0.00  -0.00     0.00  -0.00   0.00
 178   1     0.00   0.00  -0.00     0.00   0.00  -0.00    -0.00  -0.00   0.00
 179   1     0.00  -0.00   0.00    -0.00  -0.00   0.00     0.00  -0.00  -0.00
 180   1     0.64  -0.29   0.65     0.02  -0.01   0.02    -0.02   0.01  -0.02
 181   1     0.00   0.00   0.00     0.00   0.00   0.00     0.00  -0.00   0.00
 182   1    -0.00  -0.00   0.00    -0.00  -0.00  -0.00     0.00   0.00   0.00
 183   1     0.00   0.00   0.00     0.00  -0.00   0.00    -0.00   0.00  -0.00
 184   1     0.00  -0.00   0.00     0.00  -0.00   0.00    -0.00   0.00  -0.00
 185   6    -0.00   0.00  -0.00    -0.00   0.00  -0.00     0.00  -0.00   0.00
 186   6    -0.00  -0.00   0.00     0.00  -0.00   0.00    -0.00  -0.00  -0.00
 187   6    -0.00   0.00  -0.00    -0.00   0.00  -0.00     0.00   0.00   0.00
 188   6     0.00  -0.00   0.00     0.00   0.00   0.00    -0.00  -0.00  -0.00
 189   7     0.00   0.00   0.00    -0.00   0.00  -0.00     0.00  -0.00   0.00
 190   6     0.00  -0.00   0.00     0.00  -0.00   0.00    -0.00   0.00  -0.00
 191   1    -0.00   0.00   0.00    -0.00  -0.00  -0.00     0.00   0.00   0.00
 192   1     0.00  -0.00   0.00    -0.00  -0.00  -0.00     0.00   0.00   0.00
 193   1    -0.00   0.00  -0.00    -0.00   0.00  -0.00     0.00   0.00   0.00
 194   1     0.00   0.00  -0.00     0.00  -0.00  -0.00     0.00   0.00   0.00
