1368
 energy: -2198.240231097414 gnorm: 0.000970754699 xtb: 6.4.1 (23d549d)
Pd       10.51907491048140    1.36925380645151   17.19626104109986
Pd       18.51219140339872   -4.89487468209047    6.88651284277016
Pd       16.57731294547620    9.43217211068810    6.84482336984532
Pd        1.54580886522097  -10.27048084370167   17.31421561278887
Pd       -1.16054705073365   10.29279307140978   17.35478427527142
Pd        9.51264213110944  -16.51073924424760    7.02596736602412
Pd       18.34634843644950   -4.91921681334730   -7.81119057633146
Pd       16.44020324985383    9.41608735321062   -7.85433885192500
Pd        4.90345997524999   18.35360698197995    6.97141759180663
Pd       -4.83825232784536  -18.41404933488375    7.21830054604409
Pd      -10.14153188162475   -1.33498606647123   17.51033933119283
Pd       -9.41483518881114   16.43842908609126    7.20605402019281
Pd        9.33194683037735  -16.53559556596205   -7.67281212168190
Pd       -4.99505592668879  -18.44990383404619   -7.48390418232094
Pd        1.09454970848036  -10.37229925414731  -17.83079110784270
Pd      -16.69889443976582   -9.55778316360695   -7.27502075701347
Pd      -10.61612768405123   -1.49618883996565  -17.60037122655966
Pd       10.09284103547444    1.24901591159388  -17.96819181193798
Pd      -18.61995122681788    4.76182286277437   -7.27868428976690
Pd      -16.53422459017204   -9.50718754966129    7.42370575454611
Pd       -1.62713544953442   10.13246636548854  -17.79172076293597
Pd       -9.60324173405099   16.37203721345175   -7.49313558332064
Pd      -18.42725803581906    4.82242168772166    7.41532535903262
Pd        4.74269215639254   18.31544704707646   -7.72213005211845
H        -2.31692773841407  -17.84860021676668   13.37808206191979
C        -2.40327243583259  -16.78493762131447   13.21836299696716
C        -2.60027510022422  -14.05258589991194   12.88611098993941
C        -3.10999519806537  -16.28708658479600   12.12390386225083
C        -1.78816431216464  -15.92506302178554   14.11938620699280
C        -1.84485873012675  -14.53583678725484   13.96229577757588
C        -3.21986552376128  -14.90303528081700   11.98894458823728
H        -1.23943709387790  -16.35868915693700   14.94096098070263
H        -3.81627603250767  -14.48340104120824   11.19231365522669
H        -2.74432819503807  -12.98947398399645   12.76284516361793
C        -1.12788875991685  -13.59029955047126   14.84796237886490
N         0.28305374815992  -11.71161346938051   16.44285253321324
C        -0.86958114297495  -13.80494381068102   16.20786870317609
C        -0.64116395764586  -12.37536504470128   14.33611810498119
C         0.03382579976733  -11.48446413842575   15.14519230543733
C        -0.17095565406095  -12.86058112981310   16.95529849437164
H        -1.21957136709665  -14.69573725281898   16.70706829610467
H        -0.77500545465005  -12.12864954561130   13.29419316846128
H         0.39258493790969  -10.53658085847840   14.74006811190587
H         0.02054299523339  -13.04251494231282   18.00826000458805
N        -3.70838299454622  -17.14519182663585   11.15907539063906
C        -4.24767900809820  -18.38555279437645   11.37812289676643
H        -4.29957805222435  -18.84722959433569   12.34391054549420
C        -4.70413812177918  -18.84041793104343   10.17395339034945
H        -5.19457606790369  -19.77605566470314    9.95431516395076
C        -3.85230397512258  -16.89192976922024    9.83685581857693
H        -3.50183162229423  -15.99551915820098    9.35881371271712
N        -4.44914015159289  -17.89759800518780    9.21431911996704
H         5.36446219121730   -5.77792903146482   20.65718082793446
C         5.67173300233713   -5.45405218332741   19.67487412551507
C         6.49265200298142   -4.54558371722656   17.20581313260099
C         5.24445641785315   -6.13697791770505   18.53489282833551
C         6.49367797116979   -4.33732990545073   19.57757338598174
C         6.91508999720857   -3.83921338759874   18.33948201333095
C         5.68577394869127   -5.66703498766914   17.29697323726309
H         6.78428785411123   -3.84179338364446   20.49112409665598
H         5.42048962814811   -6.19317599460162   16.39156747674546
H         6.83206682560895   -4.24123429285747   16.22621939218387
C         7.75230869221404   -2.62245946015726   18.19082701322439
N         9.35766878306689   -0.30722666205100   17.77533593448183
C         7.58014386222240   -1.76497063627732   17.09065139376208
C         8.75607156752027   -2.23085454727729   19.08671587640019
C         9.52233681151479   -1.09267952849708   18.84665738876010
C         8.37960330406034   -0.65031073553402   16.92396462846202
H         6.80315540474678   -1.95785892098842   16.36676792641353
H         8.96942700452558   -2.81307694268759   19.97040848679866
H        10.29910671221238   -0.81171849264745   19.55130734666890
H         8.22837210378044    0.01077718093103   16.06909945460858
N         4.40339503249200   -7.28702466210182   18.61539011171767
C         4.35503326773667   -8.18478095451239   19.65024197328107
H         4.96615351632839   -8.11350703059726   20.52745356069490
C         3.44076996974845   -9.14027071207260   19.31101282938609
H         3.13965237682244  -10.00781294486674   19.87864935129387
C         3.51659149282372   -7.72648378183613   17.68997122623123
H         3.30686984295169   -7.20870944796623   16.77225582942380
N         2.91562314454274   -8.84320031851527   18.08082972963610
H        -7.95338245325338    4.41197996733996   20.28663009655845
C        -7.15113489891598    4.35367950369615   19.56739537576467
C        -5.08186657696054    4.29786199266672   17.74776829327509
C        -7.00496282465516    3.22826745581978   18.75469297621684
C        -6.27793649573403    5.43054782001894   19.46688902807448
C        -5.22769436489800    5.44285580445925   18.54187687537983
C        -5.94024685223782    3.21659313338407   17.85238105390541
H        -6.44567394200183    6.27963776214239   20.11147645691432
H        -5.75955464108331    2.34572851292837   17.23928603464536
H        -4.25496759440581    4.22577911957005   17.05610274516809
C        -4.30703935885613    6.59410022107136   18.36753335547787
N        -2.49091899475498    8.74564548136600   17.93642576753841
C        -3.79022310927308    6.91099891228547   17.09940764428033
C        -3.87773940903201    7.43690028314758   19.40139038934945
C        -2.98680321988101    8.47798398293451   19.15041869974768
C        -2.91120719716004    7.96346267973464   16.93076533097848
H        -4.09175679408630    6.34423607774168   16.23179331408652
H        -4.21443067097373    7.28668568650925   20.41601067637912
H        -2.66317434623025    9.11454030652683   19.96807598700441
H        -2.52345595751788    8.20076684362009   15.93833695438861
N        -7.89256244477447    2.11418491971307   18.84185555803651
C        -8.56401162598864    1.69753600068767   19.96203019141500
H        -8.48065157686917    2.17682551950248   20.91673777866437
C        -9.28225353121167    0.59065133651595   19.61134126539040
H        -9.92917778019333   -0.01105238934054   20.23210722015872
C        -8.22931167334518    1.25044915099135   17.85380556031581
H        -7.87797625755227    1.33489862180743   16.84210579580657
N        -9.06891092639170    0.31818488928224   18.28551406897439
H        14.40637673648720    6.72590277018902   15.65477734373846
C        14.27409740375336    6.35785024743962   14.64925515077373
C        13.96168952170023    5.49374248498097   12.04753705179294
C        13.58532274827613    5.16822314566400   14.41163666864445
C        14.79662725802221    7.10218365193233   13.59852757136145
C        14.63490918255409    6.70090894641196   12.26919391420330
C        13.45720043121871    4.73862883291511   13.09010300562108
H        15.31241380296690    8.02114911459198   13.83101476722621
H        12.97788101084488    3.79603055707184   12.86963124630391
H        13.86079496624660    5.11314769762503   11.04112449771154
C        15.11660041496894    7.48547306353539   11.10872174911147
N        15.99760919329922    8.83177144142246    8.77510485925701
C        14.34714564082418    7.54352794244864    9.93520265367700
C        16.32723507602120    8.18648304281598   11.06383042691853
C        16.72784191425315    8.82917964532376    9.89554428830018
C        14.80999469212019    8.21175293212885    8.81961842373798
H        13.37409784300317    7.07796127171188    9.90008430586143
H        16.98078412241566    8.22245851044901   11.92230798772783
H        17.67517580934993    9.35882746799604    9.87006810674852
H        14.20293097718735    8.26169900054760    7.91422937706080
N        13.03184665800799    4.38945358850797   15.46605038263592
C        13.48516433935957    4.31093274031962   16.75719006179585
H        14.33573816081272    4.85038790641739   17.12277598476439
C        12.67947767801928    3.42323223372736   17.41076301172889
H        12.73109970912196    3.10690796764226   18.44103834398266
C        11.96821908097453    3.55498142025573   15.38312632745177
H        11.37342158548239    3.42783244073398   14.49746488428614
N        11.72754043547464    2.96003104033863   16.54194007195531
H         1.37980170778659   16.16142846941662   15.38840581759934
C         1.80149543037555   15.59963418118982   14.56934080318214
C         2.91077525778690   14.23116532749046   12.44509927764707
C         1.76646746113441   14.20528196292148   14.57217119071650
C         2.36979506497232   16.29553146688594   13.50984255058287
C         2.91594058335920   15.63127045612457   12.40628874509160
C         2.35433917087678   13.53245594429374   13.50074021841530
H         2.35938219022364   17.37384495451337   13.54672803471537
H         2.40337588842005   12.45352335107617   13.50065272285995
H         3.38602469737614   13.66861015343650   11.65504128752179
C         3.45708575861372   16.33497412961807   11.22113560258221
N         4.46399546806542   17.58550677922827    8.88011107234152
C         3.34106656079199   15.75833218443591    9.94473427822461
C         4.09790783558798   17.57973081855152   11.25296103896465
C         4.57601437595661   18.16150315441854   10.08170564381246
C         3.84758982333949   16.39575719824282    8.83068578170597
H         2.83684316452813   14.81269227204742    9.81719697030679
H         4.24877442242426   18.10428144053359   12.18423024774745
H         5.06975289697385   19.12721971333117   10.12362970596630
H         3.75646345194899   15.93781780573076    7.84334057493516
N         1.15610190707076   13.46841423138073   15.62560364003899
C         1.08419199945542   13.82415279777502   16.94691276126423
H         1.51489323560413   14.72165447319991   17.34366223177249
C         0.41869815391708   12.82262587475626   17.59419147120591
H         0.17559877821224   12.75023095535596   18.64287979818009
C         0.53195197169902   12.27184416049976   15.51615125905378
H         0.40874986180065   11.74429492515623   14.58810653409252
N         0.07517468100434   11.85533802930364   16.68783123994583
H        18.77423694880531   11.96521767111384    0.95934616879959
C        18.22170155944803   11.15344073059002    0.51228394555762
C        16.81753532105592    9.12580971601764   -0.71711047328740
C        17.60555756777135   10.18763474198686    1.30996536117338
C        18.13429367709310   11.10307775540388   -0.87406598122574
C        17.41471078504193   10.09795537580522   -1.53000507235586
C        16.91390571387455    9.16196144982307    0.66359623280730
H        18.62112159257913   11.88196467964434   -1.44058541218706
H        16.46386804940424    8.36563172474073    1.23818578588529
H        16.29648092027315    8.29428188054900   -1.16934748290622
C        17.25469881505194   10.03741682840344   -3.00451693496785
N        16.87706716183592    9.80946836254061   -5.81768286173869
C        16.06244760943357    9.56022427687482   -3.57552329806916
C        18.23337289791261   10.42417831688241   -3.92971445682186
C        18.01177346346284   10.29415042798990   -5.29874078974759
C        15.91736420218782    9.46470691750934   -4.94634325821538
H        15.23261198969856    9.27793717530752   -2.94572701898949
H        19.18578867001486   10.81178857621548   -3.60095430047137
H        18.78671847214708   10.59396979632003   -5.99764279078558
H        14.98238932660627    9.10079487550878   -5.37534080004174
N        17.68488691756873   10.22278917178157    2.73440595010929
C        18.70544347487297   10.75814016110734    3.47701838278794
H        19.57740852692158   11.21086718179368    3.04945739844286
C        18.39252863397052   10.56111297490536    4.79123382857655
H        18.95924323054755   10.84972879151416    5.66426693939791
C        16.79033575023885    9.72481768849362    3.62214531285373
H        15.86195376206121    9.26416552752717    3.33958025341249
N        17.18661893671824    9.91522102603854    4.87390194012476
H         5.11675972598277   21.67997572129086    1.10321023943808
C         5.21712128845004   20.70423767555201    0.65354429659001
C         5.45056400921610   18.25066177230589   -0.58016146545062
C         5.37432111602262   19.56777700771013    1.44855616594316
C         5.17522573194851   20.61077454417212   -0.73273519334969
C         5.27325435954496   19.37947168694881   -1.39089261711713
C         5.50608243105247   18.33872626033880    0.80045002007656
H         5.03911380742881   21.52050644618042   -1.29704886084032
H         5.67941054709115   17.43988703154868    1.37407167342640
H         5.58978319918628   17.28002063057211   -1.03388143127367
C         5.18190365397616   19.23258924750657   -2.86514943212486
N         5.01021370708935   18.82900694058651   -5.67977139118769
C         4.59022725178909   18.09238384898975   -3.43566857169598
C         5.65908655106106   20.16938819383976   -3.79157155890375
C         5.55830872517351   19.93442590838212   -5.16088488234993
C         4.52574286619951   17.93318069326552   -4.80660085084961
H         4.15795892075274   17.33046793657642   -2.80514570387836
H         6.13001063912587   21.08381753814140   -3.46386485472982
H         5.94079362919008   20.67153468933556   -5.86017052447524
H         4.05779376842457   17.04478213800903   -5.23451325656963
N         5.41863466835617   19.64351838313551    2.87295213555561
C         5.88300284744516   20.69820439462927    3.61535050038190
H         6.27801714489160   21.59734014400739    3.18682609129599
C         5.76583055988240   20.34690917098429    4.92954965914531
H         6.03554073535712   20.92241292563126    5.80225064015822
C         5.03363539383825   18.69478514475171    3.76019922637873
H         4.59713680431871   17.75505742878846    3.47614863170638
N         5.22901689224469   19.08906069309614    5.01204530606597
H        15.24328534876276    8.35625204368611  -14.44992354494863
C        14.78701038426899    7.45015988417956  -14.08250984203466
C        13.58984337945916    5.11974063066720  -13.21657685631261
C        14.85548422841077    7.11845125545006  -12.72949409091831
C        14.12208911831564    6.62914900289893  -14.98495839968782
C        13.48539190373587    5.45458164729026  -14.57206302039967
C        14.26311515774754    5.92464300121564  -12.31637139901652
H        14.08466196561147    6.93404656432107  -16.01938336030771
H        14.34552624847662    5.60696505388625  -11.28711988466234
H        13.16906903074038    4.19118124442473  -12.85860374235010
C        12.70556921456878    4.58401591830623  -15.48178955340770
N        11.18262726456168    2.82194672867813  -17.10094007868091
C        11.55129567856025    3.93435213009180  -15.01353358282700
C        13.03275051438842    4.32618582446783  -16.81836721138572
C        12.26191455834147    3.45112998658442  -17.57909982050500
C        10.83791201505701    3.08187327602895  -15.83180914671935
H        11.19846485956721    4.10877603996871  -14.00858268600410
H        13.89783312105995    4.78105859163145  -17.27677977318368
H        12.53339199397294    3.25365630983193  -18.61156057119900
H         9.94475177956057    2.57828827671028  -15.45797169387818
N        15.51295243446986    7.94793519435665  -11.77874924615824
C        16.58989244440147    8.76502491669773  -12.00347749094412
H        17.06905613556302    8.86708989388977  -12.95654039881670
C        16.90697669886359    9.34557164565305  -10.80885204129087
H        17.69922859237772   10.04634192866574  -10.59615028272327
C        15.21164190643750    8.06425491757803  -10.46365741586483
H        14.38408610514532    7.56621304837042   -9.99279993049189
N        16.03216226891950    8.90528485762635   -9.85167620594311
H         2.23395072715773   17.72981384163230  -13.88478260545126
C         2.31920946199314   16.66675254748440  -13.72059571625412
C         2.51356824586088   13.93559680303401  -13.37673692421773
C         3.02385870167945   16.17268663782372  -12.62309859192016
C         1.70461632075433   15.80370122647862  -14.61891139700525
C         1.75977229818187   14.41516293422948  -14.45564751059061
C         3.13278181913528   14.78914788524483  -12.48237664603100
H         1.15737879275205   16.23427466156589  -15.44307947237197
H         3.72799465081474   14.37238839589415  -11.68336641708642
H         2.65653198654619   12.87288183983902  -13.24898083926665
C         1.04247575913441   13.46644110457299  -15.33733852029409
N        -0.36848841293987   11.58100094968430  -16.92393588484340
C         0.55279857919618   12.25531963685949  -14.81942988967457
C         0.78637397270858   13.67431598483334  -16.69869120109687
C         0.08766988049536   12.72680129255475  -17.44181795449527
C        -0.12227722124054   11.36098781863481  -15.62458643435160
H         0.68423927504651   12.01445338362781  -13.77584258982711
H         1.13824828403655   14.56200867997947  -17.20205050676824
H        -0.10279806049900   12.90399632258251  -18.49574385663833
H        -0.48375731680883   10.41631377094856  -15.21472099263403
N         3.62113971297833   17.03378624544116  -11.66039464906217
C         4.16104837832702   18.27330857579548  -11.88247602121607
H         4.21394268453060   18.73211777772430  -12.84958411627671
C         4.61641418031440   18.73138695741861  -10.67912051082398
H         5.10568801642547   19.66818481230533  -10.46161481537215
C         3.76325908717816   16.78434298925000  -10.33727526980291
H         3.41246029825738   15.88930390985348   -9.85700685698112
N         4.35992636812772   17.79140908392958   -9.71700237414590
H         6.53018316632284   -3.45008513635284  -21.29835049066461
C         6.36336430936451   -3.87803327699706  -20.32203629433709
C         5.87069875746274   -5.02951916803377  -17.86743274372621
C         6.99804264896120   -3.35002393188470  -19.19639024150361
C         5.49638325754662   -4.95930662372910  -20.21728276643181
C         5.20861092383931   -5.55601347235707  -18.98433979940466
C         6.74570757725195   -3.96113283556390  -17.96718300372142
H         5.02513289251156   -5.31878680878555  -21.11905216729456
H         7.25535103278287   -3.62012819471740  -17.07797656483265
H         5.73551092005368   -5.48665979998528  -16.89795497508827
C         4.24661991059498   -6.67512174569699  -18.82568040148363
N         2.40777706099985   -8.81052286845591  -18.40497474149959
C         3.46603603580455   -6.78997640031270  -17.66245510934925
C         4.03460162850186   -7.68547533103433  -19.77359898303016
C         3.12773916927422   -8.71404182151382  -19.52993157100438
C         2.58676367715799   -7.84258156410957  -17.49392033476121
H         3.53172758265963   -6.04247699741492  -16.88667377386939
H         4.58386045145574   -7.69880132483861  -20.70288868426023
H         2.98311924305991   -9.48806039800015  -20.27763657677162
H         1.99220591959289   -7.91878451597640  -16.58260998867997
N         7.88626636757316   -2.23678137110771  -19.28469423751417
C         8.65762323219318   -1.89773230263022  -20.36617427533263
H         8.68368213451670   -2.46092233191362  -21.27735029651383
C         9.36356794373193   -0.78099180964626  -20.02200698776524
H        10.07003553829498   -0.22655352720818  -20.62102349164796
C         8.14871256911128   -1.31430604627371  -18.32739235872067
H         7.67108451419886   -1.30182283464053  -17.36511939660847
N         9.03495145510730   -0.41803007848759  -18.74227329925817
H        -6.77293628853455    6.65558568341892  -20.40125156596854
C        -6.46377362029473    5.85946916251501  -19.74171661801442
C        -5.75271836693163    3.78090044577646  -18.07729568240768
C        -5.27955629250466    5.96282885670538  -19.01024770382408
C        -7.27824030307244    4.73838779508389  -19.63435077829577
C        -6.95752406218402    3.67310708965867  -18.78467431142009
C        -4.93217893348574    4.89065476584635  -18.18725512914085
H        -8.18886718061406    4.71838762864764  -20.21295084389597
H        -3.99827487494338    4.90563312479599  -17.64457488654773
H        -5.42025318574859    2.96390521124102  -17.45364466195501
C        -7.83094667199963    2.48723085031823  -18.60177976193690
N        -9.45589074041059    0.18875971790109  -18.15679403300759
C        -7.88661397028716    1.82121285746313  -17.36524612700509
C        -8.64850103242736    1.93662674863118  -19.59837431156465
C        -9.42888362342037    0.81201073109065  -19.34163898334754
C        -8.68440988224545    0.70684994394989  -17.18981581440652
H        -7.31576695248399    2.18419350954437  -16.52434154047492
H        -8.67739847786172    2.36138792473853  -20.59037921102687
H       -10.05277616320375    0.40220402157283  -20.13029997887086
H        -8.70685304260760    0.19687256581786  -16.22606540955255
N        -4.43592062605024    7.11011812383770  -19.10093901877841
C        -4.27074033967049    7.91089932794783  -20.20105721267295
H        -4.76319331078766    7.74138808597412  -21.13753719591186
C        -3.36992442672570    8.87912240823218  -19.86137827985430
H        -2.99350859933453    9.68492066280234  -20.47288382971513
C        -3.63546062618799    7.62134404808067  -18.13493179733874
H        -3.56733776007637    7.21510683045624  -17.14251143662250
N        -2.97897588572689    8.69300667874603  -18.56155038341987
H        -3.14336858921276  -15.43699141353740  -16.25558834866001
C        -2.75999970840503  -15.26611526172056  -15.26163087209686
C        -1.83759992567828  -14.87959329296766  -12.69025170126196
C        -1.73341375272991  -14.34695452854545  -15.04450924312752
C        -3.31882915342305  -15.97436224433001  -14.20487160368109
C        -2.88897079481250  -15.78283314370568  -12.88795295056862
C        -1.26688378556754  -14.18335313446987  -13.73963814392336
H        -4.11913760770459  -16.66508467280122  -14.42123711237968
H        -0.43517566136017  -13.52372233527742  -13.53977167309267
H        -1.42639622757297  -14.74168745564063  -11.70066936879383
C        -3.49820940864763  -16.46214839218348  -11.72125722840007
N        -4.56139789542254  -17.68839581861766   -9.39434379084586
C        -3.61400906876993  -15.78543477635154  -10.49551960753642
C        -3.97750228716646  -17.77762098803150  -11.72182293388538
C        -4.48817653680445  -18.34506150211513  -10.55749205246546
C        -4.13479297542816  -16.41757440014377   -9.38440438396127
H        -3.31048771867647  -14.75301119010312  -10.41305303459653
H        -3.94002570469631  -18.38259193231009  -12.61511907188624
H        -4.84759091224755  -19.36939357600431  -10.57107409850634
H        -4.21654449748801  -15.88505112491379   -8.43529833748470
N        -1.15342497712907  -13.59449293943684  -16.10367615693934
C        -1.02914735287939  -13.97589087115677  -17.41432325604814
H        -1.36674581230140  -14.91975337775886  -17.79294305272909
C        -0.38720933618474  -12.96238853495413  -18.06662682515556
H        -0.11416203457304  -12.90444976130966  -19.10870013252463
C        -0.59088176046285  -12.36609871928019  -16.00805253988827
H        -0.56655723725265  -11.78819723779404  -15.10241833140443
N        -0.12376843540452  -11.95496529700350  -17.17760695728084
H       -14.46256958356954   -6.88498667299489  -16.07299278819919
C       -14.35570582756748   -6.49780979059630  -15.07156936154730
C       -14.11353767896629   -5.57785103172842  -12.48127793817748
C       -13.69781520904838   -5.28922931425292  -14.84338856653498
C       -14.87890109515920   -7.23524242139807  -14.01637859969012
C       -14.75115165646010   -6.80638987374040  -12.69163207749234
C       -13.60613824465627   -4.83124373491521  -13.52840958641544
H       -15.36857317582964   -8.17020628765818  -14.24119724364772
H       -13.15489698629780   -3.87249322598326  -13.31830108378935
H       -14.04351272168467   -5.17372994851620  -11.48158578814602
C       -15.23263303579483   -7.58467014440054  -11.52718430311147
N       -16.11440369564320   -8.93594346089526   -9.19577994899281
C       -16.40857986651620   -8.34385611799350  -11.50369940306213
C       -14.49975487011253   -7.58021984756316  -10.32873486792137
C       -14.96253599967822   -8.25064999600562   -9.21449847380701
C       -16.81000097733495   -8.98850712797041  -10.33693878109545
H       -17.03541397827719   -8.42514085115564  -12.37882414904791
H       -13.55394252545923   -7.06359631785510  -10.27148087532273
H       -14.38539877842953   -8.24784148696985   -8.28815189575119
H       -17.72892984908520   -9.56658500095520  -10.33016724743646
N       -13.13818414765377   -4.51854113906574  -15.90026135676855
C       -13.57997483083521   -4.44893013407061  -17.19572866848554
H       -14.42712468436580   -4.99171024061862  -17.56451414749922
C       -12.76988988834905   -3.56334992582087  -17.84741790190352
H       -12.81348475463812   -3.25180194253437  -18.87923273567414
C       -12.07697965082517   -3.68189080361168  -15.81249750705783
H       -11.48982553693375   -3.55381559831140  -14.92174913419328
N       -11.82712381105466   -3.09336475134032  -16.97296849971534
H        -6.97299437775565  -21.11802904233756   -1.59134816601723
C        -6.25285417431359  -20.44603069232810   -1.15084473015673
C        -4.44487590768127  -18.75456544166651    0.05897206216403
C        -5.40692810340118  -19.68356304549636   -1.95790415147765
C        -6.19735302560293  -20.35575948874737    0.23489085248898
C        -5.30529198097476  -19.49291351330739    0.88243969577886
C        -4.48837827352611  -18.84735486388184   -1.32183213636905
H        -6.88357161326821  -20.95961855277585    0.80830497450943
H        -3.77812710480907  -18.28035868887559   -1.90561702448546
H        -3.69124435351935  -18.11922470856474    0.50077770217595
C        -5.25859497817282  -19.32838295827429    2.35678687172497
N        -5.11415305956285  -18.91845841135593    5.17398414524275
C        -4.91296425938187  -18.09250979242706    2.93038512861305
C        -5.53926288014899  -20.34259503610550    3.28270323743999
C        -5.45795148988540  -20.10266772529281    4.65233906833064
C        -4.84829832171225  -17.93506897730851    4.30151341067561
H        -4.70652748076005  -17.23892502627991    2.30305001736867
H        -5.80504789211736  -21.33610117459637    2.95463567530073
H        -5.67951777735538  -20.90468732902542    5.34976692626109
H        -4.56641078702055  -16.97142026100593    4.72804251538158
N        -5.45721060469090  -19.75671391880012   -3.38209348391248
C        -5.81229479980342  -20.85197792404196   -4.12604607380605
H        -6.07974399873277  -21.79782130186798   -3.69936696188910
C        -5.71193031048695  -20.49463754157131   -5.43995535557531
H        -5.91357149447042  -21.09640932347313   -6.31323075254078
C        -5.15823210546826  -18.77627019615219   -4.26814474322903
H        -4.86650486712228  -17.78286926658063   -3.98103713954361
N        -5.30626989212039  -19.18839356914552   -5.52082415775091
H       -18.88497015927375  -12.08510326462142   -1.37992581553562
C       -18.33197611323668  -11.27129417475684   -0.93710663985643
C       -16.92657860142385   -9.23791523412624    0.28126421986548
C       -17.71781016517616  -10.30856248351671   -1.74003446502394
C       -18.24190346977535  -11.21514745422942    0.44885122635693
C       -17.52179961219848  -10.20684311372420    1.09949681603065
C       -17.02527164578018   -9.28004329006550   -1.09912878297844
H       -18.72719010080993  -11.99210318388174    1.01932841525800
H       -16.57650850859281   -8.48587822156720   -1.67773095267050
H       -16.40528815565940   -8.40399230827898    0.72876348707092
C       -17.35963708616148  -10.13979356254692    2.57354202466235
N       -16.97791503436419   -9.90070541284773    5.38578360969616
C       -18.33469676662545  -10.52798799040844    3.50204153266734
C       -16.16892262672428   -9.65456266780239    3.14108034012706
C       -16.02188192540948   -9.55371124710702    4.51132169316596
C       -18.11118868599345  -10.39245526299460    4.87025747971810
H       -19.28591402422751  -10.92121698344806    3.17649800519588
H       -15.34152744543832   -9.36992143767035    2.50915805414777
H       -15.08802373327752   -9.18340063289674    4.93705906235672
H       -18.88374826652708  -10.69333312595059    5.57132344645458
N       -17.80052403649928  -10.34922016194569   -3.16409696388807
C       -18.82411822495111  -10.88513276678350   -3.90216722562924
H       -19.69563915779787  -11.33490758567705   -3.47064738065115
C       -18.51470737702206  -10.69284955901681   -5.21793983355087
H       -19.08509503891025  -10.98195262719282   -6.08809504780761
C       -16.90769814766707   -9.85572189931879   -4.05603754325753
H       -15.97699001999797   -9.39725939431286   -3.77714044979556
N       -17.30800654493301  -10.04961015321816   -5.30617537521814
H       -16.51477458049905   -7.07880648060539   13.67460197985466
C       -15.48518634462746   -6.83048362664761   13.46830555126597