1368
 energy: -2198.242178235328 gnorm: 0.000758987408 xtb: 6.4.1 (23d549d)
Pd       10.51836668279011    1.32747686427525   17.21351946932460
Pd       18.49501444277530   -4.92617362710502    6.88214074861908
Pd       16.61508201849312    9.41542735012609    6.87731610228316
Pd        1.55945907358168  -10.31469300076837   17.33723124910860
Pd       -1.14643966120454   10.26720529731219   17.34505204259586
Pd        9.52420148020128  -16.56293978562626    7.00427084893018
Pd       18.30533195215825   -4.93947590451198   -7.80949048232301
Pd       16.42352764553710    9.40619169134250   -7.81444964353211
Pd        4.95534809547576   18.35304562806921    7.02929239412720
Pd       -4.82426896161402  -18.45010732793229    7.21201551612000
Pd      -10.10894802135865   -1.38257361669778   17.51228346586842
Pd       -9.40133138765039   16.47681704156562    7.21452010548157
Pd        9.32934826090438  -16.57148209588166   -7.68947239427090
Pd       -5.01902571337129  -18.46583553906027   -7.47878394618572
Pd        1.05840255859784  -10.35202399081115  -17.80509356156202
Pd      -16.68284770880583   -9.52797243120976   -7.30355967175310
Pd      -10.60922097140705   -1.41795477874083  -17.63874609560855
Pd       10.04306087575478    1.27311131549319  -17.94121240479430
Pd      -18.58836076292223    4.81134811642589   -7.30516243011382
Pd      -16.48755857790607   -9.50334160040662    7.39364173357856
Pd       -1.62570752408488   10.20298496575148  -17.80468289164118
Pd       -9.60673713192321   16.43573118071049   -7.48074922265360
Pd      -18.36994708158741    4.83543803377924    7.39381042323577
Pd        4.74875723749037   18.32439238571261   -7.66898019804381
H        -2.34529130032921  -17.88755703046742   13.40695146092067
C        -2.39652512483830  -16.82461009331055   13.22849681577358
C        -2.49711237382709  -14.09346659415847   12.84495052952328
C        -3.06183098409512  -16.32370652339775   12.10970434273677
C        -1.77772020955646  -15.96885567297119   14.13104971618373
C        -1.78798324250912  -14.58165758545102   13.94980902142927
C        -3.12202236903504  -14.93945594729144   11.94733512091468
H        -1.26276827727882  -16.40489436388537   14.97302973175023
H        -3.68378762605277  -14.51490652947519   11.12842275027781
H        -2.60090023026172  -13.02834594423920   12.69925001416460
C        -1.07275900870123  -13.64068629494469   14.84171097507096
N         0.31079514914774  -11.75875894345696   16.45452696984152
C        -0.88242138719847  -13.82844242965175   16.21632762068105
C        -0.51941505198894  -12.45855956053085   14.32062736628375
C         0.14250829719412  -11.56578957616624   15.13837998046828
C        -0.19563694543926  -12.88253309970423   16.97290897254716
H        -1.27678810503765  -14.69847280570085   16.71900813170154
H        -0.59121241527257  -12.24142092005020   13.26591022382372
H         0.56560834491008  -10.64775827768097   14.72492260094901
H        -0.05638018661526  -13.04321010035867   18.03730494937678
N        -3.67179401219634  -17.17846446596883   11.14928186679065
C        -4.25148849761361  -18.39809852434708   11.38110793365420
H        -4.32419567282179  -18.84496196817462   12.35243944104998
C        -4.71371304568913  -18.85506336532394   10.18002632537610
H        -5.23150754673918  -19.77789195557332    9.97065250896423
C        -3.79697626775627  -16.94001624887773    9.82246869014427
H        -3.41347769451157  -16.06274756099016    9.33435119240438
N        -4.42160962143875  -17.93469173778444    9.20919463876235
H         5.31516143834108   -5.77311165920144   20.68761466159584
C         5.64201098220652   -5.46801056830936   19.70574627529478
C         6.51426822352224   -4.60495230495952   17.23851248969001
C         5.23674782168029   -6.17148947968282   18.56998600204653
C         6.46747519182285   -4.35429250918661   19.60541487803934
C         6.91342609253670   -3.87793333993882   18.36747526603737
C         5.70539485289864   -5.72470566717651   17.33338663281755
H         6.74107764719079   -3.84330225503342   20.51569546786495
H         5.46008710185818   -6.26712031391484   16.43215179049266
H         6.87406242482501   -4.31833003334070   16.26085123370693
C         7.75101536871345   -2.66208319146741   18.21447528602878
N         9.35465297775540   -0.34707222889903   17.79257665788407
C         7.59207197487643   -1.81953969093603   17.10086640143191
C         8.74112844978178   -2.25638140622402   19.11922199307417
C         9.50745837893497   -1.11904439601049   18.87543070922602
C         8.38989985919992   -0.70410666335183   16.93178343065007
H         6.82654737561976   -2.02504227636470   16.36823222112511
H         8.94413411265039   -2.82729066773308   20.01270236969901
H        10.27413501450153   -0.82722091076380   19.58676418398817
H         8.24790058207189   -0.05387278462328   16.06711882559586
N         4.38811385225880   -7.31548384732881   18.65501215233690
C         4.28632256242751   -8.17262950105306   19.72034617446419
H         4.86155598429702   -8.07555778131788   20.61902158637137
C         3.37696531618708   -9.13200628573278   19.37932361299506
H         3.03710700869743   -9.96984091516022   19.96908742994301
C         3.53667002287140   -7.78295051102678   17.70996623617566
H         3.37404704897555   -7.30262892393680   16.76288747588365
N         2.90771601267132   -8.87808866324101   18.11727368507264
H        -4.77500183940136    5.70354326136358   20.79478093951244
C        -5.14579191416763    5.40832206744479   19.82552668826754
C        -6.13070327200547    4.57386350956840   17.39098599924510
C        -4.79301859354840    6.12490055368718   18.68060300670207
C        -5.97380692424820    4.29460225166832   19.74985486354609
C        -6.47638457061866    3.83227311286754   18.52822438569905
C        -5.31790107733757    5.69259129885542   17.46167665354911
H        -6.20475746644420    3.77285266123449   20.66579505714565
H        -5.11425654916441    6.24644277711258   16.55698009414713
H        -6.53622948335453    4.30001460778840   16.42775163420345
C        -7.31855076354627    2.61661578515688   18.40108223263537
N        -8.93074038294137    0.29726987267593   18.03686289448542
C        -7.22420834421843    1.79509722031275   17.26455161108342
C        -8.25144769821863    2.18970021901818   19.35579522446345
C        -9.02300835247763    1.05045542565368   19.13980642559634
C        -8.02505486333102    0.67777485059665   17.12384569086542
H        -6.50689659200503    2.01842504361634   16.48962787612380
H        -8.40551137504829    2.74524077074648   20.26852367940115
H        -9.74316299354125    0.74072612261812   19.89128148530318
H        -7.93610573064963    0.04643481632509   16.23852116573198
N        -3.94115890853330    7.26811745765638   18.74018922214309
C        -3.80519952470009    8.12357893504354   19.80290985404007
H        -4.35280037468717    8.02559565419652   20.71863216186117
C        -2.90587807476875    9.08240936514843   19.43462615515270
H        -2.54662034317878    9.91898705465200   20.01465581152848
C        -3.11918049608324    7.73561263796129   17.76953244438268
H        -2.98849773955877    7.25615417785842   16.81704279823485
N        -2.47618162669410    8.82931419199107   18.15838303255344
H        14.26693865779206    6.75998854412792   15.64698288282739
C        14.21337689323009    6.34361883776506   14.65298479711958
C        14.11389599802282    5.34175725419462   12.08382061519082
C        13.61731262427021    5.10181129449884   14.43498606099429
C        14.74083840512679    7.07585079440365   13.59649405163548
C        14.68298549734970    6.60604664522150   12.28052600880259
C        13.59805452484964    4.60292563194335   13.13228058563091
H        15.17920583733489    8.03790674559680   13.81231397381559
H        13.19784888676754    3.61884378940658   12.93591500789945
H        14.10478676355856    4.90372422312984   11.09632470021851
C        15.16316553800245    7.38222123373231   11.11425929854511
N        16.02753662364326    8.76308664195332    8.79050050409996
C        14.49513803875694    7.28219574609679    9.88235784149572
C        16.27329234036704    8.23536459651237   11.12018604411026
C        16.66707648402177    8.89361083111089    9.95786710857992
C        14.94981163534958    7.96594494394356    8.77333616587278
H        13.60467333934112    6.67905067210163    9.79265747362352
H        16.85703461766070    8.38246463380776   12.01626446971690
H        17.53380184315462    9.54679960080414    9.97721372503159
H        14.42927810135242    7.87147058936996    7.81878278346408
N        13.04769020606581    4.33866294376843   15.49203392943550
C        13.46394074307534    4.29866679975018   16.79680736206001
H        14.29643404810131    4.86004501332216   17.17134060855069
C        12.65276427343512    3.41345660330690   17.44739857662400
H        12.68183339667204    3.11962910842641   18.48501102590348
C        12.00062723984919    3.48544834335085   15.39695638269099
H        11.43734664744826    3.32862606425277   14.49538268276313
N        11.73368137758818    2.91538114367254   16.56273150328402
H         4.33865804951130   17.03493963001035   13.66289279779388
C         3.58009131212179   16.35162046736072   13.31375008958066
C         1.63498401053204   14.57379021318225   12.49519672943247
C         3.22835306635814   16.31001743858036   11.96473736080448
C         2.97082664376394   15.50905639435487   14.23557112280153
C         1.99913873580207   14.58131123940410   13.84719520020635
C         2.22684580653260   15.41973344481649   11.57571621945045
H         3.28564169949969   15.56862152897557   15.26598557996286
H         1.88761094710647   15.40053782663363   10.55022367191248
H         0.84482320079509   13.92017887257244   12.15491888821009
C         1.37042827890194   13.61631548634493   14.77842435795731
N         0.07961036721891   11.71415167261790   16.44089515600598
C         1.03287390277543   12.32757966555080   14.33232624907113
C         1.05432023277379   13.88440697281429   16.11573877890939
C         0.41683893329797   12.92521464277421   16.89808270748971
C         0.40253775914510   11.43070143373927   15.17109819120989
H         1.27888481089451   12.01726114261801   13.32834657353829
H         1.27735645843006   14.84343256220903   16.55832667552495
H         0.17002210712063   13.15077866009401   17.93095842462236
H         0.13962662182255   10.43365784208875   14.81366895815732
N         3.84523520085618   17.14681352483694   10.99340621116633
C         4.34515485523052   18.40790963895890   11.18780917671479
H         4.32576791775141   18.91515719999080   12.13156279268927
C         4.80517823548803   18.84605649906845    9.97886083217273
H         5.26360264595023   19.79330748918496    9.74152884704681
C         4.02376048500170   16.86209588540239    9.68164938120160
H         3.76405693479101   15.92017842771966    9.23445278733713
N         4.60549655792888   17.86668372215952    9.04310256176496
H        18.75135142741224   11.99953431715657    0.98586686800929
C        18.21247520832112   11.17644666725734    0.54292689537940
C        16.84229983347911    9.12036503524872   -0.67717811191587
C        17.61717496048251   10.20120943954477    1.34511340051761
C        18.12185144149180   11.12110655115655   -0.84297111015196
C        17.41852510712162   10.10160069794114   -1.49425660944302
C        16.94295551370166    9.16117960520013    0.70312944092140
H        18.59272757599327   11.90728384283276   -1.41288694394466
H        16.51030467664121    8.35740982329277    1.28055701018982
H        16.33535171664548    8.27830097229206   -1.12593380095067
C        17.25375717155129   10.03587773614007   -2.96798349348603
N        16.86675348257375    9.80050109953115   -5.77930193338786
C        16.06600374576748    9.54096213432489   -3.53327719573292
C        18.22295962040092   10.43513123573670   -3.89785117836604
C        17.99720982275066   10.30070358202679   -5.26578476630847
C        15.91598986128004    9.44271377558549   -4.90336641066853
H        15.24342188822243    9.24681314360347   -2.89938132643310
H        19.17142929799166   10.83597234019379   -3.57350044607845
H        18.76517711915092   10.61000641603220   -5.96824733712958
H        14.98413701186819    9.06558003454885   -5.32778023162389
N        17.69986713045242   10.24281593099058    2.76908146680109
C        18.70516592975911   10.81316901550584    3.50656921539709
H        19.56266163290648   11.28916791972771    3.07513810001839
C        18.40156054852904   10.61343872729534    4.82244796264787
H        18.95994403361624   10.92696102883804    5.69167192997830
C        16.82327670951185    9.72216251777543    3.66186712348605
H        15.90960119747069    9.23003901026653    3.38430741913775
N        17.21638540388210    9.93140686040890    4.91176964986918
H         6.80402493692394   21.08569472568407   -1.83246826868472
C         6.12899515274264   20.38049515723157   -1.37309349376310
C         4.44602406829418   18.59965870066219   -0.11230615362884
C         5.30450994268523   19.57085736553313   -2.15641139789130
C         6.11067371569892   20.29675351491132    0.01404560697263
C         5.28254871498109   19.39053961614342    0.68601478583206
C         4.44891958979422   18.68913065075722   -1.49402552059640
H         6.77685903718655   20.93958334768562    0.56854554205909
H         3.75623963194301   18.08048026953369   -2.05648169508575
H         3.74284623171283   17.92363428364884    0.35227657510699
C         5.27505933794139   19.23395515934508    2.16190871606220
N         5.18458029886184   18.84097957029837    4.98101294877110
C         5.05331931040465   17.97586073946505    2.74798492284963
C         5.47486314046815   20.27810193454487    3.07499843812567
C         5.42058581515474   20.04584932638506    4.44714903631910
C         5.01574729229779   17.82569071582933    4.12114318790553
H         4.92623431370937   17.10157817195867    2.12792875575330
H         5.65494085686190   21.28652412258597    2.73426328479822
H         5.57310186640032   20.87097221033263    5.13650081481255
H         4.84869601178658   16.84169826078089    4.56180367138131
N         5.31504038567956   19.64094124278950   -3.58144744418509
C         5.63828522105372   20.73828031166576   -4.33717250739839
H         5.90659289018751   21.68861350303196   -3.92143211040347
C         5.50809700852318   20.37674542528578   -5.64712560117198
H         5.68446863209456   20.97790992791081   -6.52622451600659
C         5.00391253379873   18.65539824946198   -4.45804575289793
H         4.73200076350587   17.65877177194466   -4.16315577601395
N         5.11370306502395   19.06622127740926   -5.71496081051723
H        15.21578742633268    8.35709436615807  -14.41225896310426
C        14.75483427032047    7.45304877480259  -14.04562878927806
C        13.54584447942145    5.12779451205470  -13.18215173112108
C        14.82107063407925    7.11992728577334  -12.69285117940484
C        14.08619040543426    6.63605364380016  -14.94897943881215
C        13.44375202946604    5.46409468526921  -14.53749130552424
C        14.22240517710139    5.92882038797960  -12.28100033966302
H        14.05061404067474    6.94206778014243  -15.98313772192444
H        14.30258083247916    5.61013247415119  -11.25188951229895
H        13.12056099606505    4.20102395201263  -12.82492019597423
C        12.66111535201642    4.59766683955539  -15.44865186859262
N        11.13350700267943    2.84285050465572  -17.07136249791840
C        11.50619817549670    3.94861864405217  -14.98115854114257
C        12.98632525039687    4.34321279510445  -16.78641789645679
C        12.21315560453254    3.47187197222055  -17.54891894573555
C        10.79069527404963    3.09952773706705  -15.80110736185695
H        11.15443710641475    4.12067087180435  -13.97543536328280
H        13.85166376338801    4.79789016105409  -17.24448440823677
H        12.48272721001700    3.27728914611774  -18.58242581131530
H         9.89750757110239    2.59601979047142  -15.42740646883074
N        15.48310559112931    7.94458235024924  -11.74106929496353
C        16.56651241024743    8.75347242944890  -11.96426173048945
H        17.04664260763838    8.85329411193266  -12.91706748267675
C        16.88750900956964    9.32989585597300  -10.76872487265276
H        17.68565423286671   10.02358220875118  -10.55482053563217
C        15.18201122903788    8.06169764311932  -10.42595211678881
H        14.35011574408437    7.56971027639989   -9.95645184568758
N        16.00874932597564    8.89541891057997   -9.81242813781761
H         2.63108639299672   15.29560678778610  -16.37184917458588
C         2.28496136909041   15.12206677242667  -15.36473999914745
C         1.45871334027898   14.72753794224420  -12.76163235761152
C         1.27488083425965   14.19443386099685  -15.11040667210498
C         2.87527341803266   15.83527360363103  -14.32857567450205
C         2.49414758351121   15.64008112659546  -12.99743165185031
C         0.85683883142203   14.02616945324982  -13.78989570355702
H         3.66151826242839   16.53273917620460  -14.57311302222864
H         0.03892551952619   13.35838602580358  -13.56162860413874
H         1.08523861858999   14.58658268316085  -11.75759110034651
C         3.13789735042010   16.32486877022832  -11.85269731551772
N         4.26481317952080   17.56036109980030   -9.56200105073697
C         3.30621337018042   15.64671542811923  -10.63403099497286
C         3.60000276530782   17.64630648982946  -11.86739084234259
C         4.14305445830046   18.21849485025564  -10.72006585838551
C         3.85703215271429   16.28357379120495   -9.54036603145142
H         3.01981061186274   14.61009696184616  -10.54400116992393
H         3.52417059607783   18.25194510795086  -12.75781199449346
H         4.48804266161651   19.24767901686592  -10.74314899464962
H         3.97946411842043   15.74982669655195   -8.59637998044303
N         0.66183582240945   13.43815291493746  -16.14801545259826
C         0.47560183313550   13.82551165720068  -17.44925449966134
H         0.78650730406951   14.77514731986054  -17.83632223887639
C        -0.18177412849888   12.80762884895046  -18.07878227495411
H        -0.50079252625670   12.75439585823894  -19.10806883986712
C         0.11892027045170   12.20268295301375  -16.03473531454407
H         0.14288135010872   11.61882847224353  -15.13304385667187
N        -0.39412483295419   11.79196102594833  -17.18498538188500
H         6.56376373337817   -3.48629963010721  -21.28878811503411
C         6.36159599936183   -3.88753124818585  -20.30788895225643
C         5.77279592099388   -4.96900194085018  -17.84274274693382
C         6.95198063932849   -3.32683857154094  -19.17381096487269
C         5.49358290975209   -4.96836878245252  -20.20694399230350
C         5.15847280763704   -5.53003696851959  -18.96980685546376
C         6.65100508111895   -3.90285444118303  -17.93846186129720
H         5.05849257010467   -5.35485180522463  -21.11574099590738
H         7.12340672514453   -3.53562665135939  -17.03922840381885
H         5.59639536273379   -5.39715129794816  -16.86650572874234
C         4.19599105052038   -6.64939216606088  -18.81538064238584
N         2.36918897391426   -8.79199526278199  -18.38986208036476
C         3.35174918503298   -6.71750261680918  -17.69384013941347
C         4.04586635121867   -7.70354892645556  -19.72626223384589
C         3.14336763960957   -8.73563339366604  -19.48046437035496
C         2.47755127917661   -7.77393851179324  -17.52324708841934
H         3.36303596701679   -5.92980293749189  -16.95600955406783
H         4.64028242023586   -7.74809898801481  -20.62633674132648
H         3.04876072506471   -9.54620555341913  -20.19666838058698
H         1.82108915040893   -7.80792439061322  -16.65232879522253
N         7.84379052234741   -2.21628578659844  -19.25933810129001
C         8.63655973266203   -1.89289782215816  -20.33027245450896
H         8.67851827154709   -2.46664774614297  -21.23413443200409
C         9.33883956599738   -0.77359877555301  -19.98736679244959
H        10.05668096845564   -0.22793668234552  -20.58081831874624
C         8.09074610204170   -1.28176834751050  -18.30939058600552
H         7.59487758428567   -1.25408134644154  -17.35678193479226
N         8.98758271189981   -0.39358122822321  -18.71863778243137
H        -7.22905890166431    3.32708345378777  -21.10698180926405
C        -6.99889293677124    3.73164708115818  -20.13364972377563
C        -6.33960711500451    4.82163658315620  -17.69024298298235
C        -7.55575204443347    3.17431543011636  -18.98109767568683
C        -6.12911693519266    4.81341375216390  -20.06150745272784
C        -5.75863480819501    5.37936107841711  -18.83647711027521
C        -7.21942754883373    3.75462212295584  -17.75692719283063
H        -5.72091306690621    5.19719670526456  -20.98383193108598
H        -7.66511923298238    3.39002340150374  -16.84311738182829
H        -6.13530690058765    5.25312088694303  -16.72094183741875
C        -4.79253306501503    6.49951290207627  -18.71347249348156
N        -2.95372474381872    8.64282918332753  -18.34780849536035
C        -3.91603698064225    6.57081723220795  -17.61713238690088
C        -4.66917788336632    7.55114424255439  -19.63125449839588
C        -3.75964026795122    8.58369458592210  -19.41497285194126
C        -3.03703042322214    7.62747448906086  -17.47524635830037
H        -3.90602617224163    5.78533361127788  -16.87692929183421
H        -5.28976563214272    7.59335064056330  -20.51360849840750
H        -3.68595846838064    9.39223051553352  -20.13590087640600
H        -2.35548639387582    7.66396213814933  -16.62386577706849
N        -8.44917546240518    2.06311014484638  -19.03684132044975
C        -9.27250936276891    1.73567423592770  -20.08322135322628
H        -9.34022099276777    2.30575736750685  -20.98784467018984
C        -9.96489174685145    0.61798680339035  -19.71580880031750
H       -10.70045052045763    0.07067895036023  -20.28556922239602
C        -8.66902766715652    1.13262636440041  -18.07633314233845
H        -8.14534582688796    1.10777414583725  -17.13864315931547
N        -9.57754973524746    0.24315714761499  -18.45608528078853
H        -3.16119549196953  -15.43285302132868  -16.23984806678349
C        -2.78022120648445  -15.26344522446222  -15.24467908297409
C        -1.86305848185287  -14.87960956887962  -12.67066948706818
C        -1.75636453550322  -14.34260054333854  -15.02313640569172
C        -3.33949652918100  -15.97485866163007  -14.19030276288029
C        -2.91202262131024  -15.78478024634487  -12.87251321745497
C        -1.29218227363354  -14.17978655223667  -13.71748191710047
H        -4.13810812267718  -16.66674636734945  -14.40919671445795
H        -0.46253762556809  -13.51774694250511  -13.51634855235578
H        -1.45447967301547  -14.74291401640484  -11.67983152763093
C        -3.52215875790420  -16.46750955017584  -11.70841706345385
N        -4.58712710451344  -17.69965356681598   -9.38608978117314
C        -3.64186140527242  -15.79281587045549  -10.48202521558188
C        -3.99848040091512  -17.78397623247598  -11.71235712231504
C        -4.51035656100265  -18.35442253509767  -10.54998345737357
C        -4.16335849350610  -16.42795272775812   -9.37305906319641
H        -3.34104954694799  -14.75976383879823  -10.39744566525707
H        -3.95781223215258  -18.38734676765174  -12.60659628242244
H        -4.86763470852297  -19.37947533945145  -10.56589919323041
H        -4.24773299693949  -15.89718857986871   -8.42323103312214
N        -1.17555690244416  -13.58696148476958  -16.07952336057231
C        -1.03342033013246  -13.97285779864638  -17.38670062728430
H        -1.35785523401775  -14.92183802638791  -17.76422362254316
C        -0.39626721434248  -12.95483649990094  -18.03656472317364
H        -0.11152109411134  -12.90050994198740  -19.07579772178041
C        -0.62768933149790  -12.35234547372125  -15.98272811970877
H        -0.62036355375781  -11.77003545137400  -15.07972151733934
N        -0.15312971431752  -11.94060226496785  -17.14904219628795
H       -16.86677600337620   -7.07278810781934  -13.53134031028290
C       -15.82269447453934   -6.85081453854115  -13.37356916187509
C       -13.14938948519477   -6.25061857605530  -13.04340370471813
C       -15.15028706477632   -7.35341561872553  -12.25973021760749
C       -15.16765167149498   -6.04688514379983  -14.29785323580479
C       -13.82049544319781   -5.70254300868104  -14.14384611497852
C       -13.79346740607136   -7.05865684970545  -12.12453599383448
H       -15.73432607168172   -5.67025089571192  -15.13526452803678
H       -13.22595065610716   -7.48418059975228  -11.31014771998619
H       -12.09050877908816   -6.07859298931118  -12.91813300586851
C       -13.10791182382451   -4.78252495913342  -15.05942317771878
N       -11.66947033223909   -2.98412857358362  -16.71858979949753
C       -13.35811016110436   -4.66657880943117  -16.43233352364157
C       -12.10067804296090   -3.93653057376900  -14.56463808105628
C       -11.42063889747085   -3.07848831367350  -15.40443159541774
C       -12.63192618239498   -3.77029395438884  -17.21222443138110
H       -14.10423617096100   -5.27889641430964  -16.91562140401412
H       -11.85705874066684   -3.93556601757305  -13.51324707387773
H       -10.63693448109567   -2.42727299450570  -15.01136835112371
H       -12.83816319084276   -3.69245897045756  -18.27503298314306
N       -15.80696067758318   -8.14693022884724  -11.27783713452715
C       -16.85020762747229   -9.01172784680397  -11.48025739344478
H       -17.28323431723185   -9.20423698731038  -12.44143273970008
C       -17.15647786820928   -9.55854553219880  -10.26698156274955
H       -17.92067532140893  -10.28363652902245  -10.03594889430733
C       -15.51993198439247   -8.19497139111328   -9.95557714332625
H       -14.75453750648213   -7.60242084023330   -9.48874707737852
N       -16.31834286603906   -9.03824265633846   -9.31735199449964
H        -6.86106575068093  -21.27524835019910   -1.58983858662399
C        -6.19989639255547  -20.54532497505898   -1.14928689463344
C        -4.55293077817212  -18.69993016122207    0.06541092686698
C        -5.42594667789446  -19.70780775402832   -1.95463731997613
C        -6.14850930437173  -20.45851761278597    0.23697860683353
C        -5.33745941125173  -19.52078679002972    0.88586392212542
C        -4.58746129757732  -18.79290859402765   -1.31557909400466
H        -6.77595058646018  -21.12417734087134    0.80953587379995
H        -3.93281054604146  -18.15965941816907   -1.89615138223610
H        -3.86507693167296  -17.99595467222081    0.51124796296010
C        -5.29393579903542  -19.36067051413291    2.36079472369755
N        -5.12234604241761  -18.95669326318824    5.17433909658873
C        -5.11744895611132  -18.09115911425654    2.93737083168178
C        -5.41135417634288  -20.41077873686266    3.28105880812208
C        -5.31826170363250  -20.17284241779047    4.65028357177455
C        -5.03972432924766  -17.93587228549529    4.30817455768533
H        -5.05837894880913  -17.21342624458521    2.31197362636959
H        -5.55596196075113  -21.42732175780615    2.94762761945592
H        -5.40418523771959  -21.00279161433829    5.34508367152043
H        -4.91238238504437  -16.94272722189926    4.74178584179078
N        -5.46746933985485  -19.78251062622723   -3.37891479081836
C        -5.77363760747501  -20.89160011285814   -4.12464133369462
H        -6.00712008068697  -21.84752379496152   -3.70082891974288
C        -5.68014907787557  -20.53147536672335   -5.43811139244094
H        -5.85611185651253  -21.14088550105025   -6.31156006422421
C        -5.20346366017136  -18.79144363925250   -4.26475502463222
H        -4.95584470458122  -17.78593240414773   -3.97883661374617
N        -5.32578181973738  -19.21031138218110   -5.51786449056679
H       -19.73461997233970  -10.44727280253303    1.57839301847874
C       -18.76216260945574  -10.39361488270762    1.11358965081036
C       -16.31819235265778  -10.25948581722681   -0.15376921779328
C       -17.60493623450963  -10.35633425986812    1.89261228064004
C       -18.69409680482189  -10.35320361902543   -0.27408112569773
C       -17.47130530622626  -10.26591895999999   -0.95041113134310
C       -16.37882898693353  -10.30508262734832    1.22860462659321
H       -19.62154685533438  -10.36958333957742   -0.82535311912994
H       -15.45782792448535  -10.32879881151905    1.79277798167633
H       -15.34287727454538  -10.25965790339153   -0.61787009732614
C       -17.36434573645001  -10.16213417439366   -2.42712547723425
N       -17.06565764962907   -9.90858251079173   -5.25103699272169
C       -18.26772156028429  -10.72975525029661   -3.33647668257138
C       -16.30343084652103   -9.45691682180207   -3.02151669335637
C       -16.18960269686892   -9.36227154056247   -4.39493998110481
C       -18.08873937273277  -10.58155701904752   -4.70998681006680
H       -19.11212249891450  -11.30810783838777   -2.99328706626887
H       -15.56578456174789   -8.96186590408754   -2.40884200688452
H       -15.34878604821799   -8.82600571555811   -4.83690030355869
H       -18.80229770908426  -11.03068494283337   -5.39406838264734
N       -17.65452518386840  -10.38621144179456    3.31860702583444
C       -18.57980984821924  -11.04654581748574    4.08404883968807
H       -19.37739364402692  -11.63315474172173    3.67387481748654
C       -18.24836318467134  -10.82807856342730    5.39055121759397
H       -18.74312097973927  -11.19801198504372    6.27612490686533
C       -16.79991382760841   -9.78968636045697    4.18371465897675
H       -15.97473730716873   -9.17417491344679    3.87606654076226
N       -17.13260989896725  -10.03433051005742    5.44471401976478
H       -13.90753774208897   -6.82766526275929   16.09580023328142
C       -13.87806777949682   -6.41745682173558   15.09819189208654