1368
 energy: -2198.239187224859 gnorm: 0.000664470423 xtb: 6.4.1 (23d549d)
Pd       10.53898477327083    1.34799742866605   17.21902412435446
Pd       18.50364528411873   -4.92482807332381    6.88489151227339
Pd       16.62703531656271    9.41316629719736    6.86648765431740
Pd        1.58433956611612  -10.29543141700135   17.33912418684293
Pd       -1.11798392683336   10.30741155051360   17.37545583917305
Pd        9.53060321603081  -16.55735519935801    7.00529783482472
Pd       18.30694498542492   -4.94488146525076   -7.80794145628803
Pd       16.41402298772539    9.40007018046725   -7.82487232999237
Pd        4.94363324600353   18.33381510739942    7.00652467977202
Pd       -4.82065889627000  -18.42477392846662    7.22918728288210
Pd      -10.08470707215885   -1.34406614439557   17.47180718630183
Pd       -9.38233802496066   16.46944729333050    7.22477891618696
Pd        9.32638563360293  -16.57452185405173   -7.68736055998590
Pd       -5.02499353416925  -18.46562170302542   -7.46556836049153
Pd        1.04734392193782  -10.36612213505123  -17.80485193238289
Pd      -16.69320163890173   -9.54111896974982   -7.27171195507232
Pd      -10.64419658596292   -1.46370519036470  -17.63573670632016
Pd       10.04049963018806    1.25216718578196  -17.94084705362543
Pd      -18.59388985531149    4.78898448313593   -7.28949905282532
Pd      -16.50224173375867   -9.50271396521387    7.42861438191333
Pd       -1.65817854201137   10.16277711276079  -17.77948006665135
Pd       -9.61125642752096   16.41208483093607   -7.47492732150319
Pd      -18.36990433393444    4.84673672453700    7.40732271404574
Pd        4.73414655157437   18.32051457268408   -7.69819823307581
H        -2.34312823403987  -17.86471433636158   13.42328786793225
C        -2.39041265311567  -16.80188552787950   13.24294224173359
C        -2.48171514790080  -14.07100680109905   12.85425555168597
C        -3.05444333631938  -16.30062352216202   12.12362041218592
C        -1.76788386160474  -15.94655553329748   14.14337902448022
C        -1.77351674817212  -14.55966051757053   13.95951321253454
C        -3.10990206730887  -14.91651219356173   11.95854627781020
H        -1.25377134982332  -16.38280632523782   14.98576189045523
H        -3.67063410420282  -14.49177751389788   11.13900510528890
H        -2.58206613519850  -13.00580682956441   12.70676518179713
C        -1.05485552509967  -13.61924536907051   14.84917037129823
N         0.33413433925499  -11.73791981753182   16.45781218538855
C        -0.86323258284731  -13.80564408636426   16.22379514119190
C        -0.49966569772649  -12.43895927127768   14.32582898529213
C         0.16469395026365  -11.54623806265105   15.14164142400771
C        -0.17360727673198  -12.86015876598521   16.97825349993830
H        -1.25874409522655  -14.67422432259623   16.72808285750320
H        -0.57204407241617  -12.22313856690841   13.27088940984570
H         0.58868598857057  -10.62924799827912   14.72676228616088
H        -0.03294716038066  -13.01990406068267   18.04262940195913
N        -3.66820068872089  -17.15445524229047   11.16478380656862
C        -4.25898827573859  -18.36823213436449   11.39911781807052
H        -4.33771460806612  -18.81120719107469   12.37178459516175
C        -4.72216390083529  -18.82512606003193   10.19828955539746
H        -5.24811448364477  -19.74367380917072    9.99030499816415
C        -3.78762569238992  -16.91925529931707    9.83694328166115
H        -3.39486340649284  -16.04703289139364    9.34705763220503
N        -4.41929728117954  -17.91057268222917    9.22535760641873
H         5.32883112091048   -5.74793259451501   20.69132595954328
C         5.66062248623168   -5.44584585131356   19.71017383199719
C         6.54553357231562   -4.59075403252485   17.24461415445622
C         5.26154278797473   -6.15314044187195   18.57463061325965
C         6.48613983403981   -4.33210165642378   19.61041325788222
C         6.93804161181208   -3.85960901298829   18.37320765180844
C         5.73677634755243   -5.71062159685029   17.33902464900699
H         6.75498668798813   -3.81799345807777   20.52035560371836
H         5.49681923519448   -6.25652248906726   16.43845297149876
H         6.91065179256909   -4.30729192911061   16.26800010589696
C         7.77474267374719   -2.64313751112942   18.22030803529785
N         9.37551991299191   -0.32624569033516   17.79873052885863
C         7.61779576394642   -1.80322052017749   17.10448315387053
C         8.76148702113684   -2.23415177062132   19.12720962453510
C         9.52662054684954   -1.09600798954049   18.88340861039875
C         8.41404008978547   -0.68661566910897   16.93572574190315
H         6.85497022636505   -2.01171746174426   16.36989166915379
H         8.96274037923989   -2.80308565946430   20.02235001942415
H        10.29103503344140   -0.80172849376556   19.59617581807020
H         8.27332032078291   -0.03814001251667   16.06955216717706
N         4.41212960299358   -7.29661457825099   18.65891015231576
C         4.30498342648436   -8.15091680329888   19.72595977530968
H         4.87650669779600   -8.05202061283090   20.62679885621816
C         3.39622071206797   -9.11035238785639   19.38346538402681
H         3.05303615368676   -9.94636374758209   19.97389160285993
C         3.56441310555213   -7.76571495402032   17.71138490103742
H         3.40685175438136   -7.28776647984128   16.76223964775588
N         2.93262784317602   -8.85922155040194   18.11881085074661
H        -7.92967618682211    4.42066932643370   20.24533649708023
C        -7.12146040728042    4.36207885577550   19.53287831255806
C        -5.03770068401158    4.30692648637417   17.73001666879899
C        -6.96860492268403    3.23660134650872   18.72137144612369
C        -6.24726673097096    5.43876077971829   19.44015404715569
C        -5.18961167738174    5.45132630314725   18.52373849492789
C        -5.89673395550878    3.22542426328493   17.82751931714241
H        -6.41997364493553    6.28752665956553   20.08385619372936
H        -5.71061343349633    2.35488734390827   17.21563863193680
H        -4.20551606668742    4.23552795959375   17.04462542021616
C        -4.26766482957474    6.60283721712535   18.35780759535891
N        -2.44987637209966    8.75597809590727   17.94308900717976
C        -3.74514561834796    6.92435379218152   17.09329478621986
C        -3.84281111469511    7.44131288795770   19.39695074811931
C        -2.95066315141165    8.48322834266189   19.15395681098998
C        -2.86564714563659    7.97773047552340   16.93260004470749
H        -4.04252778064159    6.36057691419659   16.22229552872376
H        -4.18380342918126    7.28678524622926   20.40948731113043
H        -2.63016126367978    9.11625316053466   19.97561305744144
H        -2.47410925313835    8.21929647643531   15.94278087198882
N        -7.85698206652375    2.12268211358540   18.80248212475993
C        -8.54400431361314    1.71358863775328   19.91601791218664
H        -8.47291671799220    2.19811657803829   20.86902490297060
C        -9.25826292959014    0.60494657741119   19.56300301768847
H        -9.91558976701905    0.00998370678855   20.17893561388361
C        -8.18135011324855    1.25285050362842   17.81552716524682
H        -7.81473670515317    1.32991243207784   16.80861188363536
N        -9.02765847709532    0.32384370160983   18.24187110628375
H        14.29348568351396    6.77439674185258   15.64393419159926
C        14.23709757275912    6.35685370613072   14.65059221396146
C        14.13036788227991    5.35218000164091   12.08278430826960
C        13.63802037867004    5.11600741033619   14.43525538108526
C        14.76401127041537    7.08671964490530   13.59220245392277
C        14.70226719824015    6.61557808548640   12.27689977662139
C        13.61539697329844    4.61553398690794   13.13317712306678
H        15.20490067075356    8.04808531339891   13.80596499693985
H        13.21313568898254    3.63193295921901   12.93867660152614
H        14.11833106921958    4.91314132104450   11.09575497464608
C        15.18115652110964    7.38943810494396   11.10864496593054
N        16.04293723902540    8.76498440686187    8.78109712403327
C        14.50892842043312    7.29044436409377    9.87893873264017
C        16.29384364551936    8.23925296624925   11.11062044292794
C        16.68639637113477    8.89480182755171    9.94641686518873
C        14.96225781318222    7.97180424812888    8.76790426075672
H        13.61626492029734    6.69005433544597    9.79267723851537
H        16.88041097751552    8.38563280460941   12.00497424886097
H        17.55532255715531    9.54519433795594    9.96233965139237
H        14.43815859283828    7.87903559041442    7.81511919192805
N        13.06817898814563    4.35558117862280   15.49406607133866
C        13.48281467271942    4.31963657349977   16.79951578159328
H        14.31468338968413    4.88225701441586   17.17355159770245
C        12.67112278891207    3.43612648855964   17.45180735122117
H        12.69849572646387    3.14568480783609   18.49042505110137
C        12.02151820580414    3.50169157867425   15.40031296979999
H        11.45924512291804    3.34192322296100   14.49862804415655
N        11.75335338763093    2.93511357345405   16.56747759027242
H         1.28325271754049   16.18646580410666   15.35303765767066
C         1.78113400908015   15.62318130929388   14.57888703360095
C         3.09651852793985   14.24818178952299   12.58002949544601
C         1.83131968088785   14.23080840303824   14.63686578135062
C         2.36117660102512   16.31208557029273   13.52133519335023
C         3.00940704646093   15.64272343474646   12.47726353827067
C         2.52322548400221   13.55632317629135   13.63106880843143
H         2.28114012738655   17.38795306233140   13.51243962987985
H         2.64015036837821   12.48384952806125   13.68244841830136
H         3.65660539051465   13.68679261744300   11.84728791946059
C         3.55641764813068   16.33554735509479   11.28849363978651
N         4.53542248247442   17.58028025928234    8.93037172176822
C         3.58787885519959   15.68393630417222   10.04380629917800
C         4.05781039934716   17.64374094517515   11.28276774673896
C         4.52357596447277   18.22086293178690   10.10442220201545
C         4.08049650841633   16.31936510528314    8.92257676220216
H         3.21107154532075   14.67798373361328    9.94297522167738
H         4.10858160555529   18.22462595284607   12.19112162810476
H         4.90542743418442   19.23691936163217   10.11755379042132
H         4.11998366342377   15.79416946164003    7.96687240814490
N         1.20150893335528   13.49660848433955   15.68090182858898
C         1.07242712328141   13.87116968876493   16.99224167539654
H         1.46972451966714   14.78416659398406   17.38887651777229
C         0.40537776703645   12.86446407160821   17.63020939963021
H         0.12727302284501   12.80089138678022   18.67087788599096
C         0.60949698049112   12.28461535470830   15.56682228335465
H         0.53619021781697   11.74099970545652   14.64263930019700
N         0.11709445085244   11.87629961384133   16.72702169594274
H        18.74241309590047   12.00380878283276    0.97164100841352
C        18.20778576739231   11.17751058288408    0.52953925786107
C        16.84795950919792    9.11310020672052   -0.68820287470193
C        17.61961469891334   10.19878258699711    1.33271510029467
C        18.11525173611729   11.12150841938351   -0.85618364351957
C        17.41686191183890   10.09781742569791   -1.50617212831366
C        16.95072385855299    9.15457962642099    0.69194637133919
H        18.58056639522405   11.91032369379705   -1.42701319402451
H        16.52416614138390    8.34811481706103    1.27015203098128
H        16.34545899789977    8.26796755626167   -1.13621418480369
C        17.24970266018049   10.03150764710835   -2.97958464260007
N        16.85819330895417    9.79558337135876   -5.79015760734039
C        16.06277264843227    9.53221154382262   -3.54269342341015
C        18.21568808551525   10.43461711752363   -3.91110754804356
C        17.98785069500905   10.29964248972524   -5.27862304027131
C        15.91042075235317    9.43402797242109   -4.91253607917858
H        15.24265259504248    9.23459048347741   -2.90722083627277
H        19.16327238488282   10.83881940929031   -3.58834265901918
H        18.75345527391153   10.61169312279344   -5.98246887179344
H        14.97903687192684    9.05398243498364   -5.33529972513669
N        17.70406089938237   10.24138121321412    2.75652660380629
C        18.70731536331249   10.81730049966144    3.49248286222653
H        19.56186213236384   11.29736749734713    3.05974675026429
C        18.40628756951766   10.61682134161871    4.80883461911069
H        18.96403031189636   10.93374006244710    5.67723664125807
C        16.83120199566672    9.71682839404075    3.65065798129945
H        15.91991474541817    9.21961224697895    3.37432170996611
N        17.22468551092573    9.92886054756015    4.89996331847832
H         5.07034014741217   21.66043775744708    1.13302225125589
C         5.19027276510741   20.68786404641084    0.68150350051518
C         5.47145642125825   18.24300764518022   -0.55890067259764
C         5.37074038140548   19.55274141665517    1.47377579071241
C         5.15019520574756   20.59761991944744   -0.70489886625294
C         5.27147154486925   19.37028550747301   -1.36629756267298
C         5.52689302500499   18.32847109282838    0.82196437354579
H         4.99675224965091   21.50605752412263   -1.26684273463015
H         5.71906779718951   17.43146363048220    1.39227594884862
H         5.62893012819369   17.27662613460329   -1.01579011165424
C         5.17971910684452   19.22631655091716   -2.84075213697337
N         5.00434034066008   18.83010307023170   -5.65572636466854
C         4.59885282632074   18.08152104671450   -3.41298531355929
C         5.64513074971809   20.17087525850167   -3.76515585904908
C         5.54329260354965   19.93909429757275   -5.13494207837442
C         4.53166615768097   17.92637632841818   -4.78423341880392
H         4.17713758850630   17.31298169106068   -2.78330239444974
H         6.10787369165342   21.08879500648305   -3.43548227182111
H         5.91704630878952   20.68189976064022   -5.83292469210841
H         4.07104516294098   17.03493120723989   -5.21382151789679
N         5.41191232964462   19.62752664515923    2.89824697349293
C         5.82754624598589   20.70199888121266    3.64130415540611
H         6.18738272831191   21.61640796578462    3.21424269946802
C         5.72016337838209   20.34775027081705    4.95532476265925
H         5.95632818531391   20.93895756307659    5.82708228616846
C         5.06492069218080   18.66406611054384    3.78564739508235
H         4.67365024667280   17.70467756475227    3.50162978261111
N         5.23799926761328   19.06772253659836    5.03792137150738
H        15.20424941061086    8.34686432173518  -14.42055121343888
C        14.74576507874025    7.44179963687989  -14.05335830134539
C        13.54286090396651    5.11398306513188  -13.18832706836136
C        14.81417143708385    7.10898105487224  -12.70059996929641
C        14.07811596999264    6.62318199078155  -14.95595768393674
C        13.43860605380464    5.44996566376868  -14.54355895205063
C        14.21874112119477    5.91650035188152  -12.28799589681335
H        14.04084817155256    6.92892461136020  -15.99013946806774
H        14.30083972657508    5.59787768215044  -11.25902372286597
H        13.11985276326044    4.18632333977251  -12.83067871177375
C        12.65663262768185    4.58174834210531  -15.45354432843910
N        11.13059603963869    2.82325574628694  -17.07341431316345
C        11.50228165500685    3.93247004452798  -14.98495537665309
C        12.98203195608876    4.32574090881110  -16.79094075807039
C        12.20969435681296    3.45242621635855  -17.55202102052535
C        10.78736343886794    3.08166894634864  -15.80361341637843
H        11.15058091632932    4.10574933387080  -13.97941976866926
H        13.84689308713329    4.78067709240386  -17.24967216577038
H        12.47952507724808    3.25631456680466  -18.58518542831901
H         9.89429632789568    2.57817955484511  -15.42948115737681
N        15.47471045718853    7.93570114998851  -11.74961981070102
C        16.55362654212059    8.75015892349188  -11.97443921900030
H        17.03184785645937    8.85258908133567  -12.92792442161028
C        16.87375456998543    9.32796407757416  -10.77931941389014
H        17.66835239066533   10.02604315823649  -10.56642824344487
C        15.17535578337889    8.05088266424250  -10.43391955194774
H        14.34695172158906    7.55438268329144   -9.96297454368174
N        15.99892980954041    8.88865368961474   -9.82167105702910
H         2.21354591119893   17.74795682274602  -13.85452948966629
C         2.29812317238697   16.68429535593685  -13.69383144797360
C         2.49061589825574   13.95192861418239  -13.35830072878907
C         3.00508666407378   16.18630591745858  -12.59964891824227
C         1.68057126698574   15.82445302956900  -14.59322793114997
C         1.73504553959521   14.43544172610497  -14.43419460413428
C         3.11279518840914   14.80228433910101  -12.46292324211926
H         1.13165306920024   16.25784092120354  -15.41480660413516
H         3.70939154852576   14.38285839786343  -11.66632121317976
H         2.63253954737194   12.88863548743461  -13.23413517876130
C         1.01546029527819   13.48970107170422  -15.31732709498762
N        -0.39796332799796   11.60871595449457  -16.90701837982937
C         0.52250427942992   12.27933027509196  -14.80094065772342
C         0.76080602612976   13.69961048794227  -16.67861193158264
C         0.06091575497557   12.75420653128761  -17.42329835094673
C        -0.15378082777262   11.38718569287993  -15.60759506012984
H         0.65243287639152   12.03740505801476  -13.75740510029988
H         1.11485946260263   14.58720051508414  -17.18063198302665
H        -0.12828061384632   12.93282646731487  -18.47719879403359
H        -0.51781605813402   10.44309230919334  -15.19882554366899
N         3.60624985726913   17.04424552942741  -11.63645706231453
C         4.15269585450925   18.28087967426572  -11.85851715390974
H         4.20797402440745   18.73923416124780  -12.82570452948818
C         4.61033585691373   18.73654915591130  -10.65509769990418
H         5.10443255636521   19.67081159373607  -10.43759913579474
C         3.74692037437634   16.79402295813383  -10.31337454033231
H         3.39120707465040   15.90074473583516   -9.83339681429529
N         4.34883984977850   17.79795037200412   -9.69301229676338
H         6.55640239762013   -3.50309221328177  -21.28808795774804
C         6.35451294689326   -3.90505077859232  -20.30743084024390
C         5.76600252075727   -4.98797697911237  -17.84284887884788
C         6.94587437368502   -3.34573623923001  -19.17318540255850
C         5.48583042984106   -4.98540372761974  -20.20696782852708
C         5.15088728208095   -5.54771840014060  -18.97010591312539
C         6.64501090003407   -3.92243847861118  -17.93813023250214
H         5.05007891138066   -5.37092454538966  -21.11585937088121
H         7.11806526431187   -3.55627433683406  -17.03880191186789
H         5.58957143854908   -5.41677066139335  -16.86689090324636
C         4.18749101568435   -6.66634922737969  -18.81599219982108
N         2.35848377332956   -8.80702475282783  -18.39083002291374
C         3.34207210658005   -6.73291501953424  -17.69526297278874
C         4.03756551216159   -7.72105540734303  -19.72624711169930
C         3.13395838784579   -8.75220782151872  -19.48059352297446
C         2.46673462307843   -7.78843407336743  -17.52483252789045
H         3.35334844101005   -5.94463039504535  -16.95805672785421
H         4.63290190063520   -7.76669240227838  -20.62566738656949
H         3.03958254478302   -9.56337887403519  -20.19615427031618
H         1.80920735629458   -7.82114980828006  -16.65466682079349
N         7.83858142815638   -2.23586449454213  -19.25836186203259
C         8.63094373856927   -1.91244126426528  -20.32958516175447
H         8.67162278950144   -2.48555176513834  -21.23390564984506
C         9.33457832606684   -0.79409783740299  -19.98633225588464
H        10.05245146366465   -0.24864013592163  -20.57993306573150
C         8.08711473406937   -1.30235013614511  -18.30788653551359
H         7.59209248492681   -1.27503160092439  -17.35481577273284
N         8.98458921912770   -0.41471871080703  -18.71708558540181
H        -6.73342042986722    6.64644231176380  -20.50868641040506
C        -6.45833598997242    5.87213351499444  -19.80938602440023
C        -5.84185745339618    3.85154361417721  -18.03952543521869
C        -5.31395489195519    6.00010214852881  -19.02032750311390
C        -7.27792691899370    4.75383261814393  -19.71046788786905
C        -7.00445971483430    3.71808234515901  -18.80983086908446
C        -5.01405716313393    4.95653855936517  -18.14334332883334
H        -8.15617894772304    4.71343377299616  -20.33626493417379
H        -4.11177501484084    4.98948001146620  -17.55032105472454
H        -5.54824957243434    3.05726217020665  -17.36848475353709
C        -7.88304825586094    2.53423368931640  -18.63661308989419
N        -9.49916585344107    0.22798335576348  -18.20967955802652
C        -8.03290099505128    1.93322625611335  -17.37492309695864
C        -8.61238668139238    1.92384079285198  -19.66565857307422
C        -9.39027616493080    0.79527644234255  -19.41701909772456
C        -8.82685435935212    0.81490152400965  -17.20810332373363
H        -7.54171994501150    2.35305522303059  -16.51040814034987
H        -8.57290931906799    2.30426758615624  -20.67516640721428
H        -9.94188753621249    0.33528917057698  -20.23107484909452
H        -8.93849401905780    0.36387334055135  -16.22042887818487
N        -4.46259288739182    7.14218491428343  -19.10674257820072
C        -4.26277149078893    7.92268034005122  -20.21586351207476
H        -4.73169038850795    7.74143214651945  -21.16206791868325
C        -3.36498924410152    8.89125447288007  -19.86958560976246
H        -2.96904702399612    9.68480474128321  -20.48464734272958
C        -3.68463048493291    7.66608467553604  -18.12900540154448
H        -3.64584446573277    7.27897319188694  -17.12748271710399
N        -3.00919088144638    8.72548387694293  -18.55698324927844
H        -3.16087621268881  -15.45498036432512  -16.23176660854226
C        -2.78397541106075  -15.27929308259181  -15.23616038448251
C        -1.87789990454595  -14.87937627099585  -12.66073606113391
C        -1.76560698235784  -14.35216234399037  -15.01524903522711
C        -3.34307054890865  -15.98913546442473  -14.18068190843154
C        -2.92126096654366  -15.79104588933147  -12.86223945056105
C        -1.30691162986391  -14.18129176052318  -13.70864845264605
H        -4.13723572064159  -16.68619665548034  -14.39932110950898
H        -0.48150291517353  -13.51409486127971  -13.50724301330212
H        -1.47375151515093  -14.73593249555359  -11.66902718536520
C        -3.53157750076321  -16.47235073738134  -11.69748593090063
N        -4.59604435155966  -17.70207254163407   -9.37384387117543
C        -3.65903805363991  -15.79371685222234  -10.47403998299854
C        -4.00074547965614  -17.79141038572246  -11.69815458834053
C        -4.51255919251204  -18.36055917301682  -10.53519710821921
C        -4.18017428069853  -16.42773841037877   -9.36423941632798
H        -3.36466889847417  -14.75857395945113  -10.39250858544543
H        -3.95439424883803  -18.39758877109892  -12.59021173309364
H        -4.86416528774689  -19.38763175708796  -10.54835413139528
H        -4.27117001868179  -15.89390836596863   -8.41673045664443
N        -1.18529227529242  -13.59828526784454  -16.07306366877553
C        -1.04368728477751  -13.98636328421872  -17.37972911181084
H        -1.36759871534594  -14.93614516623246  -17.75560173109185
C        -0.40753049513712  -12.96916443533693  -18.03179848162380
H        -0.12385756149756  -12.91624990342357  -19.07139427803070
C        -0.63800545175253  -12.36313059977060  -15.97890728205807
H        -0.63050562138401  -11.77891804396941  -15.07715121403828
N        -0.16437547200725  -11.95327607104956  -17.14620700694545
H       -14.46544760314698   -6.85477978609515  -16.06680429999835
C       -14.35473542404761   -6.46937986194327  -15.06518568516614
C       -14.10207406458805   -5.55731412184144  -12.47344983222269
C       -13.69266136256044   -5.26301606228158  -14.83643152182115
C       -14.87749191214261   -7.20774663692307  -14.01054941526402
C       -14.74509687746579   -6.78275447359749  -12.68504941458817
C       -13.59517624038487   -4.80981160779374  -13.52023479898666
H       -15.37064709481260   -8.14058187750531  -14.23655701390678
H       -13.13785552550794   -3.85461921601166  -13.30779746404555
H       -14.02700666301028   -5.15653151780513  -11.47275515591330
C       -15.22663346429083   -7.56275181034301  -11.52179243347090
N       -16.10790570460784   -8.91901702827036   -9.19306757070590
C       -16.40522334002284   -8.31782829101144  -11.49826098805757
C       -14.49107337754545   -7.56499251930406  -10.32500298984345
C       -14.95370400608196   -8.23766091472062   -9.21202177673355
C       -16.80623491413116   -8.96514587947027  -10.33283208547383
H       -17.03434156303138   -8.39389151941486  -12.37221439682760
H       -13.54320521666658   -7.05208736473743  -10.26815588635441
H       -14.37439374789840   -8.24017741566808   -8.28707285986331
H       -17.72713049877172   -9.54007817768806  -10.32607258366282
N       -13.13571484146644   -4.49208346049264  -15.89462708118947
C       -13.57251244670751   -4.43865469348128  -17.19275377716309
H       -14.41360682941449   -4.99159391496737  -17.56013143930752
C       -12.76801128051177   -3.55199508146737  -17.84922642679583
H       -12.80990162691254   -3.25087530557528  -18.88455469860599
C       -12.08270195021462   -3.64417186312479  -15.81051407438894
H       -11.50038693302459   -3.49806347720019  -14.91943928082973
N       -11.83279959546852   -3.06493224567652  -16.97532160042292
H        -6.85847708870566  -21.26349302994538   -1.56875595846293
C        -6.19814788028970  -20.53170375819422   -1.13005490218888
C        -4.55376507590924  -18.68087668464387    0.07988426034898
C        -5.42594223476293  -19.69468869988505   -1.93762265913495
C        -6.14601211503271  -20.44202028915234    0.25596677983319
C        -5.33612915595448  -19.50162663750653    0.90244104895902
C        -4.58882387328963  -18.77689757479394   -1.30093359280789
H        -6.77197287593557  -21.10749907703092    0.83034648331083
H        -3.93565603632958  -18.14363951489720   -1.88317019735681
H        -3.86723061084492  -17.97450116482880    0.52397368566303
C        -5.29177058933471  -19.33911417591456    2.37712484874300
N        -5.11910202966129  -18.93121570522307    5.19013043007664
C        -5.12003372735189  -18.06827334483249    2.95206816317677
C        -5.40368242113344  -20.38871170171773    3.29866588134276
C        -5.31011099279445  -20.14881093783259    4.66744520394249
C        -5.04177950969465  -17.91110705125810    4.32270926284233
H        -5.06530955801496  -17.19102975057688    2.32559015275401
H        -5.54427752424800  -21.40618716417112    2.96638127834732
H        -5.39118593212627  -20.97846502084735    5.36321017942779
H        -4.91849212451759  -16.91698239908870    4.75499769452217
N        -5.46810905017826  -19.77296011565319   -3.36169903019285
C        -5.77327107951153  -20.88440674179880   -4.10435706931362
H        -6.00505560689907  -21.83957288353422   -3.67794312927175
C        -5.68131928717928  -20.52756537382348   -5.41881796782049
H        -5.85729186652424  -21.13935791135068   -6.29056196024294
C        -5.20619654962129  -18.78383929242951   -4.25034902019618
H        -4.95953014159397  -17.77733244614697   -3.96708301488778
N        -5.32890414680878  -19.20612677222844   -5.50228654662330
H       -18.78965917714573  -12.11644724990349   -1.37260342342138
C       -18.27039161203697  -11.28011411592614   -0.93080559733648
C       -16.95505538662637   -9.18448943417174    0.28291945188243
C       -17.70252864378220  -10.29095497813084   -1.73540514779872
C       -18.17606674786008  -11.22089685606755    0.45468832467172
C       -17.49980430311360  -10.18114749646815    1.10335634931712
C       -17.05593515014613   -9.23153599385035   -1.09710822667919
H       -18.62346288308363  -12.01937179413770    1.02632219396458
H       -16.64731911681341   -8.41763657824115   -1.67807302521006
H       -16.47354751148502   -8.32587777160120    0.72794446250309
C       -17.33251141255591  -10.11158862152097    2.57656339002664
N       -16.93892613327906   -9.88539113180483    5.38963176374546
C       -18.27205225302630  -10.57227285726498    3.50897957575022
C       -16.17442185828140   -9.54956706401501    3.14095550470057
C       -16.02183610305639   -9.45436914938866    4.51105039265905
C       -18.04343380377614  -10.44228384918003    4.87664472124670
H       -19.20055503771310  -11.01916577894705    3.18715993368947
H       -15.37541781118398   -9.19701953491454    2.50681945318490
H       -15.11900551269807   -9.00980723987319    4.93159483586353
H       -18.78733371881446  -10.80401888447422    5.58008935460452
N       -17.78624942601326  -10.33642960230509   -3.15922780095474
C       -18.79915907015618  -10.89490334509780   -3.89499521690922
H       -19.66136013742158  -11.36008129777487   -3.46093617814668
C       -18.49406043937446  -10.69998526024479   -5.21148690990770
H       -19.05977137892990  -11.00144004363337   -6.08042571662671
C       -16.90388150155428   -9.82732201722427   -4.05254864070819
H       -15.98311434845365   -9.34884121371382   -3.77406805511721
N       -17.30036754955423  -10.03331583646864   -5.30203663647793
H       -16.52348850413468   -6.93066984748882   13.58628251494556
C       -15.46867691955202   -6.76800143366516   13.42703762147918