1368
 energy: -2198.239405913579 gnorm: 0.000650331401 xtb: 6.4.1 (23d549d)
Pd       10.50443809920952    1.34172594265671   17.18009229279764
Pd       18.50098332930805   -4.91558969445422    6.86978951907379
Pd       16.56380767889100    9.41264110073989    6.83289545085366
Pd        1.54556464141402  -10.29891405287713   17.33564890897992
Pd       -1.15954536195513   10.28900501467363   17.33073349902097
Pd        9.49610311840901  -16.52357549814912    7.01477295978164
Pd       18.33863417400678   -4.92138753129801   -7.82841435284032
Pd       16.43872104866658    9.41700902566880   -7.86482661093486
Pd        4.90779209356288   18.36002175469118    6.95738913236377
Pd       -4.84361959800333  -18.42555802699696    7.20986913542836
Pd      -10.12359014473019   -1.35649182359004   17.47662472198547
Pd       -9.41240698680458   16.45338208826649    7.19480072238323
Pd        9.35012763430515  -16.54609448001207   -7.69216109018126
Pd       -4.99692641912953  -18.45609931796131   -7.48771923419036
Pd        1.08294561156174  -10.34727648475561  -17.81981256398626
Pd      -16.68252000478149   -9.54818622903930   -7.29386891720401
Pd      -10.62316169752811   -1.46361116801067  -17.64052907160804
Pd       10.08655293429442    1.26178203810079  -17.98008749383565
Pd      -18.58408756378219    4.78259430159251   -7.28786207247003
Pd      -16.52567045316000   -9.50563839727200    7.39985931875689
Pd       -1.62630629519330   10.15289086837241  -17.80845161443174
Pd       -9.59058998479895   16.40248966679528   -7.50739582395973
Pd      -18.41784805011217    4.83411231391261    7.40929910396835
Pd        4.75481862882334   18.33038592448600   -7.73657030870170
H        -2.40309242214296  -17.85059290330672   13.41081673314776
C        -2.44935613369675  -16.78769127057406   13.23092946623438
C        -2.53788099010266  -14.05674311846903   12.84469975991271
C        -3.11061317451827  -16.28544205384720   12.11027840271579
C        -1.82829691730507  -15.93373886636339   14.13353326033446
C        -1.83159814187310  -14.54677871966408   13.95050497675853
C        -3.16547845562604  -14.90102509341732   11.94721051538833
H        -1.31663456476474  -16.37095468710520   14.97689104398937
H        -3.72454729243456  -14.47477331549099   11.12733388761964
H        -2.63656946619062  -12.99127442708632   12.69790118148155
C        -1.11050865790676  -13.60921082658984   14.84133503131868
N         0.28861477404898  -11.73673272690383   16.45179511537508
C        -0.92289973233148  -13.79615967903506   16.21644972853648
C        -0.54703167096425  -12.43264272608759   14.31864442655062
C         0.12260989203979  -11.54447742009146   15.13527845433490
C        -0.22839851529338  -12.85498859764962   16.97178449441615
H        -1.32546594493695  -14.66171920172137   16.72035282372641
H        -0.61664168722198  -12.21663613271700   13.26355445409923
H         0.55446145268319  -10.63116080562155   14.72052232538916
H        -0.09118228117928  -13.01508821412243   18.03653500591623
N        -3.71863760107829  -17.13973972273045   11.14817019928773
C        -4.29447027086194  -18.36186682891870   11.37712127865245
H        -4.36973741628691  -18.80937419970079   12.34794444520961
C        -4.74925742388775  -18.82052494094030   10.17385287532972
H        -5.26127881125736  -19.74601633710978    9.96103096703555
C        -3.84008214968202  -16.90111901514677    9.82089956811449
H        -3.45866033789002  -16.02224555148070    9.33417923585235
N        -4.45764298561096  -17.89822905889451    9.20485183819965
H         5.33764780224282   -5.77675796855676   20.67348332026399
C         5.65108433534183   -5.46447346513103   19.68950029798522
C         6.48847745972318   -4.58230871041744   17.21710024449417
C         5.23014463499618   -6.15951525114990   18.55432726799311
C         6.47450942400731   -4.34950452276519   19.58604199694576
C         6.90360143878925   -3.86368752322843   18.34575994162581
C         5.68096115004889   -5.70273039933664   17.31476016774367
H         6.75985086462303   -3.84515097122056   20.49641210534083
H         5.42308382942177   -6.23824959966274   16.41289450417957
H         6.83453649378076   -4.28861373437730   16.23655775220466
C         7.74000257690539   -2.64742178863732   18.19030877720746
N         9.34247615454924   -0.33203747650868   17.76365349699905
C         7.57375712267352   -1.80116983313341   17.08045823781143
C         8.73672838981421   -2.24463414265129   19.08922465832499
C         9.50175232444943   -1.10688366296095   18.84354399888197
C         8.37150864245296   -0.68608165346310   16.90861606979418
H         6.80275714418978   -2.00347956014338   16.35272973810186
H         8.94551252737780   -2.81788104198521   19.97987017826545
H        10.27307553878938   -0.81725216272813   19.55071296901606
H         8.22435569257434   -0.03358023846203   16.04647118193400
N         4.38430864082625   -7.30525227024655   18.64225847286950
C         4.30030004910962   -8.17225357960238   19.70118429895624
H         4.88822816081367   -8.08143044076735   20.59226226247383
C         3.38826833699023   -9.13081114698999   19.36513616281933
H         3.05937638775352   -9.97474078477509   19.95224332270368
C         3.52007674067112   -7.76648850490341   17.70578309236539
H         3.34216101726426   -7.27779484081627   16.76581010838640
N         2.89997999811347   -8.86693605637498   18.11241099267093
H        -7.97101867844532    4.41823978810293   20.23047555565669
C        -7.16191509524787    4.35564652732419   19.51935731595107
C        -5.07528455501560    4.28956666024262   17.72006050673671
C        -7.00815167400275    3.22565944707831   18.71435547875103
C        -6.28749350089331    5.43168511632284   19.42155059485433
C        -5.22851771974226    5.43884609301696   18.50653118041478
C        -5.93474965870235    3.20892744617641   17.82241393889644
H        -6.46106445760949    6.28414738523630   20.06010630615686
H        -5.74782852336034    2.33464354642333   17.21614116210642
H        -4.24174451223455    4.21361123893753   17.03681813543387
C        -4.30680069295285    6.58952435364645   18.33474323428487
N        -2.49036043206458    8.74162507433084   17.90889873010380
C        -3.77925522434813    6.90071110007053   17.06965482161181
C        -3.88737035058416    7.43764821623332   19.36827709174744
C        -2.99582301086719    8.47883279813361   19.11997265590417
C        -2.90055941228615    7.95381393835377   16.90348750068456
H        -4.07205683670825    6.32894411194818   16.20233049288214
H        -4.23232766719065    7.29156718308734   20.38072640272330
H        -2.67989278067144    9.11955369680556   19.93738280602219
H        -2.50470909512238    8.18698854290603   15.91325028992821
N        -7.89713919419633    2.11268236144689   18.79969871304398
C        -8.58499668492335    1.70817387998947   19.91438846475059
H        -8.51427654722946    2.19636375029971   20.86555754006870
C        -9.29950439505274    0.59846775706429   19.56515040233452
H        -9.95735685102065    0.00616622044501   20.18300659519369
C        -8.22125024233360    1.23925692036692   17.81587270346881
H        -7.85400800852265    1.31234907132566   16.80886812865534
N        -9.06827274601705    0.31232402247677   18.24526691566185
H        14.40401828231039    6.68874407692236   15.63858340453131
C        14.26899301776095    6.32362436229401   14.63233134880510
C        13.94973882442185    5.46684988687426   12.02893415675582
C        13.57689303409412    5.13632230096992   14.39283512882259
C        14.79101782682772    7.06960018491137   13.58252322870925
C        14.62568598269852    6.67216735172608   12.25246825901871
C        13.44546687175613    4.71022920888922   13.07049923679756
H        15.30917132396046    7.98689400371882   13.81637987094111
H        12.96376633368181    3.76911779434184   12.84878695216845
H        13.84628443070247    5.08902723135819   11.02173331211176
C        15.10624465180138    7.45909038912692   11.09320779817663
N        15.98474430711734    8.81027390921830    8.76161125415005
C        14.33475408576090    7.52107330093196    9.92121903479992
C        16.31757649050264    8.15888161399380   11.04807071635675
C        16.71686708432781    8.80414881932261    9.88079075450791
C        14.79649414417158    8.19151181599289    8.80654006001703
H        13.36101538625175    7.05692867723375    9.88672213234537
H        16.97261909440450    8.19182935065181   11.90552123902540
H        17.66467539846399    9.33296433828112    9.85503483785391
H        14.18804023299981    8.24451184059613    7.90226278558884
N        13.02334402617319    4.35625975114412   15.44624738174741
C        13.48117635945993    4.27048964535242   16.73527291022817
H        14.33581804400932    4.80445489322864   17.09942167850321
C        12.67338807955520    3.38438791927839   17.38843277680848
H        12.72723218908647    3.06406016820606   18.41740623902561
C        11.95520083864453    3.52748804162471   15.36404363850969
H        11.35649857809743    3.40720397882050   14.48007754044305
N        11.71598997080755    2.92919294708632   16.52141867391553
H         1.37384662276461   16.15911516806816   15.36755572400458
C         1.79850803606695   15.59860331106756   14.54911797182789
C         2.91578563562662   14.23268747792472   12.42728513865674
C         1.76767446007243   14.20421211391537   14.55210454044640
C         2.36647961323516   16.29587127544347   13.49031256723544
C         2.91661868556185   15.63281816500623   12.38804420710142
C         2.35939800186315   13.53267057347559   13.48202289556884
H         2.35275119828570   17.37416224577276   13.52682084625747
H         2.41139079017171   12.45385980849468   13.48276888178162
H         3.39454085540042   13.67146539047683   11.63841182375682
C         3.45782254586478   16.33749842993120   11.20351933700047
N         4.46579873259217   17.58917870663496    8.86371436099839
C         3.34591131466482   15.75961363593926    9.92730981191248
C         4.09482441508437   17.58419739999506   11.23576395569344
C         4.57367787738361   18.16642328058861   10.06506938605462
C         3.85281065391639   16.39767852400230    8.81379381679096
H         2.84465649089715   14.81243321240854    9.79950747001122
H         4.24219125757450   18.10991077614859   12.16693726205507
H         5.06447808964959   19.13364527534590   10.10716202138237
H         3.76491743083211   15.93880106832395    7.82658427034723
N         1.15810592713504   13.46553957037232   15.60476364608709
C         1.09156969819425   13.81664035925140   16.92749130261447
H         1.52553649427089   14.71194175593893   17.32569765586008
C         0.42625028589310   12.81404293949789   17.57337352032403
H         0.18675538557056   12.73819751371031   18.62264154793478
C         0.53107682358641   12.27075894788037   15.49289752126056
H         0.40343962531404   11.74737642850300   14.56306702398184
N         0.07751522231197   11.85087813714505   16.66468978608831
H        18.76585593675750   11.95354824743720    0.95436378729094
C        18.21346215295898   11.14277465455603    0.50530173840358
C        16.80963578823773    9.11763935176143   -0.72873799527357
C        17.59635024492594   10.17572383219758    1.30064629648068
C        18.12714655269163   11.09485508101527   -0.88119550472771
C        17.40790641891936   10.09099461706900   -1.53938153585137
C        16.90475313102982    9.15143212169495    0.65208121352833
H        18.61464334809574   11.87457658994842   -1.44598268304170
H        16.45389268727674    8.35440707725626    1.22507365985531
H        16.28874366074750    8.28707841258738   -1.18291210807393
C        17.24930333745948   10.03274675352429   -3.01408707326673
N        16.87449824461138    9.80854744522322   -5.82779411070363
C        16.05757793251665    9.55635791607433   -3.58684314915652
C        18.22887498145593   10.42086298604466   -3.93773363623266
C        18.00864385073917   10.29265914275169   -5.30715951196267
C        15.91389319301917    9.46262594837181   -4.95791108960047
H        15.22708940455168    9.27330190485261   -2.95826179496083
H        19.18091935725918   10.80812394712211   -3.60747760946142
H        18.78431155570221   10.59347022804645   -6.00481750317480
H        14.97933025816968    9.09927290354300   -5.38832903312631
N        17.67477192771594   10.20817609365332    2.72515310153585
C        18.69653676645846   10.73897520825455    3.46929454700076
H        19.56995360343298   11.18996448427794    3.04287283017291
C        18.38230293350296   10.54020745988106    4.78293949319825
H        18.94948518125545   10.82544335297650    5.65680226066479
C        16.77821381572779    9.71113025235414    3.61131190403159
H        15.84859543556819    9.25395083738340    3.32717973914002
N        17.17444405281679    9.89777645117516    4.86362318259739
H         5.12944907627707   21.68876804910607    1.09107896600153
C         5.22716437744576   20.71315099734458    0.64057430679842
C         5.45372799294907   18.26009195544218   -0.59535761796428
C         5.38051071428164   19.57545389687181    1.43459487078888
C         5.18584693529096   20.62118729614440   -0.74581676598728
C         5.28065051275246   19.39025929221016   -1.40514299436465
C         5.50861433920633   18.34661246137052    0.78535441572181
H         5.05276555476543   21.53189778081975   -1.30928026362993
H         5.67859238067340   17.44661744284185    1.35816953547630
H         5.59008710136507   17.28942941211310   -1.04989664695128
C         5.19035694926090   19.24510103231733   -2.87958146296875
N         5.02118895372534   18.84445398279324   -5.69472291637011
C         4.59719642993865   18.10651431505444   -3.45183238527946
C         5.67018921936270   20.18194620760502   -3.80458579899712
C         5.57050278468335   19.94848923643397   -5.17423993749962
C         4.53412738933318   17.94865213105782   -4.82294116265538
H         4.16272052883305   17.34484464122294   -2.82254472944636
H         6.14237497869915   21.09524555511472   -3.47554930296952
H         5.95482251769552   20.68569423201935   -5.87239864000196
H         4.06520828152986   17.06139542569415   -5.25229319978388
N         5.42494873520636   19.64980365594932    2.85903484327979
C         5.89197758637905   20.70280305206142    3.60216143945215
H         6.28898415856233   21.60132331263494    3.17419902170350
C         5.77431732156878   20.35075872735995    4.91610569208026
H         6.04562283885123   20.92510371428370    5.78905295020739
C         5.03795638240844   18.70126266764879    3.74563569861384
H         4.59902992058534   17.76278657866532    3.46116570653684
N         5.23468692709377   19.09412048311719    4.99776719100752
H        15.24270022980999    8.36480384562333  -14.46266943730727
C        14.78432301697129    7.45955110488010  -14.09579685628785
C        13.58206128165210    5.13115843448440  -13.23143838841061
C        14.85154856764525    7.12703396694957  -12.74292370693740
C        14.11796209611165    6.64038640302870  -14.99888347159331
C        13.47871540826593    5.46693015341518  -14.58680072090777
C        14.25659517008333    5.93420912636374  -12.33063053245425
H        14.08151084029844    6.94592249832108  -16.03315827206928
H        14.33804087236406    5.61578990924266  -11.30154189827668
H        13.15939586947376    4.20323741669423  -12.87406253911482
C        12.69786868443256    4.59778673019894  -15.49684873015664
N        11.17461331241934    2.83578859019578  -17.11543309737747
C        11.54362837683013    3.94826185408037  -15.02828252790970
C        13.02422347081411    4.34069812163863  -16.83378353728530
C        12.25322412996986    3.46561374231885  -17.59425573961980
C        10.83012962080162    3.09568690811149  -15.84626930570973
H        11.19099251211703    4.12271876828350  -14.02327952752059
H        13.88881529976957    4.79607208082565  -17.29260215794436
H        12.52388214487307    3.26855918071119  -18.62702360551209
H         9.93727773323615    2.59185223515659  -15.47206457643265
N        15.51021376559337    7.95439553699632  -11.79122573334383
C        16.58893292455457    8.76955238148337  -12.01433850013570
H        17.06871433334211    8.87206074220224  -12.96704015305649
C        16.90659580179113    9.34780885461910  -10.81874852810482
H        17.70028502999164   10.04653370587861  -10.60463646584426
C        15.20842827929598    8.06960556038158  -10.47613194503243
H        14.37958505670047    7.57261022393434  -10.00645842298466
N        16.03037358429745    8.90807503813068   -9.86261567706765
H         2.24704552583926   17.74242159931392  -13.89648321890964
C         2.32981221564099   16.67916634194592  -13.73222662429950
C         2.51753534294507   13.94758177505039  -13.38753719485302
C         3.03341169062453   16.18363216801150  -12.63476501074966
C         1.71323167649495   15.81737128401795  -14.63036647219805
C         1.76535082742775   14.42878058173852  -14.46684938305937
C         3.13871332329163   14.79988541561031  -12.49333223015091
H         1.16683246092907   16.24898395287276  -15.45454479068451
H         3.73264390388654   14.38213963652992  -11.69385193274184
H         2.65757110386047   12.88449123924745  -13.25953296289174
C         1.04653335875787   13.48164567930879  -15.34901167307371
N        -0.36640026131795   11.59910535430499  -16.93719979567863
C         0.55191029515637   12.27260375493840  -14.83110643437120
C         0.79401387488769   13.68925056613272  -16.71106701077014
C         0.09426728682696   12.74319186863048  -17.45498625236986
C        -0.12409354471738   11.37963540289103  -15.63708174557214
H         0.68019949246604   12.03237145826509  -13.78698340941584
H         1.14955062297179   14.57560016520907  -17.21421052620090
H        -0.09345618684467   12.92008971469542  -18.50944158588160
H        -0.48951016614730   10.43658308792636  -15.22711048199125
N         3.63347334009836   17.04387114350554  -11.67305308786035
C         4.18107256987130   18.27951043978410  -11.89786835337052
H         4.23822895591548   18.73495259655332  -12.86631457467710
C         4.63689252674181   18.73851382753644  -10.69504131899164
H         5.13116054730570   19.67313225841436  -10.47952647021149
C         3.77166730546298   16.79754742569613  -10.34897268760157
H         3.41466053563682   15.90597160427684   -9.86679154154744
N         4.37306837367028   17.80299444585463   -9.73061523226232
H         6.60263277539485   -3.50082961244750  -21.31876191205864
C         6.39906115618898   -3.89915868216252  -20.33696829457367
C         5.80637845056666   -4.97323538397669  -17.86949727401494
C         6.99002082141042   -3.33695934653395  -19.20393118882653
C         5.52859136537704   -4.97784070655260  -20.23386410944422
C         5.19138907184823   -5.53563709887345  -18.99553354489228
C         6.68706767131112   -3.90935156117954  -17.96735329755697
H         5.09320498495539   -5.36555237545603  -21.14199932761819
H         7.15982925773290   -3.54105482440070  -17.06874563938060
H         5.62848654880460   -5.39859135409385  -16.89229894972735
C         4.22604986573368   -6.65216868037207  -18.83880269011068
N         2.39341847624302   -8.78891291145256  -18.40869265252329
C         3.38074707562256   -6.71504349421887  -17.71773374068873
C         4.07393712108784   -7.70850682524810  -19.74686750924929
C         3.16864942401644   -8.73756982816312  -19.49884453594401
C         2.50366938420880   -7.76872342307526  -17.54483881682348
H         3.39349122012450   -5.92529946042307  -16.98212159480157
H         4.66886886635613   -7.75703817689566  -20.64640093925297
H         3.07253626422020   -9.54996560979248  -20.21281101448112
H         1.84636284532617   -7.79847614994526  -16.67443547065088
N         7.88419028472799   -2.22850084963131  -19.29144661217506
C         8.67800739766029   -1.90875663719993  -20.36273412432556
H         8.71877717722672   -2.48416352609162  -21.26559443007195
C         9.38268456646117   -0.79040681668808  -20.02161506525914
H        10.10181586941387   -0.24744948986263  -20.61595541465451
C         8.13297306521245   -1.29282791690438  -18.34311830856730
H         7.63700490054220   -1.26244974386630  -17.39063870682281
N         9.03193104399072   -0.40736858446100  -18.75367733191812
H        -6.70640231771758    6.63771866172523  -20.52726210734346
C        -6.43155854573246    5.86406010921450  -19.82714875047690
C        -5.81552387518443    3.84527494391073  -18.05503338822340
C        -5.28581592842478    5.99143279426483  -19.03999020634301
C        -7.25275548610467    4.74723439891199  -19.72521840530919
C        -6.97950621528929    3.71248839437425  -18.82336935099217
C        -4.98616429915879    4.94880441553726  -18.16181916800806
H        -8.13203948295484    4.70726971163367  -20.34958889917918
H        -4.08291275843324    4.98129643553879  -17.57025032298973
H        -5.52214533140961    3.05155160486334  -17.38323409410220
C        -7.85963556975604    2.53031159237809  -18.64709788408760
N        -9.47861237397031    0.22724094722653  -18.21471651352604
C        -8.00838365162730    1.93115955826393  -17.38440627667749
C        -8.59166053013251    1.91988386221628  -19.67423313618425
C        -9.37089308205697    0.79289281531326  -19.42294313009371
C        -8.80381600418468    0.81428722817467  -17.21492988824938
H        -7.51517342520233    2.35130778897644  -16.52120697503112
H        -8.55327797574602    2.29912723997814  -20.68422318418165
H        -9.92453063233773    0.33265871711063  -20.23551506234724
H        -8.91457235114454    0.36459628392273  -16.22657545118789
N        -4.43299760148683    7.13213102972940  -19.12943007432973
C        -4.23304969672337    7.91011439279924  -20.24027695384067
H        -4.70277067314759    7.72734703202699  -21.18578931821731
C        -3.33397361439274    8.87839323335412  -19.89654422696116
H        -2.93761176160668    9.67022857892920  -20.51350157003432
C        -3.65382191074891    7.65713206468878  -18.15326566028008
H        -3.61475441988546    7.27183550682368  -17.15104711296416
N        -2.97750695674593    8.71490033339323  -18.58385833015442
H        -3.11797612589490  -15.44311438777998  -16.25062468371489
C        -2.74300620331384  -15.26707182285812  -15.25434727964855
C        -1.84161657026217  -14.86664172223152  -12.67742370670226
C        -1.72630829399417  -14.33853418191276  -15.03162045988601
C        -3.30291574622652  -15.97786758508164  -14.19992395645713
C        -2.88363224489484  -15.77948812945188  -12.88070747603343
C        -1.26986376670571  -14.16751402597843  -13.72424742844270
H        -4.09575956711141  -16.67595138067999  -14.42010159663251
H        -0.44562239506576  -13.49930888465261  -13.52137099328587
H        -1.43912073113860  -14.72295671413028  -11.68507577928207
C        -3.49544546883852  -16.46140015329007  -11.71702259629239
N        -4.56394592983512  -17.69171054327305   -9.39532423752268
C        -3.62568929850809  -15.78288524722981  -10.49378407417013
C        -3.96367720900358  -17.78081099320655  -11.71844730549573
C        -4.47750791877215  -18.35021871389187  -10.55646881624673
C        -4.14868612506074  -16.41716084650783   -9.38496991588972
H        -3.33209248495074  -14.74756365950080  -10.41167339490508
H        -3.91506605890910  -18.38708132389088  -12.61032593861122
H        -4.82829356308441  -19.37757059690622  -10.57030461770957
H        -4.24198708505171  -15.88332294324131   -8.43768447634566
N        -1.14558737184105  -13.58340718388062  -16.08837257078221
C        -1.00099427340350  -13.97117725845023  -17.39480797855461
H        -1.32224113930598  -14.92170322716436  -17.77109152517394
C        -0.36604040441223  -12.95257488033611  -18.04583978731532
H        -0.08083402949446  -12.89892582966167  -19.08501465716059
C        -0.60115401652913  -12.34703983388850  -15.99333436754614
H        -0.59641521340795  -11.76290899152984  -15.09151209869714
N        -0.12646755679835  -11.93615210722082  -17.15983852840987
H       -14.44017596156593   -6.85978480347642  -16.08388260488827
C       -14.33367410558867   -6.47412386887749  -15.08190336116897
C       -14.09195548267805   -5.56081852660527  -12.48949169212485
C       -13.67571857458706   -5.26592736547832  -14.85106478637712
C       -14.85768108257623   -7.21385113506649  -14.02884297803573
C       -14.73046458033403   -6.78825440792586  -12.70306933402221
C       -13.58395044146256   -4.81197698876905  -13.53473567346552
H       -15.34759719110738   -8.14807250261965  -14.25619109305108
H       -13.13034643983186   -3.85527153999992  -13.32114854202283
H       -14.02144890753836   -5.15977874146180  -11.48856688421118
C       -15.21253850894974   -7.56936263614472  -11.54083757512590
N       -16.09515715741784   -8.92571537988497   -9.21305736205905
C       -16.39014214557588   -8.32594997049026  -11.51884351504412
C       -14.47829762983941   -7.57049679344969  -10.34324957453486
C       -14.94157027111706   -8.24333203563717   -9.23068964715942
C       -16.79194927487168   -8.97325184168422  -10.35368578635980
H       -17.01791188923157   -8.40304981289842  -12.39368592806159
H       -13.53108061101957   -7.05648769742982  -10.28553358922263
H       -14.36342222411731   -8.24509592500668   -8.30500134099219
H       -17.71212461129304   -9.54938396151435  -10.34789824118954
N       -13.11689068116950   -4.49385842687667  -15.90737581964476
C       -13.55009919235586   -4.44020458629957  -17.20665498493975
H       -14.38976768878564   -4.99369194626950  -17.57648300961511
C       -12.74440779322483   -3.55261701627255  -17.86042902209363
H       -12.78367357499210   -3.25093770259615  -18.89571419517071
C       -12.06483153342308   -3.64518176186811  -15.81980576770978
H       -11.48534994381275   -3.49898718235731  -14.92689660771317
N       -11.81207350221287   -3.06525346592753  -16.98362850916827
H        -6.97955356469438  -21.12766937669318   -1.59889221786758
C        -6.25642874100482  -20.45931787581506   -1.15772488648575
C        -4.44032749166504  -18.77758768606079    0.05360673961287
C        -5.40718417854481  -19.69975595026903   -1.96400305893777
C        -6.20043424343433  -20.37065491889606    0.22810555244271
C        -5.30463143081988  -19.51225351845820    0.87630492886184
C        -4.48425416518464  -18.86891174356834   -1.32722998328886
H        -6.88920945716729  -20.97201768833878    0.80108630352226
H        -3.77112616881408  -18.30517333391544   -1.91066744638088
H        -3.68346035222790  -18.14660725850300    0.49613068409976
C        -5.25837945615283  -19.34763814960111    2.35061339295156
N        -5.11646621069325  -18.93558548104732    5.16738145974054
C        -4.90996798206704  -18.11216482496775    2.92342456190266
C        -5.54231451739990  -20.36048184249737    3.27698001564125
C        -5.46203775895003  -20.11957663378082    4.64656464417790
C        -4.84669234194417  -17.95363574648293    4.29442261772612
H        -4.70036266428650  -17.25983671756542    2.29541678182028
H        -5.80985711567699  -21.35369695162273    2.94941657939433
H        -5.68558650932023  -20.92058127922562    5.34449926722230
H        -4.56262744811873  -16.99033052318948    4.72052718278267
N        -5.45862481762515  -19.77015342089827   -3.38823393945900
C        -5.81836572976578  -20.86251914117774   -4.13415645219420
H        -6.08865583816280  -21.80834798860331   -3.70921557184233
C        -5.71809465002898  -20.50262449110785   -5.44738268635888
H        -5.92324101285950  -21.10174430334204   -6.32167318849318
C        -5.15698683323219  -18.78886848812542   -4.27241547718560
H        -4.86129654548533  -17.79720214833847   -3.98335902498724
N        -5.30772411703224  -19.19769794775173   -5.52584154125733
H       -18.87168281057349  -12.08187422885182   -1.40400899694105
C       -18.32095722718522  -11.26715177161986   -0.96000347219294
C       -16.92093175875583   -9.23131905755894    0.26087728466450
C       -17.70909501719193  -10.30186957028002   -1.76154807180474
C       -18.23120383171873  -11.21234843320230    0.42604698584612
C       -17.51369597474060  -10.20291068035908    1.07767210700290
C       -17.01946109445674   -9.27208568826529   -1.11954941331682
H       -18.71447400851046  -11.99110624972808    0.99578205829365
H       -16.57323988315682   -8.47594540509743   -1.69741299137950
H       -16.40192220915962   -8.39670694831348    0.70977769189410
C       -17.35124293681600  -10.13717174409128    2.55171255190519
N       -16.96881602547848   -9.89948815911092    5.36355500348944
C       -18.32764678688575  -10.52236989820356    3.47996763810774
C       -16.15886675700480   -9.65591324945090    3.11903461607653
C       -16.01143142837607   -9.55573295257919    4.48929295321685
C       -18.10374835616088  -10.38750226025119    4.84814651934071
H       -19.28009963571342  -10.91235648499157    3.15408797169194
H       -15.33070727807251   -9.37408542796413    2.48683126934035
H       -15.07635086224519   -9.18864382877400    4.91526029936023
H       -18.87720327890776  -10.68596360518583    5.54926531654556
N       -17.79110534010329  -10.34104827548790   -3.18564702289345
C       -18.81533163872953  -10.87371580749199   -3.92508809307313
H       -19.68812302356485  -11.32211155252839   -3.49465059752075
C       -18.50435188994587  -10.68055585664285   -5.24040354050625
H       -19.07485928480209  -10.96734103183308   -6.11124584101736
C       -16.89638718706929   -9.84855450395209   -4.07616524407537
H       -15.96486468804754   -9.39268885942691   -3.79567252408362
N       -17.29613428228657  -10.03997759154844   -5.32685157550868
H       -16.55919823712307   -6.91501785036733   13.55395354011955
C       -15.50295264709172   -6.75656065302910   13.40016527755626