1368
 energy: -2198.238998453130 gnorm: 0.000864343574 xtb: 6.4.1 (23d549d)
Pd       10.49651580177387    1.33738854163806   17.18405383828141
Pd       18.50653746098709   -4.92014603396347    6.89466893666092
Pd       16.57817704348388    9.40711587845011    6.83973515824989
Pd        1.52381954374189  -10.29727744818162   17.32183507611925
Pd       -1.18674418929146   10.24519392106395   17.32100372224882
Pd        9.49999360989026  -16.53014125526293    7.01951156223482
Pd       18.30471612692148   -4.93262263312896   -7.81835848251753
Pd       16.46734301254814    9.40657456253091   -7.86931183801674
Pd        4.91508757156685   18.34281595476030    6.98487058685312
Pd       -4.83660122111031  -18.42115124463442    7.17323269519502
Pd      -10.15918002069722   -1.39381744291381   17.48707578742740
Pd       -9.42355350537445   16.46187408111472    7.19236362345251
Pd        9.33974836374909  -16.57470234544345   -7.69460773094534
Pd       -5.00467156023375  -18.44512594912612   -7.53889747953999
Pd        1.10808782093694  -10.35775409604899  -17.83837187444236
Pd      -16.70054259253838   -9.55082108891175   -7.36748648193508
Pd      -10.57650867011218   -1.44685362118139  -17.66833102474062
Pd       10.10573167147177    1.25807571057710  -17.98161773118818
Pd      -18.53111369976327    4.78940641069016   -7.33090579218230
Pd      -16.51262496530430   -9.49035866680522    7.33686484011336
Pd       -1.57919448318144   10.17006724380070  -17.83328277013024
Pd       -9.56278530875403   16.43315101888165   -7.50895092999328
Pd      -18.41322577139237    4.83677450504621    7.37930701165582
Pd        4.77777836198639   18.31633114748586   -7.71969272374026
H        -2.40672192634873  -17.85281039505155   13.38013535823102
C        -2.45215262864269  -16.78981410397812   13.20054222590812
C        -2.53829970510255  -14.05871414684828   12.81500407937329
C        -3.11068244058201  -16.28686455278183   12.07859680627210
C        -1.83286440584411  -15.93646425724914   14.10497911357677
C        -1.83532614110868  -14.54941032002807   13.92261701738388
C        -3.16415421522198  -14.90237511545267   11.91570249841088
H        -1.32334197401425  -16.37429895693338   14.94931806182464
H        -3.72083926270403  -14.47545716494089   11.09455423591701
H        -2.63587602581618  -12.99316498250724   12.66806290296211
C        -1.11741256620286  -13.61200755044884   14.81626745645844
N         0.27413320635781  -11.73899928859395   16.43288590030714
C        -0.93488843055100  -13.79926814669846   16.19201096854149
C        -0.55246371753135  -12.43501385858523   14.29614064379216
C         0.11332974741218  -11.54662517760872   15.11569219420140
C        -0.24409931138646  -12.85779173866437   16.95041654541248
H        -1.33843712598807  -14.66545788152900   16.69403233800363
H        -0.61763454653771  -12.21885643231589   13.24079008488668
H         0.54606262882409  -10.63284989190324   14.70279780555939
H        -0.11162714833336  -13.01782121945008   18.01575095601638
N        -3.71751960670039  -17.14038117039714   11.11500663743521
C        -4.29485417819204  -18.36212086838311   11.34233134291006
H        -4.37220440924347  -18.81004089561278   12.31280364027549
C        -4.74798535480430  -18.81976707974766   10.13805156589338
H        -5.26050357858030  -19.74467749164257    9.92402961592150
C        -3.83642831097631  -16.90103462326054    9.78763953589210
H        -3.45334982999415  -16.02228913968930    9.30199536038881
N        -4.45387536693449  -17.89724400081322    9.17002651572815
H         5.31683733275364   -5.77513467463118   20.66775913143925
C         5.62887513932618   -5.46215083933266   19.68352261784805
C         6.46396964886842   -4.57616508435743   17.21164454881125
C         5.20338066337198   -6.15348643877048   18.54745287296163
C         6.45619591852780   -4.34997584092696   19.58133108920319
C         6.88420086618214   -3.86211602142708   18.34136681593143
C         5.65330879590647   -5.69451690629530   17.30809983224497
H         6.74558447050573   -3.84926395757617   20.49251110622472
H         5.39182156323507   -6.22589813172375   16.40479014177023
H         6.80797393142086   -4.28040194954687   16.23091040697394
C         7.72439044952007   -2.64811623096319   18.18801753295970
N         9.33286262034252   -0.33606251555499   17.76637415790392
C         7.55618666481718   -1.79568958748806   17.08318346194459
C         8.72654323423155   -2.25352700316322   19.08454692652449
C         9.49450614688970   -1.11719569536594   18.84137394844775
C         8.35681271748551   -0.68227824696066   16.91378635106409
H         6.78117998878284   -1.99162327985583   16.35790256144013
H         8.93740712209238   -2.83227142384408   19.97117316913356
H        10.26979884865456   -0.83381255129507   19.54673672510046
H         8.20814980038142   -0.02470953735113   16.05566721714461
N         4.35385266123351   -7.29667788693617   18.63467168985557
C         4.25309797713557   -8.15286530576333   19.70108788022016
H         4.82884301374841   -8.05535981095993   20.59935885318486
C         3.34285459582617   -9.11227939516028   19.36261125153417
H         3.00393790376122   -9.94956676904043   19.95366268554492
C         3.50066589396333   -7.76512030246523   17.69138688265259
H         3.33616465211374   -7.28641274196558   16.74375392879777
N         2.87234048106606   -8.85990705463713   18.10079447982345
H        -4.81338308486288    5.68139988209874   20.77473506654966
C        -5.18591623058450    5.38784798715921   19.80564228283112
C        -6.17564979603358    4.55780303507877   17.37153746746293
C        -4.83405779443234    6.10552609175861   18.66112104607680
C        -6.01530750561039    4.27515565503345   19.72975453299739
C        -6.52035531332240    3.81502138125384   18.50830228292382
C        -5.36138800142134    5.67544637307899   17.44245997008243
H        -6.24549160613994    3.75247072191721   20.64535257414069
H        -5.15856227747881    6.23033051107460   16.53821295402860
H        -6.58312106495122    4.28586010218565   16.40858938066525
C        -7.36418226158131    2.60054738808433   18.38082181635071
N        -8.98011482337809    0.28394487833929   18.01563550071847
C        -7.27351875674543    1.78122083322612   17.24237304010875
C        -8.29519823800898    2.17265605533123   19.33692118818530
C        -9.06865920915408    1.03475302480750   19.12045594299882
C        -8.07612124005476    0.66525009571806   17.10120845141740
H        -6.55775802798319    2.00525519718549   16.46621693039822
H        -8.44641821673721    2.72636821970910   20.25123448393424
H        -9.78713862778886    0.72412842721040   19.87313291205948
H        -7.99027341790835    0.03574207565747   16.21417634597231
N        -3.98078003662425    7.24770326955617   18.72075445432676
C        -3.84221727074595    8.10182391467939   19.78422591696135
H        -4.38840937232878    8.00326104523643   20.70072996329500
C        -2.94259288602589    9.06023491225263   19.41556216277218
H        -2.58177310741459    9.89585562370732   19.99591910119992
C        -3.15998008285902    7.71551824350883   17.74928947121733
H        -3.03125636506540    7.23703321154904   16.79602992423875
N        -2.51521012022270    8.80816212935633   18.13836522435584
H        14.40687361031717    6.67923068396291   15.64241277691844
C        14.27007626222272    6.31554078422164   14.63589746953763
C        13.94695292620867    5.46307590064940   12.03179360602915
C        13.57389419147864    5.13072749353366   14.39560988483463
C        14.79438455703198    7.06087744515253   13.58676975844842
C        14.62759780149043    6.66562954315140   12.25621171513102
C        13.44029528736286    4.70704023846826   13.07269124026767
H        15.31569145730614    7.97611679525822   13.82167055891334
H        12.95478200698208    3.76818391909074   12.84973370530125
H        13.84160204346056    5.08659548273845   11.02429428453622
C        15.11161943194301    7.45210289445669   11.09794814912198
N        15.99695994062285    8.80380330913446    8.76875600979164
C        14.34277540672996    7.51597718410536    9.92427102210676
C        16.32404076476334    8.15024886039248   11.05547642658107
C        16.72667893532306    8.79585736864657    9.88944572527790
C        14.80778265930513    8.18648973173665    8.81095629049805
H        13.36846045518060    7.05322357326330    9.88719821291195
H        16.97748845598018    8.18195368021837   11.91418326784308
H        17.67513003005033    9.32356615054911    9.86613303721254
H        14.20118256028049    8.24073981783696    7.90546624327685
N        13.01908574349154    4.35112949149084   15.44880512361530
C        13.47647300229411    4.26581996504190   16.73811220834737
H        14.33113273363801    4.79960786525241   17.10241801877118
C        12.66819549652872    3.38045546746118   17.39152861673027
H        12.72208927939488    3.06062486956583   18.42061595097622
C        11.95058912706262    3.52270026289320   15.36699410818431
H        11.35214719254119    3.40181107555646   14.48296034129088
N        11.71063129178432    2.92511702132086   16.52460194144834
H         4.31211450054835   16.98134436864287   13.60721512182200
C         3.54662531535041   16.30443717701250   13.26096314047861
C         1.58489421091764   14.54122033929077   12.45139239844290
C         3.18763504566277   16.26716251799346   11.91357576554033
C         2.93610318313189   15.46579424400765   14.18528712502115
C         1.95583828840660   14.54529628289832   13.80144562126043
C         2.17800640132649   15.38393733921554   11.52959805405807
H         3.25652692668427   15.52243253818070   15.21411520811981
H         1.83386156884434   15.36622780030680   10.50588250758243
H         0.78870742565663   13.89295369951321   12.11489454538275
C         1.32663926795325   13.58407075244660   14.73620914764189
N         0.03802120123207   11.68895446827080   16.40813449770749
C         0.98100647412378   12.29646542925163   14.29318525344013
C         1.01907465870124   13.85503488576422   16.07489973755978
C         0.38231277637874   12.89924015334808   16.86197622453740
C         0.35219876231293   11.40293189244682   15.13669863335171
H         1.21966434916569   11.98430265944833   13.28797624266924
H         1.24823098078690   14.81377964228557   16.51496673093391
H         0.14216720062056   13.12696313319253   17.89593000293319
H         0.08335369248783   10.40643777473121   14.78204756320431
N         3.80737193896418   17.10140455732111   10.94176990489695
C         4.33756446074455   18.34875362964367   11.14535727843826
H         4.33654140123571   18.84687475644515   12.09408259666905
C         4.79673579016620   18.78985778661609    9.93744161837184
H         5.27621615854293   19.72846378099528    9.70669852454638
C         3.96757088950628   16.82792779879248    9.62495092067749
H         3.68101622872054   15.89900737752064    9.16715686847619
N         4.56676136383224   17.82583692586677    8.99239880958897
H        18.70357289667191   11.98749309667501    0.95590929168972
C        18.18499732210388   11.15427572478517    0.50746860338070
C        16.87203086666533    9.06714267609149   -0.72319402381991
C        17.61013460812641   10.16286740664355    1.30427854476657
C        18.09872661697752   11.10141491858086   -0.87880744928262
C        17.42414955444742   10.06597405154263   -1.53599505083185
C        16.96465619469048    9.10791999437355    0.65763069548563
H        18.55120762607823   11.90138767514170   -1.44430822557523
H        16.55033368666970    8.29280494402754    1.23282497971433
H        16.39096992284079    8.21173145803062   -1.17479552369830
C        17.26608189078596   10.00291192262316   -3.01055765587907
N        16.89075368208363    9.78783955805847   -5.82688222946951
C        16.11056797721895    9.44539558410529   -3.58454797454210
C        18.21254683269943   10.46538404435564   -3.93500412689200
C        17.99281930449731   10.34085792932880   -5.30469125129021
C        15.96695969472476    9.35549730532370   -4.95595153220653
H        15.30659842041005    9.09229762073690   -2.95701401336393
H        19.13968671615574   10.90941642230953   -3.60540844776287
H        18.74202063181760   10.70370388924961   -6.00186485539520
H        15.06596738373117    8.91429144157002   -5.38397059996868
N        17.68614035021123   10.20170730428660    2.72883471606555
C        18.69735807690490   10.75333106170316    3.47195741088687
H        19.56337180063394   11.21713577752011    3.04401479678500
C        18.38465996003863   10.55412482801632    4.78596464060662
H        18.94680911077006   10.85061773597015    5.65925520979136
C        16.79715081857065    9.69231862882906    3.61544209925076
H        15.87675105055553    9.21715042894215    3.33062693215746
N        17.18775630600814    9.89153034168522    4.86768896896013
H         6.80936929133133   21.05815615265482   -1.87983454251501
C         6.11889939618815   20.36810083019897   -1.41990414559483
C         4.38624789364607   18.63129086359892   -0.16387647745356
C         5.27850790433264   19.57691179459333   -2.20440799115393
C         6.09577075155721   20.28296265385120   -0.03277174573402
C         5.24189590658744   19.39903902920197    0.63760942660750
C         4.39887313771525   18.71697428713853   -1.54561526244400
H         6.77711149011028   20.90856724577707    0.52288489941379
H         3.69466211634075   18.12567974240083   -2.11265968234055
H         3.66030479346712   17.97722106004177    0.29653167627658
C         5.22767581334287   19.24214609694781    2.11348429307341
N         5.14126664302606   18.84555424733803    4.93507035017389
C         4.91705268728050   18.00300111696540    2.69993398766861
C         5.50532477878218   20.26663167509752    3.02899086880861
C         5.45347067951642   20.03298915786944    4.40125732102745
C         4.87902033372458   17.85236670470369    4.07267173166126
H         4.71698179281786   17.14150563436210    2.08151486257237
H         5.74647741085813   21.26316723580477    2.69122773214634
H         5.67212404976176   20.84299919388544    5.09026392981435
H         4.62198863995056   16.88598957804297    4.50848413845848
N         5.29088745402223   19.64631375010799   -3.62966296688970
C         5.55782351151044   20.75852860163812   -4.38472213457764
H         5.78454293962399   21.71861138145402   -3.96618085222441
C         5.43778659197926   20.39228808454916   -5.69456978426519
H         5.56862755914817   21.00505434979078   -6.57388071097292
C         5.02344147428421   18.64732192272820   -4.50468067924902
H         4.80483042271819   17.63842611805580   -4.20678901005839
N         5.10786524119536   19.06390766948792   -5.76173274807195
H        15.24851498544560    8.37725340043501  -14.46803866444628
C        14.79763109985518    7.46817009867494  -14.10140813024154
C        13.61520202581457    5.12924150285909  -13.23902976904606
C        14.87507391187662    7.13171064035851  -12.74991090214981
C        14.13101435483188    6.64815482233985  -15.00363184046819
C        13.50111356416143    5.46922593705578  -14.59247359511826
C        14.29008723572642    5.93326628184789  -12.33929453466692
H        14.08699501871625    6.95721530845373  -16.03656278796453
H        14.37949421085376    5.61012250336308  -11.31245735617824
H        13.20134777487345    4.19711609006575  -12.88234369294406
C        12.71963401224507    4.59845428032879  -15.50062682981619
N        11.19551654937598    2.83295661624814  -17.11580094057128
C        11.57321263260355    3.93905493536174  -15.02655757796113
C        13.03759034387311    4.34875564758430  -16.84104142888649
C        12.26656506375290    3.47197461258049  -17.59954042994019
C        10.85933173266809    3.08510552449293  -15.84284857652349
H        11.22692710870736    4.10652057606658  -14.01817093928203
H        13.89588386735474    4.81136490527396  -17.30441707534542
H        12.53083042560490    3.28135189600591  -18.63511814719952
H         9.97308833336719    2.57341876958914  -15.46370996930526
N        15.53348055526981    7.96014415316031  -11.79879797658237
C        16.60011588342140    8.79037495231159  -12.02595688571951
H        17.07067425188178    8.90468518955997  -12.98186470756466
C        16.92195088857126    9.36447138272086  -10.82940729199812
H        17.70760339695124   10.07257058217044  -10.61713178984999
C        15.24250407505339    8.06355088476964  -10.48009094397409
H        14.42491318683680    7.55200311555539  -10.00610987132860
N        16.05996141696534    8.90800595038114   -9.86860778416540
H         2.64483823830926   15.29879298635115  -16.42828781351861
C         2.31631455548843   15.11330145040970  -15.41744827141645
C         1.53837087605649   14.68645807695171  -12.80468669168422
C         1.32483294273581   14.16815715864460  -15.15426526080110
C         2.91069000975795   15.82949424672853  -14.38568550202601
C         2.55331513801184   15.61896866529062  -13.05043647306866
C         0.93127995573627   13.98303002980222  -13.82843379402662
H         3.68163858377746   16.54141023469041  -14.63724170700829
H         0.12865678850812   13.29987435793748  -13.59165376572282
H         1.18546905048454   14.53109961730064  -11.79528241618042
C         3.19900461011833   16.30896794525490  -11.91002888356434
N         4.31188748702000   17.55724851009672   -9.62101040975166
C         3.40759159735651   15.62288761461527  -10.70211114219183
C         3.62419956906508   17.64264675089463  -11.91924934430005
C         4.16132095260459   18.22083544092212  -10.77223783860918
C         3.95231468162892   16.26592313002477   -9.60905327476523
H         3.15841836055680   14.57596201967508  -10.62101561806620
H         3.52344215131128   18.25231568472512  -12.80442706821939
H         4.47946060645042   19.25864439197598  -10.79055868867205
H         4.11688252850955   15.72539230493489   -8.67514999800514
N         0.70654605609505   13.41102346216524  -16.18809022416410
C         0.50600144303469   13.80090842332864  -17.48650386836339
H         0.80719703398448   14.75349011238211  -17.87393421715170
C        -0.15050806351210   12.78073988344118  -18.11317717460204
H        -0.47792530693488   12.72819551604477  -19.13989260462015
C         0.17264890626636   12.17168781759850  -16.07376173621632
H         0.20823482195636   11.58481980069222  -15.17446878193427
N        -0.34837844172201   11.76121888521947  -17.22047014557499
H         6.63212870475534   -3.50886943119573  -21.32426715083003
C         6.42601427306156   -3.90678738444972  -20.34281645713764
C         5.82752000773616   -4.97986795490313  -17.87635649249367
C         7.01306967830220   -3.34312498418061  -19.20848695266930
C         5.55625949399638   -4.98624706542955  -20.24144755294763
C         5.21626664484999   -5.54378719300407  -19.00371771203850
C         6.70704139359984   -3.91484877491059  -17.97238249471399
H         5.12382144182740   -5.37488473933010  -21.15059528783640
H         7.17662041995929   -3.54507076696531  -17.07270043229155
H         5.64766690288543   -5.40486446283767  -16.89937727264020
C         4.25195054804908   -6.66151422287888  -18.84877047181096
N         2.42085266809998   -8.80040132418910  -18.42190017143521
C         3.40648209079386   -6.72676551588739  -17.72791861716355
C         4.10082190341060   -7.71683854560708  -19.75823222937622
C         3.19612373470143   -8.74684646328182  -19.51191490493148
C         2.53041258888882   -7.78150670628325  -17.55645917404381
H         3.41832249943235   -5.93807431729203  -16.99118201069181
H         4.69595900777834   -7.76386221108497  -20.65771102077032
H         3.10039168217059   -9.55811322915273  -20.22723026021530
H         1.87359735910649   -7.81347078985946  -16.68575506704051
N         7.90708976571168   -2.23433904645924  -19.29416020557355
C         8.70835565361782   -1.91896053041130  -20.36117890874338
H         8.75473757163651   -2.49781444701783  -21.26157217186558
C         9.41130516020580   -0.79972737227920  -20.01937355215159
H        10.13545551924769   -0.25975011301045  -20.61036716307818
C         8.14970975352403   -1.29523231801831  -18.34764181041366
H         7.64682900525087   -1.26072187540246  -17.39892149768730
N         9.05190329780878   -0.41171812195075  -18.75535714424299
H        -7.19739189609141    3.30248812916842  -21.12581495911833
C        -6.96439363878419    3.70584334683721  -20.15265006896086
C        -6.29807877610789    4.79196499922049  -17.70937760114311
C        -7.52027578259681    3.14869252584457  -18.99957874549340
C        -6.09202518747277    4.78549680983309  -20.08108427695118
C        -5.71820976727910    5.34965530978905  -18.85620699117694
C        -7.18020147826935    3.72674505944177  -17.77540166089688
H        -5.68450372906257    5.16903594837955  -21.00379370629098
H        -7.62481770656535    3.36184478485957  -16.86115006219434
H        -6.09097824184732    5.22198847325302  -16.74001489072468
C        -4.75011477377764    6.46825237297717  -18.73464422165213
N        -2.90833788882145    8.60977674342562  -18.37250549635099
C        -3.87267094313969    6.53962014979716  -17.63908201272416
C        -4.62580807243969    7.51863570156460  -19.65376963834806
C        -3.71478086830924    8.55020613978973  -19.43930123909472
C        -2.99235692843548    7.59546853071387  -17.49884292977851
H        -3.86292994792514    5.75488300054241  -16.89808861351170
H        -5.24674793137774    7.56063027361701  -20.53588104574114
H        -3.64021338964203    9.35761123479088  -20.16143655863580
H        -2.31038506634746    7.63214878757618  -16.64786634914841
N        -8.41651453071839    2.03980132936150  -19.05542225375382
C        -9.24583378355426    1.71939956157083  -20.09922851927605
H        -9.31702581242790    2.29465045238166  -21.00030326827302
C        -9.93852222417250    0.60118254632068  -19.73399671566379
H       -10.67760189076332    0.05810161677433  -20.30325402115155
C        -8.63297332783685    1.10467178987065  -18.09875375483221
H        -8.10520280937613    1.07469382279465  -17.16349270828445
N        -9.54506393105149    0.21882590817444  -18.47844658447286
H        -3.02527245570789  -15.53713280083362  -16.32869400198269
C        -2.70081225344400  -15.32424956567228  -15.32197886376585
C        -1.93846007244146  -14.82573282268297  -12.71754237073792
C        -1.73452187477912  -14.34839365526389  -15.07694163824806
C        -3.27605478216279  -16.03736675527563  -14.27712109486064
C        -2.92588508532979  -15.79132740014419  -12.94627992201227
C        -1.34827485884899  -14.12701572109648  -13.75439163386491
H        -4.02720424122057  -16.77475155096250  -14.51509845244097
H        -0.56510514017258  -13.41798194498766  -13.52901589034472
H        -1.59358603454594  -14.63986038957896  -11.71037829009214
C        -3.54994465619510  -16.47671404728003  -11.79078074715455
N        -4.60229178490917  -17.70917465241572   -9.46535594715327
C        -3.80093098785539  -15.76389698964540  -10.60691839708892
C        -3.90856230606180  -17.82929455169567  -11.76029179996967
C        -4.41600588559372  -18.39917911968729  -10.59558438811466
C        -4.31656733117896  -16.39978719408951   -9.49568290904487
H        -3.60794274612351  -14.70308899999250  -10.56008741904661
H        -3.77753100011842  -18.45873877287350  -12.62749408206076
H        -4.67900203505355  -19.45234963535564  -10.58157121850174
H        -4.51845680840956  -15.83798473322397   -8.58214888199251
N        -1.13384488456274  -13.59660180083224  -16.12520114983307
C        -0.94162899413680  -13.99955829091847  -17.42103612338745
H        -1.23760729778309  -14.95889452704290  -17.79543794264444
C        -0.30116508530644  -12.98060202048124  -18.06587113800062
H         0.01467279876481  -12.93619990702040  -19.09670707985796
C        -0.61106063823865  -12.35068802341782  -16.03084100170457
H        -0.64388625656574  -11.75276271522673  -15.13886108722734
N        -0.10430494084963  -11.94892286327295  -17.18692285731517
H       -15.63823235800466   -8.54108160932790  -13.99572231629215
C       -15.17619586427071   -7.63184556327231  -13.64365354225211
C       -13.96637709181009   -5.29322729580590  -12.81917221240779
C       -15.21882914234143   -7.29069736227172  -12.29177153205059
C       -14.53068204859893   -6.81642859737400  -14.56513446820658
C       -13.88794589446034   -5.63762122358192  -14.17401093718584
C       -14.62023906414334   -6.09268305918500  -11.89996631480205
H       -14.51344408702979   -7.12906758974092  -15.59778220284077
H       -14.68242047632435   -5.76626478802387  -10.87214302707112
H       -13.54097044689767   -4.36118571598596  -12.47608243227772
C       -13.12853535101712   -4.77173108736311  -15.10529905415686
N       -11.64335625882660   -3.01664671850890  -16.76716525783091
C       -11.96815162477240   -4.11385289042896  -14.66439412648415
C       -13.48175514086090   -4.52583718588525  -16.43758750063921
C       -12.72893193642352   -3.65407431243127  -17.21966953229904
C       -11.27388336088253   -3.26505876103858  -15.50277273010584
H       -11.59557622078601   -4.27851749025097  -13.66495558813820
H       -14.35350033269178   -4.98766552963996  -16.87593274132583
H       -13.02027647446551   -3.46616714923408  -18.24848055078387
H       -10.37626529447973   -2.75466242990953  -15.14963622445257
N       -15.85617267360184   -8.11406853433980  -11.32208569121010
C       -16.93184641248476   -8.94006105735873  -11.52058423651440
H       -17.42638838634737   -9.05443884824598  -12.46429387102271
C       -17.22625939337139   -9.50993551273426  -10.31503751003588
H       -18.00954217721477  -10.21403810014969  -10.08163946781924
C       -15.53292491844144   -8.21573697351747  -10.01076855864780
H       -14.70154059436105   -7.70673356160664   -9.55855240587093
N       -16.33860328239210   -9.05505399097825   -9.37704194585479
H        -6.90309528111788  -21.15870933319017   -1.64648454311059
C        -6.20356218172103  -20.46761978626476   -1.20207982688762
C        -4.44588842924570  -18.72846753694659    0.01505239009879
C        -5.37778869110669  -19.67954504059519   -2.00501445118890
C        -6.15402957687179  -20.37800514420147    0.18405131137124
C        -5.28686414038133  -19.49266985025092    0.83526875386136
C        -4.48500509856725  -18.81835453545029   -1.36592167497368
H        -6.82520742176495  -21.00130179760250    0.75444954903672
H        -3.79150658478145  -18.22937522202736   -1.94836079867665
H        -3.71064927322023  -18.07362314064494    0.45928703346097
C        -5.24497677360810  -19.33124098631627    2.31010396755577
N        -5.10638669726225  -18.92678792199834    5.12871247792130
C        -4.91821425093527  -18.09185291429059    2.88732635491528
C        -5.51105277920499  -20.35169744275315    3.23354637037171
C        -5.43382718903472  -20.11419649683678    4.60391379406055
C        -4.85483133896815  -17.93742613904323    4.25873612627906
H        -4.72543582646565  -17.23297463835154    2.26294992383104
H        -5.76263477838485  -21.34815631001680    2.90329075810322
H        -5.64450379827358  -20.92103497582906    5.29910108472152
H        -4.58565356730981  -16.97107249868656    4.68729749077571
N        -5.41830563202083  -19.75309595494760   -3.42956396304465
C        -5.70163942776248  -20.86742763006136   -4.17552831972796
H        -5.91959139643145  -21.82617026118943   -3.74927637965531
C        -5.60929177095213  -20.50493888563893   -5.48861918342731
H        -5.76078876361661  -21.11970477778025   -6.36354588817960
C        -5.16894435373426  -18.75670679640984   -4.31288074277513
H        -4.94193352444332  -17.74735521592629   -4.02326225928308
N        -5.28011676172901  -19.17673755275141   -5.56650391324313
H       -18.76554365996815  -12.09867477585531    1.51080952103498
C       -18.25314698165845  -11.26904172863870    1.04878573529358
C       -16.95774196516670   -9.19118696970981   -0.21577854030331
C       -17.66047171445048  -10.27587005195056    1.83018749412342
C       -18.19299423034682  -11.22248749163028   -0.33911610867564
C       -17.52823484057361  -10.19178911963702   -1.01366226273876
C       -17.02413666908807   -9.22578394795735    1.16671249023441
H       -18.65827550448732  -12.02373652739192   -0.89228633358510
H       -16.59657896896860   -8.40935245729318    1.73026371983605
H       -16.48290901352367   -8.33905766905774   -0.68001181021038
C       -17.39893369141830  -10.13480616728210   -2.49126418155740
N       -17.07990300132164   -9.92917919699317   -5.31549371952111
C       -16.25471766369739   -9.58022113255145   -3.09029184388209
C       -18.36366752939957  -10.60019495828267   -3.39521547252711
C       -18.17133917236712  -10.48031002647567   -4.76941163447202
C       -16.13856063521873   -9.49479495508526   -4.46459085955471
H       -15.43798998652158   -9.22575334418105   -2.48026241971880
H       -19.28411993910810  -11.04296757107826   -3.04577848886388
H       -18.93437089850519  -10.84549888474607   -5.45016543604090
H       -15.24600668952977   -9.05562664128644   -4.91188682042985
N       -17.71003709796909  -10.30769820084054    3.25600066355458
C       -18.71038074581513  -10.84949868156631    4.02081212759523
H       -19.58671266722523  -11.31073483343135    3.61154381108995
C       -18.37243574021087  -10.64475688431561    5.32772936930652
H       -18.92070341362867  -10.93185181920658    6.21260378845663
C       -16.80204876754580   -9.79854051978968    4.12325492447747
H       -15.88374414334201   -9.33158205554814    3.81841352250892
N       -17.17073109282996   -9.98861193841837    5.38368120715880
H       -14.06082839997369   -6.77283027133520   16.06518056654581
C       -13.97411012936449   -6.39398250645890   15.05859147382372