1368
 energy: -2198.236325176336 gnorm: 0.000738275439 xtb: 6.4.1 (23d549d)
Pd       10.48388167929749    1.35890066820952   17.18103634336710
Pd       18.48520098421663   -4.90380952675419    6.87942990281544
Pd       16.56869020250788    9.42471025705771    6.84493622341800
Pd        1.54412036239954  -10.29895533328913   17.32116326346229
Pd       -1.17927102933118   10.30756414289023   17.33088376426634
Pd        9.49677816473832  -16.52837082440016    7.00317591848234
Pd       18.28703975096012   -4.94264188753847   -7.83222890378902
Pd       16.44566931606532    9.39822819591959   -7.85985530657645
Pd        4.91946816941019   18.37747880241164    6.98474449911907
Pd       -4.83580855337974  -18.44317630161674    7.21090779381240
Pd      -10.12356192907824   -1.35279075471556   17.44016796805137
Pd       -9.40866093892639   16.47975214870626    7.17969020962793
Pd        9.33240963420545  -16.59113734566145   -7.71230792642042
Pd       -5.00805100647136  -18.44818499149063   -7.49736736000052
Pd        1.07018447112657  -10.36845350840461  -17.82478094326163
Pd      -16.68252063441014   -9.52674875598840   -7.34056159671138
Pd      -10.61322122602430   -1.44246342539515  -17.69506736165387
Pd       10.06375895001737    1.25376058465619  -17.96674392536016
Pd      -18.54790071598642    4.80961146575913   -7.36879915861635
Pd      -16.50603373392823   -9.50678574339198    7.35865799166625
Pd       -1.62705651158478   10.18216013965232  -17.81252729970585
Pd       -9.59297890851209   16.46049086559795   -7.52926536635653
Pd      -18.38722395490183    4.83857814760331    7.34651192232098
Pd        4.76080129380694   18.31545809434271   -7.70900588698245
H        -2.38458234512489  -17.87139227086305   13.40980506581585
C        -2.43319485029790  -16.80869595477675   13.22923455958249
C        -2.52811452105994  -14.07821408126192   12.84131295570876
C        -3.09727470624912  -16.30856752481925   12.10930700953219
C        -1.81242087866648  -15.95280188875145   14.13029172151600
C        -1.81896554587510  -14.56595541845313   13.94632165235300
C        -3.15527954810575  -14.92437253912301   11.94541681613454
H        -1.29856662828305  -16.38844056490617   14.97314513299607
H        -3.71663336313510  -14.49975089659094   11.12627721146153
H        -2.62955425200807  -13.01308811270163   12.69403156664178
C        -1.09934864640815  -13.62519378804047   14.83495078758535
N         0.29376785823890  -11.74402268430108   16.44057278923341
C        -0.90867777220609  -13.80938273832452   16.21001046957184
C        -0.54126879228085  -12.44715726389888   14.30965304413632
C         0.12529806120260  -11.55460573322556   15.12393975659663
C        -0.21720319572759  -12.86397784876724   16.96289213966156
H        -1.30647884254787  -14.67603389147756   16.71583992873392
H        -0.61278318416597  -12.23334915328580   13.25425006513656
H         0.55214281833104  -10.63979978128957   14.70726191428263
H        -0.07773622829187  -13.02193064653445   18.02768139529951
N        -3.70535830154263  -17.16395192591989   11.14829195092293
C        -4.27913030163577  -18.38704228652603   11.37740538863360
H        -4.35167431466049  -18.83557665721170   12.34797632392680
C        -4.73607291566202  -18.84517150083766   10.17473715344482
H        -5.24780370334873  -19.77082760460726    9.96203549899697
C        -3.83004874772293  -16.92429206187239    9.82152158291349
H        -3.45043657824877  -16.04464271677707    9.33473563818258
N        -4.44780162172504  -17.92155944033874    9.20598641518243
H         5.29292712024981   -5.74727016139183   20.66358463800645
C         5.61827377485875   -5.44146036290359   19.68141022402394
C         6.48615150820796   -4.57686540488699   17.21312763341055
C         5.21396620358056   -6.14632428148170   18.54621600521261
C         6.44097909471535   -4.32574620341668   19.58003192242050
C         6.88495557160394   -3.84882877333257   18.34158870631083
C         5.68004578615767   -5.69853634052219   17.30900807292143
H         6.71400956502344   -3.81383870425380   20.48997233281244
H         5.43499721161987   -6.24169935879406   16.40812689253623
H         6.84423109328403   -4.28943651738968   16.23505137946279
C         7.72069483382754   -2.63181561681197   18.18742409260558
N         9.32200900072204   -0.31551616059498   17.76304099477362
C         7.56017413728167   -1.78990295279237   17.07353974738355
C         8.71097851334858   -2.22455877655502   19.09130222915024
C         9.47602448849740   -1.08662308610686   18.84636478939543
C         8.35697222171770   -0.67389907732757   16.90314745888330
H         6.79417622017207   -1.99637236037631   16.34169458528594
H         8.91496678310631   -2.79465273624225   19.98507847499253
H        10.24287270184221   -0.79364055690706   19.55701326842203
H         8.21409173667501   -0.02443753366820   16.03803493202970
N         4.36929796017739   -7.29313918213584   18.63232780993019
C         4.27684228430075   -8.15453115267548   19.69501791722957
H         4.85695695683926   -8.05813896043910   20.59061119902137
C         3.36937261047063   -9.11625673449660   19.35567537923739
H         3.03637939354225   -9.95754765327392   19.94424699767088
C         3.51419555160923   -7.76044271123048   17.69053949443612
H         3.34438915920022   -7.27673422836283   16.74648319861339
N         2.89177907814161   -8.85944898917999   18.09735539003977
H        -7.99218261409588    4.42471688455950   20.20257177950196
C        -7.18019321808953    4.36415122921861   19.49458614252319
C        -5.08663015193704    4.30355217807668   17.70318994812466
C        -7.02076361768126    3.23484291495580   18.68974188196194
C        -6.30775700161225    5.44214861851383   19.40068714701552
C        -5.24537473477404    5.45199161596672   18.48971471439918
C        -5.94402140530408    3.22089994061411   17.80182727263451
H        -6.48555384411432    6.29397410828469   20.03892898810468
H        -5.75276325223801    2.34736811003793   17.19583826253394
H        -4.25039340008854    4.22993309110992   17.02299384812462
C        -4.32541895664801    6.60469513612823   18.32191343832815
N        -2.51107055677960    8.75975100246811   17.90350654793022
C        -3.79593378483754    6.91879040250683   17.05837563644202
C        -3.90945183499000    7.45159937593611   19.35777229209462
C        -3.01864985323449    8.49432233538649   19.11307854209049
C        -2.91837718877993    7.97335955069188   16.89581109244380
H        -4.08631013257941    6.34803298774324   16.18956714628418
H        -4.25630824565146    7.30328544831648   20.36924854424310
H        -2.70532834970926    9.13416767400899   19.93219415752824
H        -2.52109504985793    8.20910997519517   15.90676335587030
N        -7.90756689824165    2.11978598985844   18.77136292918258
C        -8.59945429625385    1.71405722752313   19.88308852009873
H        -8.53397001191913    2.20257777560209   20.83446578134320
C        -9.31000720197836    0.60272691340658   19.53098576388079
H        -9.96927951185393    0.00887525938371   20.14588365149800
C        -8.22538611432903    1.24544853462720   17.78632144477728
H        -7.85365765727599    1.31899449250563   16.78100486825971
N        -9.07225228697383    0.31674093280165   18.21219668061763
H        14.39142627051585    6.70373467618564   15.64832483164932
C        14.25584451646515    6.33989764509470   14.64170520046765
C        13.93563283787048    5.48681255068617   12.03734423453747
C        13.56085731198218    5.15453661020673   14.40078907097189
C        14.78063509028965    7.08543878024488   13.59299257198305
C        14.61522828581470    6.68975987473753   12.26242449056822
C        13.42870941948497    4.73048022060650   13.07785547667336
H        15.30112416653334    8.00108900775701   13.82807563634226
H        12.94411054848951    3.79124050987453   12.85456367366340
H        13.83143850764947    5.11034928469508   11.02970851079675
C        15.09978612620866    7.47595395756382   11.10431879739499
N        15.98660920290492    8.82502114193866    8.77454209901404
C        14.33047046823035    7.54080194596255    9.93104410229891
C        16.31325636015988    8.17215564975170   11.06148647276862
C        16.71661604172075    8.81649971458486    9.89505653360441
C        14.79628067128198    8.21004729380266    8.81735358279601
H        13.35531487301595    7.07978831795455    9.89467990573603
H        16.96686680372725    8.20310578884082   11.92009660326680
H        17.66606490489585    9.34240101900317    9.87117504861956
H        14.18947192017175    8.26522846351183    7.91206499751672
N        13.00540987504719    4.37467605639797   15.45332407084838
C        13.46045766709801    4.29023448260138   16.74356194373968
H        14.31372686649985    4.82518587042118   17.10943619590559
C        12.65210270026027    3.40398943978047   17.39568599547667
H        12.70414813915181    3.08445194657695   18.42496899874951
C        11.93819931899907    3.54486704771053   15.36966049176329
H        11.34144783399655    3.42301231114358   14.48458421543667
N        11.69693399343771    2.94717472147054   16.52688862223146
H         1.37069599487413   16.17837631497450   15.38881579939719
C         1.79598316879262   15.61810080230931   14.57054050560510
C         2.91547837266958   14.25252830338264   12.44960681659181
C         1.76224058746521   14.22378792067504   14.57153552589945
C         2.36763271266744   16.31556128640519   13.51382820289366
C         2.91858931615840   15.65268028314189   12.41188096901838
C         2.35547275901238   13.55233063018589   13.50224454264956
H         2.35608314805830   17.39383501025702   13.55161960711937
H         2.40567915270503   12.47344345810211   13.50191733840536
H         3.39515309103100   13.69141132550829   11.66122391790557
C         3.46271370556214   16.35710420143858   11.22861392577866
N         4.47586870755768   17.60716002662777    8.89035729697578
C         3.35049914543819   15.78000247929093    9.95208036137840
C         4.10268739473856   17.60221385820704   11.26206070681889
C         4.58402398899178   18.18371460313838   10.09201716960083
C         3.86008914217110   16.41716619992835    8.83933841507324
H         2.84685791459947   14.83420981607077    9.82344856877697
H         4.25043211928706   18.12715746516671   12.19361750090835
H         5.07731899122330   19.14963363118840   10.13491752154867
H         3.77192049496274   15.95885124073940    7.85189181927813
N         1.14791894742155   13.48467249645757   15.62103567280791
C         1.07685458887433   13.83358783577362   16.94411077471486
H         1.51082568877373   14.72744551305725   17.34555593680668
C         0.40731610988557   12.83100142291790   17.58561904189983
H         0.16338220601108   12.75358501714861   18.63375693147248
C         0.51933882542915   12.29118541080577   15.50462259119273
H         0.39436074373168   11.76978459953885   14.57332246675188
N         0.06061011108978   11.86996009895242   16.67384714306845
H        18.69175044243034   11.99408197735401    0.95732014416197
C        18.17430627269301   11.15906903905606    0.51095566369254
C        16.86387058247015    9.06732384744222   -0.71453456173843
C        17.60092366368717   10.16876425778831    1.31018940982785
C        18.08791616619191   11.10285554204609   -0.87515894107010
C        17.41431507356201   10.06513784244009   -1.52970351216100
C        16.95690314880623    9.11130869421028    0.66615184175379
H        18.53932692223090   11.90202607752016   -1.44263351405603
H        16.54390907759936    8.29679804254491    1.24313579523305
H        16.38386800370841    8.21028173029689   -1.16417852319507
C        17.25496040537912    9.99920637516477   -3.00395662560359
N        16.87568196810755    9.78030384127283   -5.81931431188968
C        16.09862293753130    9.44086565472431   -3.57552268700402
C        18.20041454210364   10.45992466380611   -3.93025771202161
C        17.97876009930197   10.33346702890516   -5.29948491242507
C        15.95297586759163    9.34923111375480   -4.94655922176144
H        15.29565029163136    9.08856985174512   -2.94627330194303
H        19.12821413434734   10.90400012925769   -3.60254240194490
H        18.72722823685677   10.69500688576304   -5.99811949183540
H        15.05119946164396    8.90788072183305   -5.37290688178817
N        17.67645449451707   10.21179124528570    2.73458974792176
C        18.68391177736455   10.77169948944314    3.47666753536214
H        19.54785765488801   11.23861045170391    3.04794743910837
C        18.37118518413799   10.57549331640844    4.79112317484825
H        18.93025101760064   10.87869269159723    5.66411225021358
C        16.78960148009574    9.70043208376013    3.62220251192768
H        15.87224626427049    9.21872060085219    3.33852390864451
N        17.17804629171399    9.90639478476192    4.87401602918159
H         4.94334609429132   21.66136427318086    1.11238999310806
C         5.13620010474372   20.69871271642931    0.66445931972380
C         5.62106134130164   18.27785295533488   -0.56081147502309
C         5.40286686281193   19.58566838163619    1.46289243285759
C         5.10263753375739   20.59587579416822   -0.72120998767225
C         5.32519766119838   19.37863330400106   -1.37632810011576
C         5.66155591149670   18.37474936276842    0.81962816362338
H         4.87649457444367   21.48598520382564   -1.28765687830708
H         5.92529754166626   17.50137405521011    1.39816826069709
H         5.86690185358843   17.32620137364933   -1.00861644928866
C         5.23931075311548   19.22098656945573   -2.84950288338653
N         5.04625548208332   18.81598599400354   -5.66527431744059
C         4.82821013578109   18.00306046043043   -3.41855096701920
C         5.54444140846190   20.22426584907141   -3.77996005560471
C         5.43502366271179   19.98831851275456   -5.14828605405177
C         4.75386167219221   17.84390561485123   -4.78879196312323
H         4.54707110219332   17.17325707284036   -2.78851912090726
H         5.88695807193737   21.19578131966861   -3.45734613452731
H         5.67555616122109   20.78230294680823   -5.84870183445185
H         4.44963099321970   16.88531259386399   -5.21090024022275
N         5.43079448982671   19.66849408814601    2.88721006545005
C         5.83462343343575   20.74747230984370    3.62954651384622
H         6.19064872262399   21.66224831274748    3.19962264600105
C         5.72075396693908   20.39509742762654    4.94386038289896
H         5.95622813614665   20.98477176452388    5.81696710164066
C         5.08395979645237   18.70455694118718    3.77337259380594
H         4.69960891233056   17.74309526902688    3.48624093414668
N         5.24468021550906   19.11297479200126    5.02567029620155
H        15.20976915662961    8.36912149086859  -14.45527103079110
C        14.75925125535184    7.46016080597030  -14.08791061360922
C        13.57686019667225    5.12185167830327  -13.22358985975946
C        14.83855128769296    7.12372966101039  -12.73650953771925
C        14.09129175762688    6.64020012865557  -14.98913383152667
C        13.46162717446379    5.46150097796505  -14.57698594824049
C        14.25334906715277    5.92573234517026  -12.32487446153929
H        14.04598379298877    6.94906071268441  -16.02206591094318
H        14.34379759987971    5.60271948789800  -11.29809114405538
H        13.16275063314778    4.19010260705832  -12.86619164099130
C        12.67946198290880    4.59084670447604  -15.48461170598854
N        11.15427204986411    2.82659802776417  -17.09977584367080
C        11.53226045773389    3.93274661248337  -15.01067370846132
C        12.99785509034050    4.34036395642684  -16.82477117735964
C        12.22632957201152    3.46409664416066  -17.58326628574801
C        10.81763168578117    3.07948867088425  -15.82708970077735
H        11.18595578913528    4.10077353045769  -14.00238258501135
H        13.85685817461350    4.80195834665474  -17.28783170900862
H        12.49093891611294    3.27256257196670  -18.61861035494261
H         9.93032761864173    2.56915882285011  -15.44853533238659
N        15.49929612912076    7.95184855947402  -11.78676947688163
C        16.56551926544142    8.78193559779614  -12.01648511494027
H        17.03345838999555    8.89658496102907  -12.97362025275179
C        16.89059839095046    9.35561134629733  -10.82064113611305
H        17.67687955029334   10.06354614575801  -10.61007133626912
C        15.21183817395403    8.05492383629301  -10.46723903819993
H        14.39540578353356    7.54323645802793   -9.99142720378009
N        16.03110852788190    8.89897049154983   -9.85768039014596
H         2.25458055416541   17.76282082036542  -13.88243668865501
C         2.32908682266956   16.69914561359214  -13.71671287653332
C         2.49533721668838   13.96655617462771  -13.36716475659018
C         3.02285260451718   16.19989187218552  -12.61478010782039
C         1.71163372341808   15.84037180486860  -14.61730496107498
C         1.75374440269248   14.45158835784320  -14.45213370720508
C         3.11667145192296   14.81564921996961  -12.47015935184209
H         1.17288605751954   16.27490726620040  -15.44498305952469
H         3.70238439521548   14.39486926866495  -11.66619897083248
H         2.62738331898305   12.90273340398822  -13.23676902275596
C         1.03668774686574   13.50710990858387  -15.33857382953370
N        -0.36888399399979   11.62660314104308  -16.93589694555196
C         0.53585164221499   12.29927541971317  -14.82373428025198
C         0.79309911843173   13.71511347436634  -16.70217793295110
C         0.09647218485733   12.77018252150690  -17.45053961492328
C        -0.13581168041466   11.40711222942532  -15.63407719669174
H         0.65613231538774   12.05905556377618  -13.77867454827142
H         1.15314266967682   14.60087230668493  -17.20314199671976
H        -0.08439635556209   12.94751888823937  -18.50611044127257
H        -0.50510436914965   10.46457545226965  -15.22638851785249
N         3.62754500038851   17.05593012499399  -11.65220155367835
C         4.19724992165470   18.28117149552472  -11.87848883639201
H         4.26543266821293   18.73268649217190  -12.84806406057413
C         4.65673148397176   18.73572532699597  -10.67530439057746
H         5.16841969918654   19.66087415758551  -10.46125222020126
C         3.75519304746027   16.81165532073572  -10.32687599858184
H         3.37965566269970   15.92774492333870   -9.84439458495264
N         4.37176515184309   17.80853034635586   -9.70897106159466
H         6.58401095486787   -3.50981704363576  -21.30690444064199
C         6.38055380505866   -3.90949874627386  -20.32563540388572
C         5.78824657057134   -4.98696072450580  -17.85961682126506
C         6.97010319111266   -3.34746843076738  -19.19177449604246
C         5.51170257691063   -4.98960396214220  -20.22404849498705
C         5.17492989681032   -5.54950218064783  -18.98650179152396
C         6.66710719481347   -3.92132895205283  -17.95592137616876
H         5.07731358185891   -5.37691944172230  -21.13281987899015
H         7.13845121633264   -3.55290806867721  -17.05660378723117
H         5.61057683389408   -5.41343757292784  -16.88287246473708
C         4.21191649954117   -6.66845588349423  -18.83204519984831
N         2.38315665569029   -8.81000190190361  -18.40809916041625
C         3.36790747091465   -6.73708772596948  -17.71032714652803
C         4.06083634632254   -7.72193824684496  -19.74362683088883
C         3.15736687672845   -8.75335596555783  -19.49868568115841
C         2.49285421786916   -7.79297761305040  -17.54044912698843
H         3.37993542081384   -5.95022751813945  -16.97162924276950
H         4.65515265881287   -7.76639370763960  -20.64376967841579
H         3.06194578487601   -9.56313009122117  -20.21568751859810
H         1.83681396551014   -7.82743692697073  -16.66922336300572
N         7.86323211131862   -2.23796567713044  -19.27831277793950
C         8.65907964848601   -1.91895860291935  -20.34827691308092
H         8.70242585561280   -2.49557736910972  -21.25024379426020
C         9.36200995361530   -0.79950194751935  -20.00719141714403
H        10.08238379848074   -0.25675380440791  -20.60021751786935
C         8.10898858642726   -1.30073886121163  -18.33072446857843
H         7.61084929065606   -1.26961291319020  -17.37939129487087
N         9.00797327593940   -0.41492414696130  -18.74063831758046
H        -6.69955707726323    6.67143817739359  -20.55202944318254
C        -6.42509375485568    5.89571433173990  -19.85405428772154
C        -5.80990180856871    3.87158742243935  -18.08776646705895
C        -5.28119241171539    6.02195868497409  -19.06403956936299
C        -7.24491186415524    4.77736714501050  -19.75777289359410
C        -6.97209594929923    3.73985359612644  -18.85896952330111
C        -4.98189525401023    4.97667945390224  -18.18892582765426
H        -8.12279787752238    4.73828104019054  -20.38416024248913
H        -4.07993841985250    5.00833752424108  -17.59533623848304
H        -5.51673462881465    3.07592173485018  -17.41818003391923
C        -7.85099967694866    2.55584136033752  -18.68850620957387
N        -9.46772491635671    0.24916155692680  -18.26681025404741
C        -8.00157565241440    1.95248152387178  -17.42799370294764
C        -8.57998234090499    1.94762741633649  -19.71904793076897
C        -9.35830817415939    0.81875804850245  -19.47295044936178
C        -8.79577887578190    0.83399252195571  -17.26371482082861
H        -7.51068741499639    2.37061920611722  -16.56248791902566
H        -8.54001260549548    2.32994178431755  -20.72782378837955
H        -9.90992271645753    0.36070339700458  -20.28806744445974
H        -8.90775690734296    0.38078612682567  -16.27700132691133
N        -4.42974141541574    7.16415019285624  -19.14767396724742
C        -4.22847628398428    7.94626530387939  -20.25538158259133
H        -4.69613882911801    7.76635892153848  -21.20246361092208
C        -3.33123485015926    8.91437353150313  -19.90647012877110
H        -2.93433514874258    9.70894761552984  -20.51959888390309
C        -3.65314626056893    7.68662047737859  -18.16810951235670
H        -3.61567724931412    7.29787817056442  -17.16716238234797
N        -2.97725463900558    8.74669513079325  -18.59359988873186
H        -3.06232138594681  -15.54196019813992  -16.29485757061836
C        -2.73245147458470  -15.32877360277331  -15.28998273654387
C        -1.95652033775445  -14.82936877217860  -12.68974663661913
C        -1.76423514714226  -14.35342634985366  -15.05048589848019
C        -3.30260477780320  -16.04110743838456  -14.24185480752390
C        -2.94551775616408  -15.79459073909719  -12.91294489220293
C        -1.37111165395879  -14.13165239191233  -13.73002171309318
H        -4.05528405176510  -16.77827347819401  -14.47560970071030
H        -0.58632804739828  -13.42311762280329  -13.50881960359958
H        -1.60656010678652  -14.64302791204350  -11.68442251978980
C        -3.56426264330819  -16.47937787217424  -11.75425000457602
N        -4.60805353638681  -17.71091858032717   -9.42446442317752
C        -3.81078822418947  -15.76613746605473  -10.56973870670912
C        -3.92213651502036  -17.83212366975317  -11.72175872647939
C        -4.42521568213265  -18.40147334714256  -10.55498581280618
C        -4.32247736395987  -16.40157956772447   -9.45636496767918
H        -3.61753302816543  -14.70532904387273  -10.52401859002989
H        -3.79384161835977  -18.46194061516958  -12.58909010515774
H        -4.68739729046551  -19.45484703767553  -10.53935214658157
H        -4.52136438997727  -15.83940667455391   -8.54247306245774
N        -1.16884386335955  -13.60257243127258  -16.10240815161163
C        -0.98728124116789  -14.00479718336709  -17.40003807277982
H        -1.28843633078412  -14.96295774331643  -17.77328746007123
C        -0.34893093069963  -12.98694871847297  -18.04872354110269
H        -0.04088712771670  -12.94186032088289  -19.08186806144035
C        -0.64189594705008  -12.35815118889148  -16.01077131562042
H        -0.66655797383123  -11.76091061801294  -15.11805742416336
N        -0.14272173485118  -11.95675970841079  -17.17026557164556
H       -14.29130812390318   -6.91857944320103  -16.11429485137961
C       -14.25482522129301   -6.49249182571748  -15.12369365884460
C       -14.19891368508277   -5.46745693454004  -12.56246848745321
C       -13.67838948863252   -5.24041786846493  -14.91043455618019
C       -14.78472899697301   -7.22271435608161  -14.06700414886918
C       -14.74797456446990   -6.74119552311496  -12.75456617006316
C       -13.68196509691756   -4.73046499500018  -13.61179454830257
H       -15.20802350594815   -8.19230410401628  -14.27930269847830
H       -13.29857227815068   -3.73939023887972  -13.41815415891131
H       -14.20763628222784   -5.02118559200960  -11.57858620653725
C       -15.22930165370576   -7.51340663169649  -11.58588362776733
N       -16.09775880568859   -8.88061403330122   -9.25595804846605
C       -16.33511770830940   -8.37215327308136  -11.59077150831197
C       -14.56673194532363   -7.40140371016148  -10.35203948150962
C       -15.02280708277503   -8.07950076417787   -9.24012174994195
C       -16.73176142319929   -9.02275074670195  -10.42496850171615
H       -16.91354274723235   -8.52917602112442  -12.48871678577822
H       -13.67995295950384   -6.79265063272708  -10.26319138558503
H       -14.50601409645584   -7.97670328890835   -8.28425419582046
H       -17.59622465301538   -9.67911903572319  -10.44283197395677
N       -13.10561781135952   -4.48011068973194  -15.96800417353182
C       -13.49375229577951   -4.47279910786370  -17.28224008019512
H       -14.30661722669163   -5.05740240458324  -17.66413455853880
C       -12.68802075415163   -3.58178832339234  -17.93153243033682
H       -12.69973484531230   -3.30668592729790  -18.97478944194529
C       -12.07983818500341   -3.60176048352164  -15.86660347113315
H       -11.53922621417488   -3.41598395861632  -14.95672347695070
N       -11.79968946838665   -3.04732405547881  -17.03669211303726
H        -6.89764039606169  -21.18218660602205   -1.60937139615187
C        -6.20238864645893  -20.48690540233288   -1.16486331274094
C        -4.45721784823592  -18.73644517341883    0.05381101003734
C        -5.38335190749359  -19.69122120188804   -1.96731134163186
C        -6.15187182098351  -20.39988954819006    0.22139816507523
C        -5.29114426315886  -19.50893329818236    0.87334011319315
C        -4.49662248344404  -18.82440476636809   -1.32727114159820
H        -6.81742618962131  -21.02958328025585    0.79138086865253
H        -3.80800681357376  -18.22883816932454   -1.90875168704697
H        -3.72726732012860  -18.07612007090132    0.49873417476967
C        -5.24908771136874  -19.34946145799984    2.34836361036905
N        -5.10982343172498  -18.94754842953947    5.16700323656074
C        -4.93759862264763  -18.10669461351328    2.92664490967462
C        -5.50009699571144  -20.37476163464708    3.27054267205451
C        -5.42284914188584  -20.13835915852342    4.64111925247632
C        -4.87363344497847  -17.95345779469306    4.29814549866525
H        -4.75763358908443  -17.24452725005916    2.30297513629882
H        -5.73966056438270  -21.37381232739163    2.93915094813470
H        -5.62152871143497  -20.94893157490888    5.33549809007628
H        -4.61725275706881  -16.98413695559372    4.72776005531576
N        -5.42505335990434  -19.76206638853187   -3.39192843171229
C        -5.71547450912213  -20.87321471224447   -4.14008615035459
H        -5.93849262250614  -21.83175567008099   -3.71608368440465
C        -5.62253728124920  -20.50862363476846   -5.45254031269485
H        -5.77972133720020  -21.12011973694338   -6.32879349517521
C        -5.17073807446787  -18.76539798446352   -4.27355542759878
H        -4.93766347971705  -17.75777797276645   -3.98273391896313
N        -5.28536913237523  -19.18230668931902   -5.52792047684365
H       -18.81348007768171  -12.10772186630586   -1.44318220892556
C       -18.27748428006826  -11.28256049796002   -1.00073019376282
C       -16.91456064410629   -9.22193977401392    0.21939970244426
C       -17.68349660392154  -10.30674944275442   -1.80330092563827
C       -18.18945968943315  -11.22544834132565    0.38520027428457
C       -17.48968287163160  -10.20363200965132    1.03659317257065
C       -17.01304427830292   -9.26441049961201   -1.16107551467510
H       -18.65949907942289  -12.01205642875509    0.95519191764965
H       -16.58109889724244   -8.46003737632351   -1.73814398772717
H       -16.41010706130128   -8.37839339771762    0.66822373637100
C       -17.32746945481537  -10.13661683815326    2.51053240454572
N       -16.94549760939584   -9.90008513209756    5.32234940487220
C       -18.29803735198547  -10.53630410558304    3.43876312787851
C       -16.14116659388902   -9.64041804967221    3.07762971757392
C       -15.99358066184241   -9.54175704629904    4.44796425266529
C       -18.07473133882391  -10.40118076654060    4.80700671782123
H       -19.24563084560154  -10.93790375307416    3.11281193185342
H       -15.31776593645352   -9.34566810811428    2.44507784152533
H       -15.06276214005351   -9.16397040604001    4.87390483777773
H       -18.84385877163812  -10.71046421161086    5.50824082329943
N       -17.76345924444444  -10.35158429954236   -3.22739011404811
C       -18.75937294527768  -10.93796662933694   -3.96511751445538
H       -19.61192643645666  -11.42323800336106   -3.53432628320244
C       -18.45527696720721  -10.73940227034036   -5.28098713186347
H       -19.00685350958318  -11.06467091084361   -6.15023702247341
C       -16.89204569661724   -9.82239928882196   -4.12039289109861
H       -15.98580993909897   -9.31677001530666   -3.84287149005870
N       -17.27928042574273  -10.04151340941842   -5.37047226005447
H       -16.55221159599896   -6.91239262601572   13.50924636976309
C       -15.49538038377029   -6.75523424571606   13.35815483707052